Title
82262
    1SAPS     N    1   4.742   1.160  11.219 -0.9369 -0.3551 -0.4241
    1SAPS   HN1    2   4.794   1.070  11.217  0.5555  0.4779 -1.2373
    1SAPS   HN2    3   4.673   1.158  11.141  0.5196  0.1753 -1.7851
    1SAPS   HN3    4   4.808   1.231  11.180  0.3588  0.8431  3.4927
    1SAPS   C12    5   4.696   1.208  11.349  0.6698  0.1668  0.2256
    1SAPS  H12A    6   4.614   1.146  11.382  1.2348 -1.2338 -0.9237
    1SAPS   C13    7   4.789   1.224  11.466 -0.9000 -0.1700 -0.1168
    1SAPS  O13A    8   4.908   1.184  11.460  0.1408  0.8592 -0.0044
    1SAPS  O13B    9   4.741   1.267  11.577  0.2904  0.9893  0.0530
    1SAPS   C11   10   4.624   1.342  11.324  0.0949  0.2745  0.1934
    1SAPS  H11A   11   4.712   1.408  11.307  1.6415 -1.0347  2.4957
    1SAPS  H11B   12   4.570   1.381  11.413 -2.5998 -3.5430  0.4749
    1SAPS     P   13   4.465   1.472  11.158  0.2685  0.5028  0.2308
    1SAPS   O13   14   4.339   1.486  11.233  0.2160 -0.1126  0.2982
    1SAPS   O14   15   4.552   1.592  11.166 -1.2635 -0.6696  0.0545
    1SAPS   O12   16   4.536   1.341  11.211 -0.3793  0.4607 -0.2675
    1SAPS   O11   17   4.431   1.448  11.011  0.0282  0.1207  0.0498
    1SAPS    C1   18   4.544   1.438  10.918  0.1021  0.4933 -0.0756
    1SAPS    HA   19   4.643   1.431  10.969 -0.5237 -1.6476  0.9255
    1SAPS    HB   20   4.538   1.346  10.857 -0.6266  0.7080 -0.3370
    1SAPS    C2   21   4.548   1.560  10.820 -0.5881  0.2571 -0.2446
    1SAPS    HS   22   4.579   1.648  10.880  0.3418 -0.4974  0.4135
    1SAPS   O21   23   4.421   1.598  10.767  0.1507  0.2430  0.6121
    1SAPS   C21   24   4.338   1.516  10.707  0.8067  0.5879 -0.1728
    1SAPS   O22   25   4.362   1.397  10.679 -0.5372 -0.5875  0.1182
    1SAPS   C22   26   4.210   1.591  10.666 -0.0187 -0.5952 -0.0074
    1SAPS   H2R   27   4.138   1.511  10.636  2.4984 -2.8882 -0.3425
    1SAPS   H2S   28   4.171   1.657  10.746  1.0381 -1.7860  1.5438
    1SAPS    C3   29   4.653   1.530  10.703  0.2366 -0.3794 -0.6876
    1SAPS    HX   30   4.612   1.441  10.650 -0.6277 -0.1462 -0.4182
    1SAPS    HY   31   4.750   1.508  10.753 -0.7308 -1.6924  0.7115
    1SAPS   O31   32   4.654   1.630  10.598 -0.5478  0.0688 -0.7680
    1SAPS   C31   33   4.714   1.738  10.636 -0.3226 -0.8711 -0.3664
    1SAPS   O32   34   4.781   1.740  10.739  0.2089 -0.1724  0.0296
    1SAPS   C32   35   4.673   1.859  10.551  0.6969  0.8746  0.0802
    1SAPS   H2X   36   4.659   1.941  10.625  0.2143  0.7361  0.1432
    1SAPS   H2Y   37   4.578   1.838  10.497  0.7172  0.7363  0.0990
    1SAPS   C23   38   4.238   1.688  10.545  0.0089 -0.1252 -0.0788
    1SAPS   H3R   39   4.323   1.647  10.487 -0.1088 -4.0299  2.1525
    1SAPS   H3S   40   4.259   1.791  10.582  1.5779 -0.6972  0.6993
    1SAPS   C24   41   4.116   1.701  10.444 -0.1342  0.1846 -0.7951
    1SAPS   H4R   42   4.135   1.787  10.377 -1.5181  0.2586 -1.1201
    1SAPS   H4S   43   4.030   1.733  10.506  2.7368  1.3675  2.9417
    1SAPS   C25   44   4.096   1.569  10.372  0.6036 -0.0026  0.5106
    1SAPS   H5R   45   4.033   1.493  10.421 -0.3262 -1.1128 -2.1767
    1SAPS   C26   46   4.126   1.535  10.241  0.8862 -0.3194  0.2211
    1SAPS   H6R   47   4.110   1.431  10.210  0.1036  0.1776 -1.1237
    1SAPS   C27   48   4.181   1.630  10.138 -1.0899  0.1689 -0.3129
    1SAPS   H7R   49   4.283   1.593  10.114 -0.8062 -0.0764  1.1511
    1SAPS   H7S   50   4.211   1.729  10.178  0.6742  0.4942 -2.2506
    1SAPS   C28   51   4.097   1.643  10.012  0.4059  0.8009  0.8085
    1SAPS   H8R   52   4.023   1.724  10.025  0.6804  1.1210  0.4030
    1SAPS   C29   53   4.114   1.590   9.889  0.1919 -0.6459 -0.7415
    1SAPS   H9R   54   4.048   1.631   9.810 -0.6856  1.6502  1.0890
    1SAPS  C210   55   4.221   1.493   9.846  0.2419  0.4589  0.2260
    1SAPS  H10R   56   4.300   1.471   9.921 -0.3935 -0.1098  0.7441
    1SAPS  H10S   57   4.280   1.525   9.757 -2.2176 -0.5539 -1.8743
    1SAPS  C211   58   4.153   1.364   9.818  0.3938  0.5139 -0.6984
    1SAPS  H11R   59   4.099   1.318   9.902  0.3895  0.3021 -0.8164
    1SAPS  C212   60   4.139   1.298   9.697 -0.6841  0.1333 -0.2572
    1SAPS  H12R   61   4.082   1.204   9.691  1.4407 -1.2786  0.6342
    1SAPS  C213   62   4.209   1.350   9.573  0.0257  0.0984 -0.3751
    1SAPS  H13R   63   4.276   1.276   9.525 -1.4890  0.2007 -2.8319
    1SAPS  H13S   64   4.289   1.423   9.599 -0.3829  0.2057  0.6323
    1SAPS  C214   65   4.115   1.416   9.468 -0.0219  0.5155  0.0481
    1SAPS  H14R   66   4.059   1.505   9.501 -0.2625  0.0745  0.8622
    1SAPS  C215   67   4.087   1.379   9.345 -0.2504 -0.3121  0.7105
    1SAPS  H15R   68   4.030   1.451   9.284  2.1748  0.0537 -1.2554
    1SAPS  C216   69   4.146   1.266   9.264 -0.1410 -0.1804 -0.0719
    1SAPS  H16R   70   4.079   1.227   9.185  0.6751  0.0264 -0.8798
    1SAPS  H16S   71   4.168   1.189   9.342 -0.3973 -1.0971 -0.8828
    1SAPS  C217   72   4.277   1.281   9.185 -0.6171  0.4923  0.1816
    1SAPS  H17R   73   4.299   1.186   9.133 -2.6956  0.3802 -0.6149
    1SAPS  H17S   74   4.353   1.299   9.264 -1.5772 -1.0102  1.5221
    1SAPS  C218   75   4.268   1.395   9.078 -0.4261  0.5751  0.1222
    1SAPS  H18R   76   4.373   1.424   9.058 -0.0693  0.7145  2.0569
    1SAPS  H18S   77   4.206   1.478   9.120  0.8575 -0.2444  4.0004
    1SAPS  C219   78   4.197   1.337   8.950 -0.0874  0.0040 -0.0452
    1SAPS  H19R   79   4.155   1.424   8.897 -1.9143 -1.8040 -1.7137
    1SAPS  H19S   80   4.118   1.263   8.977  1.8116 -1.4490  1.9648
    1SAPS  C220   81   4.292   1.247   8.866  0.5355  0.1201  0.3881
    1SAPS  H20R   82   4.329   1.161   8.925  1.4623  1.1602  1.3828
    1SAPS  H20S   83   4.381   1.303   8.830  0.5243  0.8128  1.3817
    1SAPS  H20T   84   4.236   1.198   8.784 -0.8660  1.9668  0.1661
    1SAPS   C33   85   4.770   1.902  10.441  0.3264  0.0332  0.1774
    1SAPS   H3X   86   4.872   1.894  10.485 -0.5399 -1.9343  1.9705
    1SAPS   H3Y   87   4.738   2.005  10.413 -3.9502 -0.8059  1.2845
    1SAPS   C34   88   4.769   1.819  10.314 -0.5143 -0.1008  0.4630
    1SAPS   H4X   89   4.790   1.714  10.342 -0.1333  0.4101  2.2475
    1SAPS   H4Y   90   4.852   1.863  10.255  0.8152  0.4262  2.6240
    1SAPS   C35   91   4.630   1.813  10.241  0.1893  0.2971 -0.1364
    1SAPS   H5X   92   4.591   1.916  10.257  0.4324  0.5436 -1.0766
    1SAPS   H5Y   93   4.565   1.745  10.300  0.9074  2.0206  2.8774
    1SAPS   C36   94   4.636   1.798  10.088 -0.0129 -0.3571 -0.7754
    1SAPS   H6X   95   4.719   1.869  10.071  0.9811 -1.5468 -1.0936
    1SAPS   H6Y   96   4.546   1.843  10.043  0.5991 -0.2816 -1.9589
    1SAPS   C37   97   4.666   1.655  10.045 -0.3435 -0.4575  0.3589
    1SAPS   H7X   98   4.569   1.602  10.056 -0.3768 -0.5752 -0.4456
    1SAPS   H7Y   99   4.743   1.616  10.115  0.1908  2.0508  1.2882
    1SAPS   C38  100   4.717   1.642   9.905 -0.5200  0.8441 -0.2738
    1SAPS   H8X  101   4.756   1.539   9.891 -0.2321  0.2633  3.5507
    1SAPS   H8Y  102   4.803   1.713   9.903  0.7366 -0.6416 -1.8557
    1SAPS   C39  103   4.607   1.663   9.797  0.2456  0.0972 -0.1823
    1SAPS   H9X  104   4.580   1.770   9.787 -0.0805 -0.1321 -2.5282
    1SAPS   H9Y  105   4.518   1.613   9.839  0.8160 -0.8676 -0.0916
    1SAPS  C310  106   4.635   1.595   9.661 -0.6027 -0.7516  0.2450
    1SAPS  H10X  107   4.627   1.485   9.678 -0.6270 -0.7803  0.0554
    1SAPS  H10Y  108   4.738   1.626   9.632 -0.8429  0.3445  0.5289
    1SAPS  C311  109   4.535   1.634   9.554 -0.0353 -0.3371 -0.1006
    1SAPS  H11X  110   4.555   1.741   9.531  2.0184 -0.4017  1.1389
    1SAPS  H11Y  111   4.433   1.620   9.595  0.1062 -2.8949 -0.4690
    1SAPS  C312  112   4.527   1.547   9.428 -1.1593  0.7026  0.3409
    1SAPS  H12X  113   4.451   1.588   9.359 -1.6187  0.4055  0.6678
    1SAPS  H12Y  114   4.479   1.450   9.453 -0.1823  0.0596 -0.2181
    1SAPS  C313  115   4.665   1.521   9.355  0.2720  0.0942  0.0662
    1SAPS  H13X  116   4.725   1.483   9.440 -1.3972  1.4440  1.9581
    1SAPS  H13Y  117   4.702   1.614   9.308 -1.8341  0.7103 -0.4703
    1SAPS  C314  118   4.661   1.424   9.233  0.0087 -0.1181 -0.3169
    1SAPS  H14X  119   4.559   1.380   9.244  0.5989 -1.0133  2.0626
    1SAPS  H14Y  120   4.739   1.347   9.248  1.6523  1.5384  0.0067
    1SAPS  C315  121   4.672   1.493   9.091  0.6213 -0.2274  0.5138
    1SAPS  H15X  122   4.756   1.565   9.089 -1.8499  3.0939  2.8992
    1SAPS  H15Y  123   4.580   1.556   9.084  1.2179  0.7596  1.2441
    1SAPS  C316  124   4.683   1.398   8.976  0.2990 -0.2635  1.0172
    1SAPS  H16X  125   4.584   1.349   8.958 -0.5645  1.4865  0.8507
    1SAPS  H16Y  126   4.756   1.318   9.003 -0.0723 -0.6028  1.0358
    1SAPS  C317  127   4.729   1.462   8.842 -0.0004 -0.2578  0.5266
    1SAPS  H17X  128   4.819   1.524   8.863 -0.0738  0.0358 -0.0172
    1SAPS  H17Y  129   4.645   1.529   8.817  2.3855  2.7540 -0.0478
    1SAPS  C318  130   4.745   1.364   8.726 -0.4087 -0.0098 -0.0045
    1SAPS  H18X  131   4.833   1.297   8.735 -0.1553 -0.3683 -3.6361
    1SAPS  H18Y  132   4.753   1.422   8.631  0.6140  3.9545  2.2664
    1SAPS  H18Z  133   4.651   1.307   8.711 -1.6697  1.1724  2.7741
    2SAPS     N  134   3.705   6.203  10.994 -0.4291 -0.0627 -0.3635
    2SAPS   HN1  135   3.625   6.260  11.029  0.6005  0.7554  0.7716
    2SAPS   HN2  136   3.787   6.230  11.051  0.3698 -1.0999 -0.9955
    2SAPS   HN3  137   3.721   6.227  10.894  2.8146  1.1752  0.3221
    2SAPS   C12  138   3.683   6.056  10.998  0.7544  0.0575  0.2703
    2SAPS  H12A  139   3.770   5.997  10.972 -0.4450 -0.9776 -1.5462
    2SAPS   C13  140   3.653   5.994  11.138 -0.0130  0.5562  0.1352
    2SAPS  O13A  141   3.598   6.059  11.230  0.1725  0.1555  0.5118
    2SAPS  O13B  142   3.650   5.867  11.146 -0.2221 -0.2777 -0.6613
    2SAPS   C11  143   3.560   6.026  10.908  0.1589 -0.1470  0.6476
    2SAPS  H11A  144   3.473   6.085  10.946  1.9469  1.4371  2.5204
    2SAPS  H11B  145   3.533   5.921  10.932  0.6264 -0.5416 -0.4985
    2SAPS     P  146   3.559   6.162  10.685 -0.0342 -0.1867  0.3153
    2SAPS   O13  147   3.648   6.267  10.736 -0.3982  0.0927 -0.0296
    2SAPS   O14  148   3.572   6.123  10.543  0.1734  0.1970  0.3768
    2SAPS   O12  149   3.578   6.033  10.770 -0.1513 -0.3682 -0.1348
    2SAPS   O11  150   3.410   6.195  10.709 -0.0975  0.4626 -0.0505
    2SAPS    C1  151   3.307   6.095  10.700 -0.1774 -0.0019 -0.0816
    2SAPS    HA  152   3.346   5.992  10.716  1.1241  0.6919  1.6510
    2SAPS    HB  153   3.253   6.104  10.797  1.9175 -1.2498  1.2993
    2SAPS    C2  154   3.206   6.106  10.586  0.0624  0.3572  0.1880
    2SAPS    HS  155   3.129   6.027  10.593  1.3523 -1.0116 -0.3860
    2SAPS   O21  156   3.286   6.092  10.469 -0.2450  0.3791  0.2477
    2SAPS   C21  157   3.320   5.973  10.439  0.1447  0.1945 -0.2924
    2SAPS   O22  158   3.279   5.872  10.498  0.2664 -0.6101 -0.1152
    2SAPS   C22  159   3.428   5.968  10.331 -0.8655 -0.5005 -0.3008
    2SAPS   H2R  160   3.462   6.073  10.323  0.0561 -0.7076  0.6422
    2SAPS   H2S  161   3.512   5.921  10.387 -2.2951 -0.4222  2.0458
    2SAPS    C3  162   3.131   6.249  10.575 -0.1468 -0.3892  0.1197
    2SAPS    HX  163   3.214   6.323  10.571  0.6545 -1.2718 -3.5827
    2SAPS    HY  164   3.069   6.267  10.665 -0.9758  0.9272 -0.6745
    2SAPS   O31  165   3.047   6.249  10.468 -0.3854  0.1923  0.8480
    2SAPS   C31  166   2.996   6.365  10.433 -0.0143 -0.4098  0.9046
    2SAPS   O32  167   3.034   6.474  10.475 -0.1533 -0.1100 -1.0301
    2SAPS   C32  168   2.885   6.346  10.327  0.8075 -0.2519 -0.0580
    2SAPS   H2X  169   2.841   6.443  10.298  1.7369  0.2133  0.0395
    2SAPS   H2Y  170   2.804   6.287  10.375  2.3782 -0.4304  2.5961
    2SAPS   C23  171   3.378   5.906  10.201 -0.2362 -0.6739  0.4774
    2SAPS   H3R  172   3.350   5.799  10.209  0.7840 -1.0775 -1.0209
    2SAPS   H3S  173   3.473   5.916  10.145  0.5924 -2.3620  1.5070
    2SAPS   C24  174   3.258   5.974  10.150  0.1648 -0.4222 -1.1039
    2SAPS   H4R  175   3.176   5.985  10.224 -0.0613  1.0276 -1.5458
    2SAPS   H4S  176   3.210   5.905  10.077 -0.2232  0.8881 -2.1127
    2SAPS   C25  177   3.269   6.109  10.075  0.0981  0.2258 -0.3972
    2SAPS   H5R  178   3.262   6.205  10.128  0.9847  0.9731 -1.5982
    2SAPS   C26  179   3.266   6.112   9.942 -0.1171  0.3042  0.1890
    2SAPS   H6R  180   3.289   6.215   9.909  0.9346  0.1774  0.4880
    2SAPS   C27  181   3.287   5.992   9.845 -0.0521 -0.6939 -0.4769
    2SAPS   H7R  182   3.190   5.983   9.791  0.4660 -2.1766 -1.2148
    2SAPS   H7S  183   3.295   5.892   9.893 -0.4856 -0.1818  0.7085
    2SAPS   C28  184   3.386   6.019   9.741 -0.8859  0.8033  0.8784
    2SAPS   H8R  185   3.490   5.986   9.750 -1.1228 -0.8350 -1.5016
    2SAPS   C29  186   3.369   6.060   9.612 -0.4662 -0.4556 -0.6436
    2SAPS   H9R  187   3.453   6.060   9.541  0.2522  0.3816  0.1613
    2SAPS  C210  188   3.238   6.106   9.561  0.0493 -0.3140 -0.2685
    2SAPS  H10R  189   3.159   6.119   9.639  0.1421  0.4825 -0.3022
    2SAPS  H10S  190   3.216   6.029   9.484  0.1732  1.8426 -2.5986
    2SAPS  C211  191   3.262   6.240   9.488 -0.6956 -0.4622 -0.5673
    2SAPS  H11R  192   3.230   6.328   9.546  1.2995  0.9020 -1.4459
    2SAPS  C212  193   3.314   6.263   9.363 -0.3774 -0.3702 -0.0042
    2SAPS  H12R  194   3.313   6.369   9.332 -0.7085  0.2422  1.9393
    2SAPS  C213  195   3.370   6.165   9.265  0.7726  0.3234  0.0255
    2SAPS  H13R  196   3.359   6.061   9.302  1.9441  0.6288  1.3069
    2SAPS  H13S  197   3.481   6.178   9.257  0.7725 -0.0404 -0.6847
    2SAPS  C214  198   3.324   6.178   9.126  0.5433 -0.2712  0.1536
    2SAPS  H14R  199   3.297   6.281   9.099  1.8179 -0.0446 -0.3255
    2SAPS  C215  200   3.329   6.077   9.031  0.8370 -0.2463  0.3555
    2SAPS  H15R  201   3.307   6.099   8.926  1.0339  0.6496  0.4886
    2SAPS  C216  202   3.380   5.937   9.038 -0.2641  0.4223 -0.4140
    2SAPS  H16R  203   3.319   5.865   8.979  1.7206  0.4237 -2.6267
    2SAPS  H16S  204   3.386   5.905   9.144  1.2954 -1.0878 -0.9005
    2SAPS  C217  205   3.520   5.919   8.978 -0.0830 -0.7974 -0.0792
    2SAPS  H17R  206   3.542   5.811   8.965  1.4040 -0.5739  0.4193
    2SAPS  H17S  207   3.595   5.970   9.043 -0.8989  0.0257  0.2404
    2SAPS  C218  208   3.536   5.981   8.840 -0.4580 -0.1476 -0.6457
    2SAPS  H18R  209   3.521   6.091   8.836 -0.6472 -0.1923 -1.3469
    2SAPS  H18S  210   3.465   5.925   8.775 -0.1383 -1.5102  0.1518
    2SAPS  C219  211   3.678   5.940   8.781  0.5191  0.2650  0.3498
    2SAPS  H19R  212   3.670   5.980   8.678 -0.0181 -0.6709  0.0200
    2SAPS  H19S  213   3.682   5.831   8.762  0.4792  0.4141 -0.5784
    2SAPS  C220  214   3.797   5.999   8.857 -0.3052  0.2039 -0.4298
    2SAPS  H20R  215   3.785   6.105   8.888  0.0863 -0.0180  0.5038
    2SAPS  H20S  216   3.895   5.992   8.806  0.9328  2.0662  1.5050
    2SAPS  H20T  217   3.800   5.952   8.958  1.0651  0.8373 -0.1651
    2SAPS   C33  218   2.937   6.276  10.199 -0.0434  0.0790 -0.3353
    2SAPS   H3X  219   2.950   6.166  10.205  1.1841  0.2774  1.0648
    2SAPS   H3Y  220   3.040   6.315  10.190 -0.3933  1.2188  0.4087
    2SAPS   C34  221   2.861   6.317  10.072  0.3639  0.2685 -0.0447
    2SAPS   H4X  222   2.825   6.422  10.077 -1.9529 -0.3976 -1.1875
    2SAPS   H4Y  223   2.769   6.255  10.063  1.2936 -1.5647  2.2178
    2SAPS   C35  224   2.939   6.296   9.935  0.1851  0.2170 -0.4841
    2SAPS   H5X  225   2.991   6.198   9.934  1.5487  0.9141 -0.7058
    2SAPS   H5Y  226   3.025   6.367   9.937  0.6314 -0.3335  0.2958
    2SAPS   C36  227   2.851   6.328   9.821 -0.0852  0.2554  0.3292
    2SAPS   H6X  228   2.801   6.427   9.823 -2.5278 -0.9085  0.0737
    2SAPS   H6Y  229   2.779   6.245   9.804  0.2729  0.1928 -1.0833
    2SAPS   C37  230   2.943   6.324   9.693 -0.7585  0.3863  0.4579
    2SAPS   H7X  231   2.977   6.223   9.663 -2.3190  0.4623 -1.7670
    2SAPS   H7Y  232   3.036   6.385   9.703  0.6974 -1.5085 -0.9596
    2SAPS   C38  233   2.868   6.375   9.564  0.1186  0.1109  0.1480
    2SAPS   H8X  234   2.840   6.477   9.598 -0.2367  0.2710 -0.6166
    2SAPS   H8Y  235   2.776   6.313   9.558  0.4352 -0.1996 -2.0872
    2SAPS   C39  236   2.957   6.383   9.438  0.2230 -0.4333 -0.2514
    2SAPS   H9X  237   2.985   6.279   9.412 -1.4175 -0.6022 -1.4911
    2SAPS   H9Y  238   3.052   6.439   9.449 -0.5247  1.3114 -2.0286
    2SAPS  C310  239   2.874   6.454   9.328 -0.0875  0.4648  0.4735
    2SAPS  H10X  240   2.842   6.554   9.365 -0.6920  0.8955 -1.1468
    2SAPS  H10Y  241   2.782   6.392   9.332 -0.3852  0.9490  2.6150
    2SAPS  C311  242   2.929   6.452   9.187 -0.6595  0.0707 -0.2866
    2SAPS  H11X  243   2.844   6.444   9.116  0.5955  0.2275 -1.8703
    2SAPS  H11Y  244   2.989   6.359   9.175 -2.3953 -1.0057 -1.0454
    2SAPS  C312  245   3.010   6.572   9.136 -0.3770  0.9332 -0.0508
    2SAPS  H12X  246   3.094   6.589   9.206 -0.3752 -0.0713  0.2051
    2SAPS  H12Y  247   2.950   6.665   9.126 -1.7588  0.0752  0.0229
    2SAPS  C313  248   3.075   6.545   9.005 -0.5858 -0.4011 -0.1040
    2SAPS  H13X  249   3.029   6.451   8.966 -1.0593 -1.0187  1.8136
    2SAPS  H13Y  250   3.182   6.524   9.026 -1.0775 -0.5345  2.5796
    2SAPS  C314  251   3.066   6.664   8.909  1.1186 -0.6659 -0.0992
    2SAPS  H14X  252   3.086   6.755   8.969  2.2691 -1.5748  0.9564
    2SAPS  H14Y  253   2.961   6.668   8.870  1.4801  0.4290 -1.0304
    2SAPS  C315  254   3.161   6.655   8.787  0.1125  0.2148  0.1404
    2SAPS  H15X  255   3.135   6.571   8.720 -1.7332 -0.7981  2.0119
    2SAPS  H15Y  256   3.264   6.636   8.824  0.5748  0.1186 -1.1560
    2SAPS  C316  257   3.163   6.790   8.714  0.4137 -0.1590  0.6836
    2SAPS  H16X  258   3.242   6.797   8.637  0.7897 -1.3288  0.9375
    2SAPS  H16Y  259   3.191   6.871   8.784 -0.8594  1.9489 -1.1289
    2SAPS  C317  260   3.027   6.836   8.661  0.0069 -0.3380 -0.0074
    2SAPS  H17X  261   2.953   6.821   8.742  1.4452  4.8866  2.7253
    2SAPS  H17Y  262   3.010   6.760   8.582  0.2683  0.3433 -0.7319
    2SAPS  C318  263   3.039   6.972   8.599  0.1546 -0.7964 -0.2752
    2SAPS  H18X  264   3.051   7.046   8.681 -1.2726 -0.3128 -0.4720
    2SAPS  H18Y  265   2.958   6.990   8.525 -0.0865 -0.4262  0.0755
    2SAPS  H18Z  266   3.135   6.971   8.542 -0.3099  1.3090 -1.1602
    3SAPS     N  267   0.825   3.099  10.918 -0.2889 -0.6686  0.6482
    3SAPS   HN1  268   0.729   3.066  10.896 -0.8524  0.6798  1.0070
    3SAPS   HN2  269   0.859   3.136  10.827  2.0606 -2.5736  0.6496
    3SAPS   HN3  270   0.888   3.022  10.948 -0.2326 -1.2213 -0.8351
    3SAPS   C12  271   0.841   3.207  11.019 -0.0005  0.9825  0.6319
    3SAPS  H12A  272   0.776   3.287  10.988  0.9496  2.3019  1.8760
    3SAPS   C13  273   0.794   3.175  11.164 -0.0777  0.0973  0.7335
    3SAPS  O13A  274   0.743   3.065  11.196 -0.2645  0.0231 -0.1042
    3SAPS  O13B  275   0.790   3.268  11.249  0.4482  0.4032  0.0802
    3SAPS   C11  276   0.992   3.260  11.021  0.0465  0.3535  0.2619
    3SAPS  H11A  277   1.054   3.173  11.053 -1.4055 -1.1381 -0.8005
    3SAPS  H11B  278   1.003   3.333  11.104 -0.3276  0.6203  0.0790
    3SAPS     P  279   1.187   3.338  10.866  0.4549  0.0679 -0.0349
    3SAPS   O13  280   1.240   3.440  10.952  0.5508 -0.3173 -0.1582
    3SAPS   O14  281   1.260   3.209  10.883  0.7228 -0.5089  0.6066
    3SAPS   O12  282   1.031   3.317  10.895 -0.3088 -0.0348  0.3151
    3SAPS   O11  283   1.202   3.380  10.721 -0.2244 -0.5425  0.0025
    3SAPS    C1  284   1.098   3.436  10.638  0.0445 -0.7718 -0.1246
    3SAPS    HA  285   0.998   3.389  10.646  0.2607 -1.2801 -0.3557
    3SAPS    HB  286   1.081   3.542  10.667  2.5592 -0.3578  0.0743
    3SAPS    C2  287   1.154   3.446  10.496  0.3281  1.1273  0.9685
    3SAPS    HS  288   1.082   3.505  10.435 -0.0546 -1.4406 -1.2337
    3SAPS   O21  289   1.154   3.316  10.432 -0.0149 -0.2895 -0.5366
    3SAPS   C21  290   1.037   3.266  10.402 -0.1639 -0.3930  0.0457
    3SAPS   O22  291   0.925   3.313  10.405 -0.1495  0.1864  0.3003
    3SAPS   C22  292   1.063   3.126  10.348 -0.8347  0.3711 -0.4739
    3SAPS   H2R  293   1.148   3.127  10.277 -0.4768  1.5155 -0.0565
    3SAPS   H2S  294   1.092   3.055  10.428  0.9561  1.1600 -0.3787
    3SAPS    C3  295   1.292   3.510  10.495  0.7259  0.2597  0.4241
    3SAPS    HX  296   1.378   3.456  10.540  0.9552  0.0343 -0.2797
    3SAPS    HY  297   1.278   3.598  10.562  0.8140 -1.9640  3.5423
    3SAPS   O31  298   1.331   3.542  10.357  0.1398  0.6792 -0.4244
    3SAPS   C31  299   1.279   3.660  10.321  0.1291  0.5476 -0.2350
    3SAPS   O32  300   1.226   3.743  10.394  0.5217  0.1039 -0.1251
    3SAPS   C32  301   1.271   3.662  10.167 -0.4342 -0.1270  0.0659
    3SAPS   H2X  302   1.200   3.587  10.125  0.1764 -0.0612 -1.1345
    3SAPS   H2Y  303   1.370   3.631  10.127  0.0932 -1.0167  1.9580
    3SAPS   C23  304   0.941   3.063  10.268  0.5135 -0.7974 -0.6369
    3SAPS   H3R  305   0.854   3.048  10.335  0.8944 -0.0091  0.0602
    3SAPS   H3S  306   0.984   2.969  10.228  1.1617 -0.9819  0.4461
    3SAPS   C24  307   0.903   3.145  10.146 -0.4089 -0.0309  0.5975
    3SAPS   H4R  308   0.992   3.163  10.082 -0.6677 -2.4521 -0.5673
    3SAPS   H4S  309   0.851   3.236  10.183  1.0688  0.0070  2.7984
    3SAPS   C25  310   0.804   3.077  10.051 -0.1650 -0.1651 -0.4227
    3SAPS   H5R  311   0.697   3.089  10.072 -0.1031  0.2465 -0.3392
    3SAPS   C26  312   0.835   3.024   9.930  0.2534 -0.3899  0.2843
    3SAPS   H6R  313   0.755   2.966   9.884  0.7054 -1.2613  0.5836
    3SAPS   C27  314   0.967   3.020   9.857 -0.0792 -0.4461 -0.1840
    3SAPS   H7R  315   1.014   2.920   9.870 -0.2461 -0.5012  0.0060
    3SAPS   H7S  316   1.033   3.104   9.887  0.6268 -1.4485  1.2323
    3SAPS   C28  317   0.934   3.036   9.710 -0.0835 -0.1709 -0.6205
    3SAPS   H8R  318   0.865   2.954   9.688 -0.5829 -1.4836  4.4840
    3SAPS   C29  319   0.966   3.137   9.630 -0.6381  0.5512 -0.6898
    3SAPS   H9R  320   0.925   3.139   9.528  1.8536  1.3528 -1.7605
    3SAPS  C210  321   1.052   3.259   9.655  0.1127  0.1406 -0.4771
    3SAPS  H10R  322   1.063   3.275   9.764 -0.5268 -1.3321 -0.1624
    3SAPS  H10S  323   0.982   3.338   9.621 -0.6888 -1.0436 -1.6936
    3SAPS  C211  324   1.182   3.268   9.582  0.0653  0.2682  1.0721
    3SAPS  H11R  325   1.222   3.173   9.542  0.6339  0.7141  0.5515
    3SAPS  C212  326   1.260   3.374   9.563  0.1103  0.1967  0.1367
    3SAPS  H12R  327   1.349   3.365   9.500  1.2895  1.5571  1.5324
    3SAPS  C213  328   1.220   3.507   9.619 -0.3535 -0.3342 -0.8357
    3SAPS  H13R  329   1.134   3.505   9.689 -1.6767  2.9593 -2.1844
    3SAPS  H13S  330   1.182   3.560   9.530  0.7967  0.7620 -0.7021
    3SAPS  C214  331   1.342   3.580   9.670  0.0999  0.1865  0.5891
    3SAPS  H14R  332   1.381   3.540   9.764 -0.3145 -0.6227  0.4272
    3SAPS  C215  333   1.408   3.681   9.618  0.7212  0.4254 -0.0602
    3SAPS  H15R  334   1.502   3.710   9.667  1.7851  1.0244 -2.3400
    3SAPS  C216  335   1.389   3.747   9.488 -0.3436  0.2712  0.5517
    3SAPS  H16R  336   1.348   3.851   9.489 -4.5839 -1.1075 -1.9432
    3SAPS  H16S  337   1.306   3.701   9.430 -1.8489 -0.7389  3.3240
    3SAPS  C217  338   1.523   3.735   9.412 -0.5464  0.0729  0.2649
    3SAPS  H17R  339   1.545   3.627   9.398 -3.7790 -0.6350 -0.2784
    3SAPS  H17S  340   1.604   3.774   9.477 -1.5367 -0.1969  1.7237
    3SAPS  C218  341   1.538   3.811   9.274 -0.3919 -0.1809  0.3301
    3SAPS  H18R  342   1.519   3.919   9.294 -0.2172 -0.2484  0.8760
    3SAPS  H18S  343   1.466   3.774   9.198 -1.0318  3.5145 -1.0736
    3SAPS  C219  344   1.682   3.811   9.220  0.2758  0.7698 -0.4562
    3SAPS  H19R  345   1.723   3.708   9.232 -0.3680  0.3742 -1.5485
    3SAPS  H19S  346   1.745   3.881   9.280  2.1369 -0.7185 -0.5663
    3SAPS  C220  347   1.702   3.862   9.080 -0.1243 -0.0549  0.0966
    3SAPS  H20R  348   1.647   3.954   9.053  0.9721  0.8940  0.9927
    3SAPS  H20S  349   1.677   3.780   9.009 -0.6219  0.8700 -0.8130
    3SAPS  H20T  350   1.812   3.872   9.069  0.0662 -1.1323  0.8740
    3SAPS   C33  351   1.232   3.801  10.111 -0.5133 -0.3503 -0.0515
    3SAPS   H3X  352   1.294   3.877  10.164 -0.5958 -0.3345  0.0222
    3SAPS   H3Y  353   1.128   3.822  10.144  0.2321  2.9426  0.5013
    3SAPS   C34  354   1.245   3.837   9.961 -0.2007 -0.0097 -0.1465
    3SAPS   H4X  355   1.205   3.761   9.891  1.3626  1.6753 -3.0324
    3SAPS   H4Y  356   1.355   3.837   9.942 -0.5359 -0.9215 -2.2669
    3SAPS   C35  357   1.179   3.968   9.904 -0.0483  0.4634  0.2647
    3SAPS   H5X  358   1.239   4.049   9.951  2.8887 -1.5400  0.2570
    3SAPS   H5Y  359   1.078   3.968   9.950  0.5915  0.2826  1.7398
    3SAPS   C36  360   1.179   3.971   9.751  0.5994  0.7462 -0.4345
    3SAPS   H6X  361   1.126   3.881   9.713  1.9380  0.0142 -0.6644
    3SAPS   H6Y  362   1.288   3.964   9.730  0.7900 -1.1120  0.9810
    3SAPS   C37  363   1.113   4.098   9.694 -0.0183 -0.5435  0.4757
    3SAPS   H7X  364   1.165   4.188   9.732 -0.1099  0.2389 -1.1887
    3SAPS   H7Y  365   1.005   4.106   9.722  0.4322  1.4040  1.8696
    3SAPS   C38  366   1.123   4.096   9.542  0.0922 -0.2042 -0.5983
    3SAPS   H8X  367   1.080   4.009   9.488 -0.1338 -0.5390  0.1126
    3SAPS   H8Y  368   1.232   4.089   9.519  0.7808  1.4378  1.7912
    3SAPS   C39  369   1.068   4.223   9.488 -0.1561  0.1598  0.7050
    3SAPS   H9X  370   1.113   4.311   9.540 -1.2674 -0.2902  2.5275
    3SAPS   H9Y  371   0.957   4.221   9.491 -0.2270 -0.5721 -1.1030
    3SAPS  C310  372   1.111   4.238   9.338 -0.9690  0.3635 -0.9800
    3SAPS  H10X  373   1.218   4.209   9.323 -1.0759 -1.2541  0.9780
    3SAPS  H10Y  374   1.100   4.345   9.312  0.0820  0.9072  0.6770
    3SAPS  C311  375   1.021   4.152   9.247  1.0289 -0.2146  0.1028
    3SAPS  H11X  376   0.921   4.165   9.293  1.9888 -1.3011  2.6851
    3SAPS  H11Y  377   1.053   4.047   9.266  2.1373 -0.4067 -2.4563
    3SAPS  C312  378   1.021   4.196   9.104  0.3914 -0.2407 -0.3311
    3SAPS  H12X  379   1.127   4.185   9.071  0.2263 -2.3635 -0.2378
    3SAPS  H12Y  380   1.005   4.306   9.096 -1.2640 -0.3878  0.5319
    3SAPS  C313  381   0.919   4.122   9.012  0.0338 -0.6961 -0.1759
    3SAPS  H13X  382   0.819   4.133   9.059 -0.6913 -2.2499 -1.2728
    3SAPS  H13Y  383   0.935   4.012   9.011 -0.4277 -0.7688  0.3678
    3SAPS  C314  384   0.916   4.171   8.863  0.1804  0.0190 -0.3538
    3SAPS  H14X  385   1.016   4.157   8.815 -0.5052 -0.0603 -1.8032
    3SAPS  H14Y  386   0.888   4.278   8.873 -3.4962 -0.9593  1.7643
    3SAPS  C315  387   0.825   4.078   8.789 -0.5984 -0.4531 -0.5880
    3SAPS  H15X  388   0.728   4.061   8.840 -0.3647 -2.7039 -0.8100
    3SAPS  H15Y  389   0.875   3.980   8.772  1.1796  0.4623 -0.8720
    3SAPS  C316  390   0.797   4.122   8.642 -0.1096  0.1362  0.6860
    3SAPS  H16X  391   0.730   4.054   8.586 -2.0744  1.6842  1.0615
    3SAPS  H16Y  392   0.895   4.129   8.589  0.5884 -1.9604  1.5973
    3SAPS  C317  393   0.720   4.251   8.636 -0.5104  0.2598 -0.4240
    3SAPS  H17X  394   0.775   4.328   8.692  0.5258  0.0415 -1.1183
    3SAPS  H17Y  395   0.627   4.231   8.694 -0.5546  1.1472 -0.1748
    3SAPS  C318  396   0.694   4.300   8.489 -0.2871 -0.5368 -0.2609
    3SAPS  H18X  397   0.601   4.258   8.446 -0.6186  1.3989 -1.5721
    3SAPS  H18Y  398   0.774   4.265   8.421  0.6811 -0.5914  0.8745
    3SAPS  H18Z  399   0.679   4.410   8.493 -1.0231 -0.6535  0.3529
    4SAPS     N  400   4.977   3.938  10.667 -0.2158 -1.0573  0.1366
    4SAPS   HN1  401   4.890   3.993  10.680  0.3006  0.2123 -1.4543
    4SAPS   HN2  402   5.021   3.984  10.585 -1.0046  0.2978  0.4423
    4SAPS   HN3  403   4.952   3.841  10.639  0.5682 -2.1045  2.6879
    4SAPS   C12  404   5.062   3.945  10.792 -0.2033 -0.7744  1.1439
    4SAPS  H12A  405   5.107   4.042  10.805 -1.1214  0.2392 -2.3231
    4SAPS   C13  406   4.987   3.914  10.926 -0.0206 -0.1408 -0.3412
    4SAPS  O13A  407   4.860   3.901  10.918 -0.4151  0.1401 -0.2048
    4SAPS  O13B  408   5.050   3.950  11.031 -0.2986 -0.1196 -0.1146
    4SAPS   C11  409   5.174   3.840  10.773  0.6034 -0.0558 -0.0544
    4SAPS  H11A  410   5.125   3.741  10.771  0.1606  0.1648 -0.3711
    4SAPS  H11B  411   5.233   3.841  10.867 -0.3152 -2.9277  0.6496
    4SAPS     P  412   5.350   3.741  10.627  0.2527  0.0381  0.2067
    4SAPS   O13  413   5.474   3.757  10.704 -0.0102  0.1648  0.0274
    4SAPS   O14  414   5.274   3.614  10.634  0.0377  0.0072 -0.3163
    4SAPS   O12  415   5.262   3.868  10.656  0.5761  0.0932  0.7638
    4SAPS   O11  416   5.378   3.762  10.471 -0.4326  0.2462  0.2590
    4SAPS    C1  417   5.464   3.878  10.443  0.2424 -0.0678  0.3627
    4SAPS    HA  418   5.536   3.904  10.524  0.1451  0.9951  0.1283
    4SAPS    HB  419   5.510   3.866  10.343 -1.8578  1.1500 -0.8275
    4SAPS    C2  420   5.381   4.008  10.414  0.3438 -0.9778  0.3953
    4SAPS    HS  421   5.330   4.023  10.512  0.2460  0.6255  0.1258
    4SAPS   O21  422   5.283   3.979  10.307 -0.5923 -0.0037 -0.9875
    4SAPS   C21  423   5.158   4.003  10.337 -0.8985  0.0343  0.8597
    4SAPS   O22  424   5.116   4.045  10.444  0.4273  0.4631  0.1537
    4SAPS   C22  425   5.078   3.955  10.217  0.0608  0.3375 -0.2329
    4SAPS   H2R  426   5.119   3.860  10.177 -1.4792 -0.9456  1.1026
    4SAPS   H2S  427   4.982   3.930  10.265  0.4388  1.6684  1.3203
    4SAPS    C3  428   5.455   4.144  10.392  0.5506  0.0226  0.3154
    4SAPS    HX  429   5.503   4.163  10.490 -0.2153 -1.6406  1.0568
    4SAPS    HY  430   5.383   4.226  10.370  0.2025 -0.5642 -0.8132
    4SAPS   O31  431   5.559   4.135  10.294 -0.0064  0.1639 -0.3881
    4SAPS   C31  432   5.556   4.211  10.189  0.6470 -0.4512 -0.2353
    4SAPS   O32  433   5.487   4.311  10.178 -0.1599  0.5178  0.5819
    4SAPS   C32  434   5.654   4.143  10.100 -0.4625 -0.2743 -0.0521
    4SAPS   H2X  435   5.631   4.035  10.088 -0.6076 -0.2496 -0.0075
    4SAPS   H2Y  436   5.754   4.153  10.146 -0.4884  1.3331 -0.2999
    4SAPS   C23  437   5.052   4.053  10.100  0.3500 -0.2039  0.0707
    4SAPS   H3R  438   5.036   4.157  10.136  1.4492  0.4793 -1.2855
    4SAPS   H3S  439   4.960   4.022  10.046  0.1753  1.0051 -0.3676
    4SAPS   C24  440   5.169   4.064   9.995  0.1152  0.1845  0.6943
    4SAPS   H4R  441   5.263   4.089  10.049 -0.2144  1.4385  0.7096
    4SAPS   H4S  442   5.134   4.147   9.931 -0.9443 -0.9412 -0.2523
    4SAPS   C25  443   5.185   3.937   9.916 -0.4998  0.3783 -0.1166
    4SAPS   H5R  444   5.240   3.851   9.957  0.5516  0.4398 -1.3335
    4SAPS   C26  445   5.141   3.930   9.787  0.0165  0.1934  0.2824
    4SAPS   H6R  446   5.169   3.840   9.730  0.6838 -0.1748  1.1652
    4SAPS   C27  447   5.074   4.037   9.707 -0.0209  0.3644 -0.0427
    4SAPS   H7R  448   5.154   4.108   9.674  0.8214 -0.8106 -0.5931
    4SAPS   H7S  449   4.997   4.101   9.755 -1.5865  0.8787 -2.9758
    4SAPS   C28  450   4.993   3.972   9.594  0.2770  0.1633 -0.2159
    4SAPS   H8R  451   4.889   3.950   9.621  0.7754 -2.1474  0.0399
    4SAPS   C29  452   5.038   3.947   9.470  0.7484 -0.2114 -0.0467
    4SAPS   H9R  453   4.969   3.897   9.400 -0.7198  1.0933  0.4054
    4SAPS  C210  454   5.174   3.978   9.417 -0.3280  0.4710  0.5538
    4SAPS  H10R  455   5.252   4.014   9.488  1.6298 -1.3988 -0.5273
    4SAPS  H10S  456   5.165   4.049   9.332  3.1759  1.9475  1.2306
    4SAPS  C211  457   5.226   3.845   9.366  0.1085  0.3858 -1.0252
    4SAPS  H11R  458   5.263   3.772   9.439 -0.4789  0.3367 -0.7690
    4SAPS  C212  459   5.238   3.807   9.238 -0.1835  0.0302  0.7474
    4SAPS  H12R  460   5.298   3.718   9.215 -0.1846 -0.1536  1.4221
    4SAPS  C213  461   5.210   3.896   9.115 -0.6008  0.5309  0.4414
    4SAPS  H13R  462   5.117   3.956   9.126 -1.8343 -1.1732 -0.1982
    4SAPS  H13S  463   5.191   3.838   9.022 -0.0318 -0.2551  0.7955
    4SAPS  C214  464   5.334   3.974   9.093 -1.2702  0.3016 -0.4182
    4SAPS  H14R  465   5.363   4.024   9.187  2.4514  0.3554 -1.4288
    4SAPS  C215  466   5.407   4.001   8.985 -0.5055 -0.1856 -0.4450
    4SAPS  H15R  467   5.496   4.064   8.996 -1.1338  0.5013  1.0416
    4SAPS  C216  468   5.369   3.948   8.848  0.1455 -0.0420  0.1524
    4SAPS  H16R  469   5.271   3.896   8.842  0.5422 -0.8203  0.2967
    4SAPS  H16S  470   5.443   3.869   8.820 -0.6041 -0.9001  0.5601
    4SAPS  C217  471   5.378   4.054   8.736  0.3409 -0.2667 -0.5119
    4SAPS  H17R  472   5.486   4.067   8.715  0.2025 -0.7361 -1.5759
    4SAPS  H17S  473   5.334   4.149   8.773 -0.7889 -1.4405  1.3311
    4SAPS  C218  474   5.292   4.014   8.614  0.7804 -0.6067  0.0079
    4SAPS  H18R  475   5.297   4.094   8.537  0.7028  0.5294  1.1561
    4SAPS  H18S  476   5.189   4.013   8.655  1.6723  1.3950  2.5662
    4SAPS  C219  477   5.325   3.883   8.542 -0.0465 -0.5419  0.6003
    4SAPS  H19R  478   5.238   3.876   8.473  0.6855  2.1833 -0.7385
    4SAPS  H19S  479   5.325   3.796   8.611  2.0760 -1.2931 -0.2681
    4SAPS  C220  480   5.448   3.894   8.462  0.9357  0.7362 -0.2891
    4SAPS  H20R  481   5.470   3.793   8.420  2.7689  0.2283  1.6945
    4SAPS  H20S  482   5.539   3.924   8.519  1.2678  0.9874 -0.9341
    4SAPS  H20T  483   5.431   3.960   8.375 -1.1289  0.1088 -0.4150
    4SAPS   C33  484   5.662   4.220   9.968 -0.1887 -0.0313  0.3113
    4SAPS   H3X  485   5.762   4.206   9.922 -1.5663  1.5707 -3.5476
    4SAPS   H3Y  486   5.650   4.330   9.974  1.9539  0.2069  1.0308
    4SAPS   C34  487   5.555   4.158   9.871 -0.0167 -0.3749  0.7793
    4SAPS   H4X  488   5.451   4.142   9.907 -0.0368 -0.5029  0.6600
    4SAPS   H4Y  489   5.582   4.057   9.833  1.1912  0.1260  0.2619
    4SAPS   C35  490   5.560   4.231   9.732  0.2674  0.3871 -0.0731
    4SAPS   H5X  491   5.658   4.205   9.686 -0.0285 -1.1439  0.0992
    4SAPS   H5Y  492   5.559   4.342   9.741  1.4106  0.6641 -2.6288
    4SAPS   C36  493   5.449   4.189   9.637  0.0253 -0.6061  0.4654
    4SAPS   H6X  494   5.345   4.222   9.660  0.6505  1.1439  0.8986
    4SAPS   H6Y  495   5.459   4.079   9.646  3.3444 -0.3723  0.8002
    4SAPS   C37  496   5.484   4.242   9.488  0.6765  0.0244 -0.1555
    4SAPS   H7X  497   5.405   4.205   9.419 -0.1736 -1.6841  1.6296
    4SAPS   H7Y  498   5.579   4.193   9.459  0.4500 -0.1651 -0.5891
    4SAPS   C38  499   5.509   4.394   9.475 -0.2652  0.0375 -0.0155
    4SAPS   H8X  500   5.565   4.436   9.561 -0.7827 -0.0797  0.3853
    4SAPS   H8Y  501   5.405   4.433   9.484 -0.3631 -0.0618 -0.6227
    4SAPS   C39  502   5.578   4.436   9.340 -0.1398  0.0415  0.0020
    4SAPS   H9X  503   5.677   4.384   9.332  1.2853  2.4753  0.8289
    4SAPS   H9Y  504   5.598   4.545   9.342  0.3300 -0.0517  0.5879
    4SAPS  C310  505   5.479   4.415   9.219  0.0287 -0.0247  0.0315
    4SAPS  H10X  506   5.381   4.466   9.230  0.5132  1.3731 -1.6707
    4SAPS  H10Y  507   5.465   4.305   9.217 -0.6757  0.0678 -0.4744
    4SAPS  C311  508   5.539   4.463   9.085 -0.2042 -0.3602 -0.3927
    4SAPS  H11X  509   5.637   4.411   9.076 -0.7292 -1.3278 -0.6830
    4SAPS  H11Y  510   5.572   4.569   9.081 -0.4611 -0.2018  1.1089
    4SAPS  C312  511   5.449   4.431   8.961 -0.1266 -0.1633  0.3004
    4SAPS  H12X  512   5.348   4.475   8.971 -0.4058 -0.2794 -1.5942
    4SAPS  H12Y  513   5.437   4.320   8.956 -0.3642 -0.2626  2.2391
    4SAPS  C313  514   5.519   4.503   8.842  0.1577  0.9992  0.1490
    4SAPS  H13X  515   5.619   4.457   8.831 -0.2327 -0.1917  1.3468
    4SAPS  H13Y  516   5.533   4.612   8.857 -1.4706  1.4573 -1.2790
    4SAPS  C314  517   5.429   4.487   8.721  0.1909  0.8334 -0.2756
    4SAPS  H14X  518   5.333   4.532   8.751 -0.5193 -0.3972 -0.6085
    4SAPS  H14Y  519   5.412   4.378   8.705 -1.1897  0.7691  1.3970
    4SAPS  C315  520   5.475   4.538   8.587 -0.5863 -0.3038  0.4010
    4SAPS  H15X  521   5.583   4.560   8.600 -0.3586 -0.5164 -1.0102
    4SAPS  H15Y  522   5.425   4.628   8.547 -1.3510 -1.6446 -1.7972
    4SAPS  C316  523   5.457   4.434   8.474  0.9082 -0.1507  0.4460
    4SAPS  H16X  524   5.457   4.490   8.378 -0.9072 -1.6428 -0.4750
    4SAPS  H16Y  525   5.356   4.394   8.494  2.1342 -3.6051  0.5141
    4SAPS  C317  526   5.545   4.311   8.478  0.3996  0.1362  0.1595
    4SAPS  H17X  527   5.499   4.233   8.412 -1.9361  0.5765  1.1562
    4SAPS  H17Y  528   5.543   4.268   8.580 -0.8958 -1.2521 -0.3942
    4SAPS  C318  529   5.689   4.340   8.441  0.0885 -0.2916 -0.2601
    4SAPS  H18X  530   5.700   4.373   8.336  1.8041 -2.1969 -0.7341
    4SAPS  H18Y  531   5.747   4.250   8.470  0.3875  0.0480  0.2195
    4SAPS  H18Z  532   5.724   4.427   8.501  0.6891  1.5767 -3.1146
    5SAPS     N  533   2.530   0.788  10.811  0.5249  0.1960  0.7008
    5SAPS   HN1  534   2.498   0.701  10.858  0.6120 -1.6326 -2.3148
    5SAPS   HN2  535   2.473   0.803  10.725 -0.7309 -2.2348  1.0131
    5SAPS   HN3  536   2.629   0.770  10.784  0.2976  0.1492 -0.1459
    5SAPS   C12  537   2.519   0.911  10.894  0.0433  0.3958 -0.3693
    5SAPS  H12A  538   2.423   0.951  10.867  0.4324  0.7288 -1.3236
    5SAPS   C13  539   2.517   0.883  11.049 -0.5356  0.1561 -0.4343
    5SAPS  O13A  540   2.531   0.765  11.093 -0.6348  0.7337  0.6636
    5SAPS  O13B  541   2.496   0.981  11.127  0.2882  0.1150 -0.9705
    5SAPS   C11  542   2.636   1.003  10.858 -0.3985  0.3676  0.2475
    5SAPS  H11A  543   2.733   0.957  10.889 -0.2055  1.2398  1.0109
    5SAPS  H11B  544   2.646   1.099  10.913  0.1518 -0.5385  1.7920
    5SAPS     P  545   2.558   1.181  10.679  0.1957  0.6257  0.1137
    5SAPS   O13  546   2.452   1.150  10.572 -0.0000 -0.2147  0.2294
    5SAPS   O14  547   2.508   1.246  10.802  0.4564  0.2713 -0.2413
    5SAPS   O12  548   2.631   1.049  10.719  0.3271  0.3274  0.0105
    5SAPS   O11  549   2.670   1.278  10.619 -0.3681 -0.2041  0.1895
    5SAPS    C1  550   2.763   1.230  10.520  0.4492 -0.5185  0.1296
    5SAPS    HA  551   2.827   1.151  10.565  2.3786  0.6854 -0.3381
    5SAPS    HB  552   2.714   1.195  10.427  1.2999 -2.1470  0.2531
    5SAPS    C2  553   2.870   1.339  10.464 -0.0931 -0.3034 -0.1048
    5SAPS    HS  554   2.946   1.349  10.545 -0.0535  0.6629 -0.2507
    5SAPS   O21  555   2.798   1.458  10.437 -0.2416  0.0183 -0.4638
    5SAPS   C21  556   2.862   1.569  10.462 -0.0787  0.2605 -0.0228
    5SAPS   O22  557   2.977   1.571  10.508  0.1418  0.1281  0.1220
    5SAPS   C22  558   2.779   1.690  10.435  0.1339 -0.3898  0.3238
    5SAPS   H2R  559   2.685   1.651  10.390  0.5334 -1.9368  0.7548
    5SAPS   H2S  560   2.753   1.734  10.534 -0.2699  0.2616 -0.0667
    5SAPS    C3  561   2.949   1.293  10.341  0.5692 -0.0058  0.0004
    5SAPS    HX  562   3.006   1.202  10.369  1.2270  0.8135  1.4752
    5SAPS    HY  563   3.025   1.360  10.297  0.9411 -1.9199 -2.5005
    5SAPS   O31  564   2.853   1.268  10.241 -0.7805 -0.9442  0.4464
    5SAPS   C31  565   2.866   1.153  10.171  0.8280 -0.2536 -0.2975
    5SAPS   O32  566   2.963   1.080  10.170  0.2861  0.5296 -0.2891
    5SAPS   C32  567   2.741   1.139  10.088 -0.6580 -0.2478 -0.2890
    5SAPS   H2X  568   2.730   1.234  10.031  1.5774 -0.8448 -1.8602
    5SAPS   H2Y  569   2.655   1.128  10.157 -0.3318  0.3059  0.2163
    5SAPS   C23  570   2.837   1.783  10.337  0.0099  0.8954  0.3511
    5SAPS   H3R  571   2.767   1.867  10.314 -1.8706 -0.4725  0.8449
    5SAPS   H3S  572   2.850   1.742  10.235  0.8851  1.0159  0.4030
    5SAPS   C24  573   2.972   1.852  10.374 -0.0067 -0.1518  0.1303
    5SAPS   H4R  574   3.056   1.780  10.363 -0.9389 -1.1427 -0.6912
    5SAPS   H4S  575   2.968   1.887  10.479 -0.2666  1.6728 -0.4337
    5SAPS   C25  576   2.995   1.964  10.277 -0.5037  0.0513  0.1208
    5SAPS   H5R  577   3.069   1.941  10.199 -0.3939  1.4361 -0.2102
    5SAPS   C26  578   2.955   2.089  10.290 -0.6980  0.1877  0.1175
    5SAPS   H6R  579   2.985   2.154  10.206  1.5408 -0.9935 -0.0767
    5SAPS   C27  580   2.871   2.151  10.400  0.2069  0.4584  0.6320
    5SAPS   H7R  581   2.870   2.077  10.483 -1.2661  0.5201  0.6937
    5SAPS   H7S  582   2.765   2.158  10.365  1.1579  0.6588 -2.4652
    5SAPS   C28  583   2.918   2.287  10.453  0.2771  0.3377  0.2836
    5SAPS   H8R  584   3.000   2.277  10.526  0.4143 -2.0760 -0.1011
    5SAPS   C29  585   2.854   2.405  10.450 -0.9312  0.7424 -0.0929
    5SAPS   H9R  586   2.887   2.482  10.521 -2.7488  0.9791  0.5532
    5SAPS  C210  587   2.731   2.434  10.368  0.3916  0.6983  0.2980
    5SAPS  H10R  588   2.645   2.418  10.436 -1.1965  3.0773 -0.9979
    5SAPS  H10S  589   2.726   2.366  10.280  1.4439  1.3258 -0.2681
    5SAPS  C211  590   2.724   2.576  10.328 -0.3927  0.0464  0.2831
    5SAPS  H11R  591   2.691   2.644  10.408 -2.0697  2.8573 -2.5284
    5SAPS  C212  592   2.755   2.641  10.210  0.6292  0.2892  0.6531
    5SAPS  H12R  593   2.750   2.751  10.205 -1.6224  0.3133  1.9549
    5SAPS  C213  594   2.785   2.568  10.078  0.1096  0.5436 -0.2371
    5SAPS  H13R  595   2.743   2.628   9.996 -0.0176  1.8899  0.7820
    5SAPS  H13S  596   2.732   2.470  10.070  0.1668  0.7072 -4.0304
    5SAPS  C214  597   2.931   2.526  10.057 -0.0909 -0.1619  0.1473
    5SAPS  H14R  598   2.979   2.493  10.151 -0.2683  1.0116  0.6554
    5SAPS  C215  599   3.010   2.538   9.944 -0.1882  0.0926 -0.2494
    5SAPS  H15R  600   3.115   2.505   9.949 -0.5416 -0.9725  3.5686
    5SAPS  C216  601   2.951   2.589   9.816 -0.6043 -0.8115  0.2697
    5SAPS  H16R  602   2.976   2.695   9.793  0.4176 -0.6205  2.0055
    5SAPS  H16S  603   2.840   2.590   9.816 -0.6296  0.5957 -1.2651
    5SAPS  C217  604   3.008   2.514   9.702  0.0510  0.1239  0.1334
    5SAPS  H17R  605   2.981   2.408   9.724 -1.3986  0.5077  0.3527
    5SAPS  H17S  606   3.116   2.528   9.680  0.0904 -0.2590  0.0743
    5SAPS  C218  607   2.941   2.532   9.565  0.0106 -0.1325 -0.4674
    5SAPS  H18R  608   2.986   2.452   9.503  0.8995 -1.0051  1.2465
    5SAPS  H18S  609   2.830   2.531   9.576 -0.1160  0.8334 -1.4410
    5SAPS  C219  610   2.967   2.672   9.502  0.2327 -0.3520  0.5563
    5SAPS  H19R  611   3.075   2.695   9.487  0.2158  0.5746  1.7580
    5SAPS  H19S  612   2.911   2.742   9.567  0.0460  2.5419 -2.4711
    5SAPS  C220  613   2.902   2.676   9.363 -0.2625 -0.2073 -0.1872
    5SAPS  H20R  614   2.807   2.619   9.354 -1.9247  2.5856 -1.4908
    5SAPS  H20S  615   2.979   2.629   9.298  0.7995  1.6265 -0.3410
    5SAPS  H20T  616   2.890   2.780   9.325 -0.1849 -0.9790 -2.4554
    5SAPS   C33  617   2.743   1.021   9.991 -0.8886  0.9730  0.0092
    5SAPS   H3X  618   2.779   0.922  10.028 -0.5035  0.7161 -1.0132
    5SAPS   H3Y  619   2.811   1.045   9.907  1.0887 -2.5873  0.4003
    5SAPS   C34  620   2.598   1.009   9.938  0.5032  0.2420  0.6358
    5SAPS   H4X  621   2.532   1.036  10.023  1.9657 -0.1333  1.9335
    5SAPS   H4Y  622   2.556   0.913   9.903 -1.0830  0.1483  2.6283
    5SAPS   C35  623   2.580   1.110   9.819 -0.2140  0.3932 -0.3767
    5SAPS   H5X  624   2.656   1.189   9.837 -0.2383  0.2681  0.3283
    5SAPS   H5Y  625   2.478   1.153   9.819 -0.5244 -0.2422 -2.6442
    5SAPS   C36  626   2.611   1.052   9.680 -0.2823  0.1051 -0.7917
    5SAPS   H6X  627   2.545   0.967   9.654 -2.0465  1.0569  0.4079
    5SAPS   H6Y  628   2.713   1.009   9.695  0.9403  3.3499  1.3414
    5SAPS   C37  629   2.613   1.145   9.565 -0.2596  0.1138 -0.7924
    5SAPS   H7X  630   2.683   1.227   9.591 -0.4725  0.3662 -1.0184
    5SAPS   H7Y  631   2.520   1.194   9.532 -0.4986  0.0834 -0.1755
    5SAPS   C38  632   2.683   1.077   9.440  0.4190  0.3917  0.2112
    5SAPS   H8X  633   2.686   0.972   9.476 -2.5293  0.6225  1.3628
    5SAPS   H8Y  634   2.784   1.124   9.445  0.2074  0.8202  0.5619
    5SAPS   C39  635   2.594   1.084   9.319 -0.0907  0.7690  0.0279
    5SAPS   H9X  636   2.545   1.184   9.316 -4.0258 -0.9349  1.5658
    5SAPS   H9Y  637   2.508   1.015   9.329  1.6773 -1.6275 -0.3280
    5SAPS  C310  638   2.660   1.051   9.189 -0.0564  0.7642 -0.5096
    5SAPS  H10X  639   2.706   0.950   9.195 -0.9483  0.3961  0.4743
    5SAPS  H10Y  640   2.747   1.119   9.182  1.2984 -0.9883 -1.1857
    5SAPS  C311  641   2.576   1.071   9.062 -0.1451  0.4824 -0.1574
    5SAPS  H11X  642   2.551   1.179   9.066 -1.4599  0.1827  0.1000
    5SAPS  H11Y  643   2.490   1.001   9.055 -0.8308  1.4715 -2.2470
    5SAPS  C312  644   2.665   1.037   8.938 -0.6818  0.2713  1.3314
    5SAPS  H12X  645   2.656   0.928   8.916 -1.2980  0.2436  1.7005
    5SAPS  H12Y  646   2.773   1.052   8.961  0.2769 -2.3152 -0.8682
    5SAPS  C313  647   2.614   1.098   8.810 -0.3411  0.0808  0.4240
    5SAPS  H13X  648   2.697   1.151   8.759 -1.0719 -0.7219 -1.6785
    5SAPS  H13Y  649   2.546   1.180   8.842  0.1808  1.5454 -2.0081
    5SAPS  C314  650   2.539   0.997   8.716  1.3118 -0.5523 -0.5439
    5SAPS  H14X  651   2.445   0.964   8.765  0.0266  1.1281 -1.7444
    5SAPS  H14Y  652   2.599   0.905   8.697 -0.9986 -2.4562  0.8223
    5SAPS  C315  653   2.510   1.056   8.576 -0.3492 -0.4215  0.3168
    5SAPS  H15X  654   2.605   1.096   8.535 -0.0782  0.2545  1.5291
    5SAPS  H15Y  655   2.445   1.146   8.581  2.4587  1.6729  2.1941
    5SAPS  C316  656   2.443   0.948   8.487  0.1580 -0.5177 -0.5196
    5SAPS  H16X  657   2.359   0.905   8.546 -0.8131 -1.2651 -2.3454
    5SAPS  H16Y  658   2.514   0.865   8.470 -0.7327 -0.9301 -2.6157
    5SAPS  C317  659   2.385   1.013   8.362 -0.0861  0.2874 -0.2727
    5SAPS  H17X  660   2.441   1.100   8.322  2.2583 -2.1981 -2.8156
    5SAPS  H17Y  661   2.287   1.060   8.388 -0.6711 -1.8544  1.6539
    5SAPS  C318  662   2.371   0.917   8.246 -0.4851  0.4714  0.9410
    5SAPS  H18X  663   2.465   0.865   8.219 -1.0018  0.8201 -1.8051
    5SAPS  H18Y  664   2.332   0.965   8.154 -1.4073 -1.9758 -0.0256
    5SAPS  H18Z  665   2.295   0.838   8.262  0.8184 -1.2173 -0.8033
    6SAPS     N  666   2.179   0.017  10.733 -0.4630  0.0405 -0.6343
    6SAPS   HN1  667   2.085  -0.017  10.702  0.1586 -1.5507 -0.8922
    6SAPS   HN2  668   2.239  -0.011  10.653  1.8453  0.2196  0.9208
    6SAPS   HN3  669   2.214  -0.037  10.815  2.4943  0.3165 -1.5867
    6SAPS   C12  670   2.193   0.168  10.762 -0.1350  0.4568  0.0467
    6SAPS  H12A  671   2.127   0.191  10.844  1.1056  2.7223  0.5055
    6SAPS   C13  672   2.334   0.221  10.798 -0.7112 -0.0509  0.0878
    6SAPS  O13A  673   2.430   0.137  10.802  0.5387  0.7762 -0.1815
    6SAPS  O13B  674   2.353   0.345  10.826  0.4854  0.4292 -0.1375
    6SAPS   C11  675   2.137   0.244  10.637 -0.1087 -0.1059  0.4431
    6SAPS  H11A  676   2.185   0.194  10.550  2.2987 -0.0309  1.6245
    6SAPS  H11B  677   2.170   0.349  10.650 -0.9478  0.1149  0.8394
    6SAPS     P  678   1.914   0.319  10.527 -0.2023 -0.2535  0.0124
    6SAPS   O13  679   1.770   0.275  10.524  0.3104 -0.0427  0.4283
    6SAPS   O14  680   1.932   0.464  10.550 -0.0320  0.1072 -0.3490
    6SAPS   O12  681   1.995   0.247  10.638 -0.1651  0.1873  0.3193
    6SAPS   O11  682   1.982   0.272  10.394 -0.1165 -0.0253 -0.0098
    6SAPS    C1  683   1.968   0.139  10.341  0.0764  0.2378  0.6227
    6SAPS    HA  684   2.072   0.105  10.319 -0.0685 -1.3646  2.1807
    6SAPS    HB  685   1.919   0.071  10.414 -0.3825 -0.6202 -0.4622
    6SAPS    C2  686   1.871   0.144  10.216 -0.2573  0.1795 -0.2215
    6SAPS    HS  687   1.915   0.223  10.152  2.1290  0.0110  1.0717
    6SAPS   O21  688   1.735   0.163  10.252  0.1402 -0.2423  0.4022
    6SAPS   C21  689   1.672   0.281  10.228  0.4818 -0.2994 -0.1314
    6SAPS   O22  690   1.718   0.374  10.166  0.2331  0.1613 -0.1944
    6SAPS   C22  691   1.530   0.275  10.278  0.3224 -0.8054  0.6219
    6SAPS   H2R  692   1.476   0.183  10.247 -1.6506  1.1430 -2.1275
    6SAPS   H2S  693   1.534   0.267  10.388 -0.3306  0.1677  0.7198
    6SAPS    C3  694   1.887   0.021  10.124 -0.2052 -0.4128  0.3671
    6SAPS    HX  695   1.849  -0.065  10.183 -2.2245  0.7073  0.7964
    6SAPS    HY  696   1.996   0.018  10.102  0.1747 -3.3266  2.0801
    6SAPS   O31  697   1.809   0.035  10.009 -0.5070 -0.3986 -0.3598
    6SAPS   C31  698   1.685  -0.012  10.009  0.1195 -0.1030  0.0923
    6SAPS   O32  699   1.625  -0.073  10.095 -0.9396  0.1054 -0.4695
    6SAPS   C32  700   1.625   0.042   9.879 -0.3294 -0.1142 -0.3936
    6SAPS   H2X  701   1.618  -0.035   9.799 -4.9778  1.1731 -1.5163
    6SAPS   H2Y  702   1.685   0.128   9.842 -0.9988  1.1801  1.4135
    6SAPS   C23  703   1.446   0.393  10.243  0.4443 -0.9022 -0.5433
    6SAPS   H3R  704   1.506   0.484  10.266 -0.6830 -0.2738  0.0050
    6SAPS   H3S  705   1.361   0.385  10.315  0.0045  0.4953 -0.8651
    6SAPS   C24  706   1.384   0.407  10.102  0.5306 -0.3766  0.7973
    6SAPS   H4R  707   1.304   0.332  10.082 -1.5848  1.5499  1.6543
    6SAPS   H4S  708   1.459   0.400  10.020  0.3661  0.3148  0.5841
    6SAPS   C25  709   1.314   0.539  10.101 -0.6285  0.0838  0.3682
    6SAPS   H5R  710   1.272   0.569  10.198 -1.4453 -0.7323  0.2809
    6SAPS   C26  711   1.293   0.626   9.999 -1.0766  0.4946 -0.0947
    6SAPS   H6R  712   1.243   0.721  10.024  1.5730  1.3355  2.8624
    6SAPS   C27  713   1.334   0.598   9.860 -0.6744 -1.0321  0.6132
    6SAPS   H7R  714   1.261   0.649   9.794  0.0132 -0.0320  0.5938
    6SAPS   H7S  715   1.332   0.490   9.833 -1.1803 -0.8364 -0.1423
    6SAPS   C28  716   1.469   0.656   9.826  0.2904 -0.2200 -0.1232
    6SAPS   H8R  717   1.538   0.658   9.912  0.3402  2.1679 -0.1410
    6SAPS   C29  718   1.510   0.693   9.703  0.1433  0.3223 -1.0528
    6SAPS   H9R  719   1.612   0.729   9.687  0.7123 -1.4645 -1.7389
    6SAPS  C210  720   1.428   0.696   9.576 -0.1658 -0.2365  0.3421
    6SAPS  H10R  721   1.472   0.747   9.488 -2.2911 -0.3477 -0.8379
    6SAPS  H10S  722   1.338   0.754   9.606 -0.7650 -1.8322  1.9021
    6SAPS  C211  723   1.380   0.567   9.514  0.1141 -0.4442  0.2576
    6SAPS  H11R  724   1.365   0.482   9.582  0.0869 -0.2708  0.4729
    6SAPS  C212  725   1.332   0.559   9.385  0.4449 -0.2234 -0.4524
    6SAPS  H12R  726   1.304   0.457   9.355  1.5904 -0.8751  0.6253
    6SAPS  C213  727   1.330   0.664   9.277 -0.2245 -0.1167 -0.0686
    6SAPS  H13R  728   1.402   0.632   9.199 -0.8212 -0.3570 -0.5307
    6SAPS  H13S  729   1.351   0.765   9.317 -3.6388  0.8222 -0.3492
    6SAPS  C214  730   1.197   0.692   9.209  0.3569  0.0352 -0.0857
    6SAPS  H14R  731   1.126   0.736   9.281  1.9181 -0.0817  1.5975
    6SAPS  C215  732   1.161   0.656   9.083 -0.4097 -0.4670  0.4337
    6SAPS  H15R  733   1.078   0.711   9.038  1.1798  1.6327 -0.0711
    6SAPS  C216  734   1.233   0.579   8.971 -0.3854  0.6503 -0.8948
    6SAPS  H16R  735   1.156   0.508   8.935 -0.8719 -0.5578  2.2133
    6SAPS  H16S  736   1.310   0.508   9.009 -1.4292 -1.0586 -1.8558
    6SAPS  C217  737   1.273   0.658   8.848  0.0652 -0.7972 -0.1631
    6SAPS  H17R  738   1.319   0.754   8.879 -0.2160  0.0622 -2.2173
    6SAPS  H17S  739   1.178   0.695   8.803 -0.6028 -1.2577  0.8262
    6SAPS  C218  740   1.372   0.571   8.769 -0.3530  0.1030  0.8207
    6SAPS  H18R  741   1.326   0.471   8.756  2.3160 -0.9867 -0.9693
    6SAPS  H18S  742   1.462   0.569   8.834  0.3655 -0.9307 -0.1826
    6SAPS  C219  743   1.411   0.607   8.627 -0.3974  0.0797  0.1968
    6SAPS  H19R  744   1.466   0.522   8.580  0.6255  2.1083 -2.5807
    6SAPS  H19S  745   1.477   0.695   8.614  1.0469 -0.9243  0.5243
    6SAPS  C220  746   1.289   0.635   8.540 -0.7845  0.4191 -0.2456
    6SAPS  H20R  747   1.221   0.703   8.598 -1.5399 -1.0342  0.6431
    6SAPS  H20S  748   1.228   0.546   8.514  1.0862 -0.8920 -0.2853
    6SAPS  H20T  749   1.320   0.698   8.454 -0.7616  1.4613  0.4933
    6SAPS   C33  750   1.482   0.098   9.905  0.2834 -0.7434  0.6336
    6SAPS   H3X  751   1.480   0.155  10.000 -0.3012  1.5709 -0.6890
    6SAPS   H3Y  752   1.414   0.010   9.906  0.5775 -1.0682 -1.5806
    6SAPS   C34  753   1.435   0.187   9.790 -0.5513  0.3102  0.3876
    6SAPS   H4X  754   1.511   0.267   9.781  0.0695 -0.3110 -0.0061
    6SAPS   H4Y  755   1.337   0.238   9.800 -0.7258 -0.2803  1.9537
    6SAPS   C35  756   1.446   0.105   9.653  0.4100 -0.6621 -0.3275
    6SAPS   H5X  757   1.355   0.042   9.644 -0.1850 -0.0974  1.3031
    6SAPS   H5Y  758   1.540   0.045   9.649  0.4683 -1.0173  2.9554
    6SAPS   C36  759   1.453   0.196   9.526  0.5546 -0.1273  0.4516
    6SAPS   H6X  760   1.525   0.278   9.542 -1.5938  1.9002  0.1732
    6SAPS   H6Y  761   1.353   0.243   9.518  0.7924  0.0437 -3.0055
    6SAPS   C37  762   1.478   0.129   9.390 -0.2946  0.4843  0.3842
    6SAPS   H7X  763   1.451   0.022   9.398  0.1637  0.3582  0.2713
    6SAPS   H7Y  764   1.588   0.135   9.379 -0.0350 -3.2388 -0.1266
    6SAPS   C38  765   1.404   0.207   9.274 -0.3969 -0.8839  0.2702
    6SAPS   H8X  766   1.447   0.309   9.268  0.1093 -1.0985  0.1957
    6SAPS   H8Y  767   1.298   0.212   9.306 -0.2968 -1.9442  0.8272
    6SAPS   C39  768   1.421   0.144   9.136 -0.4334 -0.1276 -0.1360
    6SAPS   H9X  769   1.529   0.138   9.115 -0.5004  0.2730 -0.6090
    6SAPS   H9Y  770   1.382   0.214   9.059 -3.6248 -0.9555  0.5797
    6SAPS  C310  771   1.360   0.001   9.113 -0.1324  0.3384 -0.8100
    6SAPS  H10X  772   1.262   0.010   9.164  1.0068  0.8919  1.4241
    6SAPS  H10Y  773   1.407  -0.073   9.181  0.3267  0.3758 -1.0808
    6SAPS  C311  774   1.339  -0.029   8.965  0.3584 -0.1074  0.7016
    6SAPS  H11X  775   1.432  -0.057   8.912 -1.4303 -2.5184 -1.3697
    6SAPS  H11Y  776   1.293   0.060   8.917  0.0115  1.0376  2.9835
    6SAPS  C312  777   1.245  -0.145   8.951  0.4146  0.0837  0.3049
    6SAPS  H12X  778   1.149  -0.118   9.001 -1.4309 -0.8642 -2.4729
    6SAPS  H12Y  779   1.280  -0.232   9.011  1.0288 -0.6861 -1.1174
    6SAPS  C313  780   1.227  -0.188   8.810 -0.3107  0.1407 -0.1574
    6SAPS  H13X  781   1.191  -0.291   8.791  1.0739 -0.0746 -1.8423
    6SAPS  H13Y  782   1.322  -0.172   8.754 -1.1656  0.9375 -1.4229
    6SAPS  C314  783   1.128  -0.092   8.729 -0.8782  0.1485 -0.1699
    6SAPS  H14X  784   1.170   0.011   8.732 -1.3031  0.3251 -0.0973
    6SAPS  H14Y  785   1.033  -0.091   8.788  0.2918  0.6347  1.7963
    6SAPS  C315  786   1.102  -0.137   8.578 -0.2966 -0.3874  0.1996
    6SAPS  H15X  787   1.036  -0.058   8.536  0.1493 -0.1174 -0.0022
    6SAPS  H15Y  788   1.041  -0.230   8.576  1.3868 -1.5221 -0.6130
    6SAPS  C316  789   1.220  -0.130   8.481 -0.3145  0.5219 -1.1171
    6SAPS  H16X  790   1.297  -0.204   8.509  0.7111  1.5978 -1.0138
    6SAPS  H16Y  791   1.273  -0.032   8.487 -1.3920  1.0622  1.6953
    6SAPS  C317  792   1.174  -0.158   8.338  0.4883 -0.1277  0.6820
    6SAPS  H17X  793   1.118  -0.066   8.309  2.2523 -0.0132 -2.9360
    6SAPS  H17Y  794   1.098  -0.239   8.343 -0.0045 -0.0844 -3.0416
    6SAPS  C318  795   1.285  -0.203   8.243  0.1070 -0.4963 -0.6834
    6SAPS  H18X  796   1.336  -0.298   8.267  0.7210 -0.1326 -0.5373
    6SAPS  H18Y  797   1.357  -0.120   8.228  0.7381  0.1105  4.1002
    6SAPS  H18Z  798   1.242  -0.215   8.141 -0.4375  0.0479 -0.5279
    7SAPS     N  799   3.653   3.983  11.010  0.3103  0.2427  0.3039
    7SAPS   HN1  800   3.709   3.987  10.922 -0.0713  1.0185  0.0875
    7SAPS   HN2  801   3.571   4.045  10.998 -1.7011 -1.4809  3.7815
    7SAPS   HN3  802   3.703   4.025  11.091  1.2949  0.7924 -0.5595
    7SAPS   C12  803   3.610   3.840  11.037 -0.6949 -0.4770  0.0754
    7SAPS  H12A  804   3.703   3.787  11.049  0.4592  1.7117  1.5869
    7SAPS   C13  805   3.534   3.826  11.164  0.1572  0.1860 -0.7610
    7SAPS  O13A  806   3.505   3.925  11.239  0.0338 -0.4526  0.0436
    7SAPS  O13B  807   3.523   3.709  11.202 -0.3176  0.1261 -0.8705
    7SAPS   C11  808   3.531   3.787  10.908  0.2353  0.4871  0.1388
    7SAPS  H11A  809   3.451   3.862  10.890 -1.5657 -0.3694  3.7142
    7SAPS  H11B  810   3.469   3.699  10.935  1.0156 -0.2194 -0.3220
    7SAPS     P  811   3.675   3.625  10.744 -0.3807  0.3389  0.1635
    7SAPS   O13  812   3.804   3.669  10.687 -0.6020 -0.6189 -0.4050
    7SAPS   O14  813   3.671   3.532  10.857 -0.0730 -0.3706  0.0583
    7SAPS   O12  814   3.613   3.765  10.795  0.0076  0.9117  0.0864
    7SAPS   O11  815   3.576   3.588  10.630  0.0801  0.5037 -0.2924
    7SAPS    C1  816   3.461   3.502  10.650  0.1456  0.3198  0.3055
    7SAPS    HA  817   3.490   3.402  10.611 -1.9426 -1.5061  3.0646
    7SAPS    HB  818   3.433   3.488  10.757  1.0688 -0.1081  0.5025
    7SAPS    C2  819   3.338   3.554  10.575  0.6812 -0.0493  0.0284
    7SAPS    HS  820   3.259   3.482  10.605  1.4268 -2.1169 -2.5610
    7SAPS   O21  821   3.347   3.539  10.435 -0.4135 -0.0514  0.0883
    7SAPS   C21  822   3.330   3.415  10.386  0.6327  0.3077 -0.0720
    7SAPS   O22  823   3.303   3.316  10.455 -0.6397  0.5050  0.4002
    7SAPS   C22  824   3.369   3.414  10.235 -0.1238  1.0844  0.5481
    7SAPS   H2R  825   3.317   3.489  10.172  0.5466  0.5726 -0.6564
    7SAPS   H2S  826   3.480   3.421  10.225 -0.2343  0.7740 -1.1625
    7SAPS    C3  827   3.293   3.693  10.609 -0.3365  0.3011 -0.7044
    7SAPS    HX  828   3.377   3.759  10.578 -0.4854 -0.4859 -2.9249
    7SAPS    HY  829   3.287   3.708  10.719 -1.8456 -0.1063 -0.6992
    7SAPS   O31  830   3.183   3.747  10.534 -0.0180 -0.1592 -0.4688
    7SAPS   C31  831   3.055   3.720  10.560 -0.2565  0.1232 -0.2771
    7SAPS   O32  832   3.021   3.628  10.635  0.0399  0.1543  0.3212
    7SAPS   C32  833   2.958   3.821  10.501  0.4639 -0.4045  0.5408
    7SAPS   H2X  834   2.905   3.854  10.593  0.9464 -1.7920  1.3469
    7SAPS   H2Y  835   2.885   3.756  10.447 -0.4632  1.2835 -0.3122
    7SAPS   C23  836   3.353   3.271  10.162  0.6862  0.4723  0.1874
    7SAPS   H3R  837   3.268   3.214  10.204  2.5484 -1.0651  2.1454
    7SAPS   H3S  838   3.440   3.204  10.180 -0.0077 -0.2694  0.8446
    7SAPS   C24  839   3.323   3.279  10.010 -0.1602 -0.0392  0.1330
    7SAPS   H4R  840   3.224   3.326   9.991  0.3350  1.0993  0.2859
    7SAPS   H4S  841   3.324   3.175   9.970  0.1005  0.6996 -1.8621
    7SAPS   C25  842   3.436   3.335   9.926  0.0314 -0.4659  0.8675
    7SAPS   H5R  843   3.530   3.335   9.983 -0.1401  0.8089  1.1893
    7SAPS   C26  844   3.443   3.357   9.794  0.1195  0.0812  0.0632
    7SAPS   H6R  845   3.531   3.412   9.757  1.8731 -1.5453  1.5455
    7SAPS   C27  846   3.338   3.333   9.685  0.6501 -0.2196 -0.2234
    7SAPS   H7R  847   3.238   3.301   9.723 -0.1074  2.6148  0.3575
    7SAPS   H7S  848   3.366   3.241   9.628 -1.2574 -2.4687  2.1696
    7SAPS   C28  849   3.308   3.454   9.598 -0.4448 -0.3381  0.0904
    7SAPS   H8R  850   3.290   3.542   9.663 -0.1168 -0.9453  1.0304
    7SAPS   C29  851   3.298   3.464   9.462 -0.1691 -0.3178 -0.5368
    7SAPS   H9R  852   3.268   3.561   9.419  0.1458 -0.1217 -0.3187
    7SAPS  C210  853   3.322   3.363   9.359  0.9886  0.2881  0.4884
    7SAPS  H10R  854   3.236   3.359   9.288 -0.0149  0.2776  1.6821
    7SAPS  H10S  855   3.324   3.258   9.396 -2.8980 -0.0682  0.1323
    7SAPS  C211  856   3.451   3.389   9.287 -0.0052 -0.5584 -0.4106
    7SAPS  H11R  857   3.535   3.371   9.355 -0.6593  0.3295  0.6775
    7SAPS  C212  858   3.465   3.424   9.154 -0.2389 -0.4467  0.1077
    7SAPS  H12R  859   3.568   3.409   9.119 -0.0231 -1.1763  0.9820
    7SAPS  C213  860   3.351   3.447   9.059 -1.1261 -0.6718  0.3841
    7SAPS  H13R  861   3.297   3.350   9.049 -0.6995 -0.8619 -0.0636
    7SAPS  H13S  862   3.393   3.474   8.960  1.0339  0.1854  1.4738
    7SAPS  C214  863   3.252   3.557   9.092 -0.2871 -0.4696 -0.0934
    7SAPS  H14R  864   3.275   3.620   9.179 -2.2590 -1.4252  1.1856
    7SAPS  C215  865   3.136   3.594   9.029 -0.8099 -0.2755  0.1072
    7SAPS  H15R  866   3.072   3.670   9.076 -2.2708 -1.4999  0.1838
    7SAPS  C216  867   3.083   3.531   8.900  0.4866 -0.1329 -0.1597
    7SAPS  H16R  868   3.156   3.458   8.860  0.7080 -1.0519  1.7862
    7SAPS  H16S  869   3.068   3.614   8.827  0.1535 -0.0405  0.0121
    7SAPS  C217  870   2.945   3.455   8.931 -0.1846 -0.2554 -0.0584
    7SAPS  H17R  871   2.860   3.526   8.937  0.7976  0.8760  1.3551
    7SAPS  H17S  872   2.963   3.400   9.026  2.5281 -0.7007 -0.7520
    7SAPS  C218  873   2.927   3.351   8.828  0.7246  0.6807 -0.2589
    7SAPS  H18R  874   2.862   3.271   8.871 -0.1695  1.8353  0.6101
    7SAPS  H18S  875   3.026   3.308   8.801  0.5487  0.6131 -0.8158
    7SAPS  C219  876   2.853   3.396   8.704  0.3000  0.1498  0.3594
    7SAPS  H19R  877   2.925   3.449   8.638 -0.1237  0.6362  0.2706
    7SAPS  H19S  878   2.788   3.482   8.734  0.0299  0.4760 -1.0883
    7SAPS  C220  879   2.762   3.286   8.641  0.0824 -0.0333  0.0960
    7SAPS  H20R  880   2.676   3.263   8.707 -0.8897  1.2386 -0.6664
    7SAPS  H20S  881   2.828   3.199   8.618 -0.7068 -0.7426  0.4463
    7SAPS  H20T  882   2.730   3.330   8.543  0.5328  3.2212  1.3050
    7SAPS   C33  883   3.009   3.946  10.425 -0.3770 -0.3590 -0.7100
    7SAPS   H3X  884   3.087   3.993  10.489 -0.6676 -2.0178  0.9517
    7SAPS   H3Y  885   2.924   4.017  10.429 -0.7222 -0.6926 -1.7843
    7SAPS   C34  886   3.059   3.911  10.282 -0.0541 -0.1314  0.3537
    7SAPS   H4X  887   3.010   3.825  10.232  0.4557 -1.3318  1.8261
    7SAPS   H4Y  888   3.161   3.867  10.294  0.5989  1.4792  0.9832
    7SAPS   C35  889   3.087   4.040  10.204 -0.2586  0.1039  0.1702
    7SAPS   H5X  890   3.158   4.096  10.268  1.0590 -0.1146 -1.0323
    7SAPS   H5Y  891   2.994   4.100  10.199 -0.3601 -0.1561 -1.7427
    7SAPS   C36  892   3.158   4.021  10.071  0.3666 -0.3615 -0.3817
    7SAPS   H6X  893   3.103   3.949  10.007 -2.2017 -0.2775  1.5717
    7SAPS   H6Y  894   3.254   3.969  10.091  0.5976 -0.5375 -1.8261
    7SAPS   C37  895   3.183   4.153  10.000 -0.1584  0.2327 -0.0597
    7SAPS   H7X  896   3.281   4.185  10.041 -0.8965  0.3259  1.7202
    7SAPS   H7Y  897   3.112   4.224  10.049  1.2043  1.3182  0.3982
    7SAPS   C38  898   3.172   4.158   9.849 -0.9643 -0.0062 -0.1674
    7SAPS   H8X  899   3.230   4.076   9.800 -0.7861  0.2181 -0.3335
    7SAPS   H8Y  900   3.230   4.249   9.825 -3.6658  1.2261 -2.6295
    7SAPS   C39  901   3.034   4.165   9.791  0.6580  0.2349  0.2520
    7SAPS   H9X  902   2.987   4.260   9.822 -0.0688  0.2063 -0.7195
    7SAPS   H9Y  903   2.965   4.089   9.832  0.2092  1.1447  1.2063
    7SAPS  C310  904   3.025   4.172   9.632 -0.1808  0.1866  0.1638
    7SAPS  H10X  905   3.039   4.069   9.595  0.7208 -0.0959  1.2574
    7SAPS  H10Y  906   3.115   4.224   9.594  1.0295 -2.5870 -1.0381
    7SAPS  C311  907   2.892   4.228   9.573 -0.1582  0.2823  0.1788
    7SAPS  H11X  908   2.856   4.329   9.603 -0.4074  0.0749  0.6023
    7SAPS  H11Y  909   2.805   4.174   9.617 -0.6054  0.9251  0.1033
    7SAPS  C312  910   2.880   4.222   9.417 -0.2951  0.3511 -0.9431
    7SAPS  H12X  911   2.907   4.122   9.375 -1.1570 -0.8436  1.2160
    7SAPS  H12Y  912   2.944   4.298   9.367 -0.8210  1.5056  0.0978
    7SAPS  C313  913   2.732   4.246   9.380  0.2735 -0.5560  0.0853
    7SAPS  H13X  914   2.702   4.343   9.425  0.7598 -0.5678  0.4305
    7SAPS  H13Y  915   2.662   4.164   9.405 -0.8005 -0.2039 -1.5556
    7SAPS  C314  916   2.715   4.260   9.221  0.1308  0.0634 -0.3359
    7SAPS  H14X  917   2.743   4.163   9.175  2.6986 -0.1070  1.3779
    7SAPS  H14Y  918   2.789   4.330   9.176 -0.1824  0.7156  0.1410
    7SAPS  C315  919   2.572   4.307   9.176 -0.4171  0.0654 -0.5144
    7SAPS  H15X  920   2.547   4.405   9.221  0.1225  0.3673 -0.8553
    7SAPS  H15Y  921   2.510   4.222   9.212  1.4523 -1.0004  0.3670
    7SAPS  C316  922   2.564   4.318   9.021 -0.3394  0.4016  0.3449
    7SAPS  H16X  923   2.580   4.215   8.984 -1.0161  0.6827 -0.7882
    7SAPS  H16Y  924   2.646   4.375   8.970  0.5748 -0.6193  0.6371
    7SAPS  C317  925   2.438   4.363   8.969 -0.9506  0.5690 -0.7697
    7SAPS  H17X  926   2.418   4.468   9.001 -2.3905  0.3075 -0.7147
    7SAPS  H17Y  927   2.365   4.293   9.015  1.9753 -1.4179  1.1444
    7SAPS  C318  928   2.419   4.349   8.815  0.2466  0.1583  0.5472
    7SAPS  H18X  929   2.505   4.401   8.767  1.1365 -1.2637  0.5588
    7SAPS  H18Y  930   2.336   4.413   8.778 -0.0439 -0.6191 -0.1600
    7SAPS  H18Z  931   2.409   4.245   8.776  3.4052  0.4017 -1.2840
    8SAPS     N  932   0.930   3.999  11.027 -0.4676  0.2067  0.1234
    8SAPS   HN1  933   0.887   4.079  10.978 -0.6472  2.1810  3.2340
    8SAPS   HN2  934   1.027   4.018  11.059 -0.1987 -1.1045  0.1490
    8SAPS   HN3  935   0.935   3.924  10.955  0.5305  0.4140 -0.0368
    8SAPS   C12  936   0.843   3.976  11.143 -0.0024  0.7607  0.2806
    8SAPS  H12A  937   0.870   3.887  11.199 -0.6547  0.5542  0.2840
    8SAPS   C13  938   0.848   4.088  11.248  0.1595  0.5427 -0.6075
    8SAPS  O13A  939   0.933   4.177  11.244 -0.2283  0.2751  0.4364
    8SAPS  O13B  940   0.781   4.065  11.357  0.2954  0.0718  0.0570
    8SAPS   C11  941   0.700   3.955  11.089 -0.4657 -0.3552  0.3371
    8SAPS  H11A  942   0.654   4.049  11.053  0.9413  0.4438  0.5880
    8SAPS  H11B  943   0.639   3.919  11.175  1.6933 -1.0625  1.6519
    8SAPS     P  944   0.565   3.816  10.914  0.2865  0.5589 -0.5637
    8SAPS   O13  945   0.538   3.668  10.929 -0.8670 -0.6621  0.3576
    8SAPS   O14  946   0.463   3.917  10.951 -0.1479 -0.1274 -0.1256
    8SAPS   O12  947   0.699   3.852  10.989 -0.1127 -0.1126 -0.1714
    8SAPS   O11  948   0.602   3.839  10.760 -0.0132 -0.0022 -0.3908
    8SAPS    C1  949   0.692   3.758  10.677  0.3355  0.3865  0.0710
    8SAPS    HA  950   0.792   3.756  10.724 -0.6291 -1.4512  2.2485
    8SAPS    HB  951   0.649   3.656  10.681 -0.0446  0.5136 -0.6113
    8SAPS    C2  952   0.703   3.818  10.534  0.0950 -0.3662 -0.2337
    8SAPS    HS  953   0.746   3.920  10.539  0.6676 -0.5680 -0.7903
    8SAPS   O21  954   0.569   3.809  10.471  0.1651 -0.1042 -0.1439
    8SAPS   C21  955   0.507   3.926  10.456  0.0594 -0.0288  0.5037
    8SAPS   O22  956   0.545   4.032  10.505 -0.9855  0.0997  0.1626
    8SAPS   C22  957   0.390   3.900  10.360  0.6577  0.1995 -0.6370
    8SAPS   H2R  958   0.297   3.879  10.417  0.6943  0.3390 -0.5254
    8SAPS   H2S  959   0.364   4.000  10.319  0.6760 -0.2063 -1.6743
    8SAPS    C3  960   0.811   3.723  10.450  0.2946  0.0836 -0.6456
    8SAPS    HX  961   0.763   3.623  10.457  0.2510  0.1805  0.5664
    8SAPS    HY  962   0.914   3.729  10.492 -0.4453  1.4738  1.1086
    8SAPS   O31  963   0.802   3.765  10.317 -0.7378 -0.0764  0.3172
    8SAPS   C31  964   0.847   3.682  10.221 -0.1498 -0.1787 -0.1772
    8SAPS   O32  965   0.900   3.576  10.248 -0.1981  0.2469 -0.1848
    8SAPS   C32  966   0.832   3.744  10.085 -0.0982 -0.3835 -0.0427
    8SAPS   H2X  967   0.876   3.846  10.097  0.7703 -0.6736 -0.7217
    8SAPS   H2Y  968   0.723   3.766  10.084  0.0938  0.6522 -0.5523
    8SAPS   C23  969   0.419   3.796  10.245  0.3535 -0.2460 -0.2842
    8SAPS   H3R  970   0.434   3.695  10.291  1.6795  0.0589 -0.0289
    8SAPS   H3S  971   0.500   3.839  10.182  0.1368 -0.9437 -1.0613
    8SAPS   C24  972   0.297   3.791  10.156  0.2966 -0.5606 -0.0577
    8SAPS   H4R  973   0.310   3.882  10.095 -1.3685 -0.3562 -0.1361
    8SAPS   H4S  974   0.200   3.796  10.210  0.6459 -3.1017  0.9979
    8SAPS   C25  975   0.292   3.668  10.074 -0.3479 -1.1324 -0.6730
    8SAPS   H5R  976   0.273   3.574  10.128 -1.2924 -1.0209 -0.7903
    8SAPS   C26  977   0.302   3.667   9.938  0.4166 -0.3032  0.6109
    8SAPS   H6R  978   0.306   3.565   9.896  4.1477  0.1857 -0.6185
    8SAPS   C27  979   0.340   3.776   9.845  0.7532 -1.0272 -0.3339
    8SAPS   H7R  980   0.406   3.855   9.887  0.4235  0.0171 -1.7091
    8SAPS   H7S  981   0.249   3.833   9.816  1.2652  0.2309  0.4574
    8SAPS   C28  982   0.408   3.724   9.724 -0.5907  0.5085 -0.5662
    8SAPS   H8R  983   0.503   3.674   9.749  0.1023  0.3008 -3.3034
    8SAPS   C29  984   0.383   3.752   9.593 -0.1182  0.1063 -0.0512
    8SAPS   H9R  985   0.454   3.727   9.513  0.4284 -0.0675  0.4846
    8SAPS  C210  986   0.263   3.823   9.537  0.0271 -0.1054 -0.3679
    8SAPS  H10R  987   0.192   3.836   9.621  0.4715  1.2413 -0.1779
    8SAPS  H10S  988   0.210   3.768   9.456 -0.1575  0.5566 -0.7072
    8SAPS  C211  989   0.306   3.966   9.479 -0.6480  0.3787  0.1102
    8SAPS  H11R  990   0.379   3.968   9.397  0.4448 -0.6164  1.0075
    8SAPS  C212  991   0.268   4.089   9.518 -0.4768  0.1416  0.2704
    8SAPS  H12R  992   0.302   4.181   9.468  2.1224 -1.1919 -0.6376
    8SAPS  C213  993   0.171   4.111   9.629 -0.2291 -0.4710 -0.1948
    8SAPS  H13R  994   0.203   4.190   9.700  1.1819  0.4118 -1.7279
    8SAPS  H13S  995   0.172   4.027   9.702  1.7019  0.6408  1.1430
    8SAPS  C214  996   0.029   4.118   9.584  0.0976  0.1094 -0.0313
    8SAPS  H14R  997   0.007   4.057   9.495  2.8477 -1.3479  0.1878
    8SAPS  C215  998  -0.072   4.179   9.652 -0.4604  1.1460  0.6768
    8SAPS  H15R  999  -0.171   4.175   9.605  0.4095  1.2929 -1.2938
    8SAPS  C216 1000  -0.085   4.255   9.778 -0.4630 -0.7633  0.0790
    8SAPS  H16R 1001   0.013   4.247   9.832 -0.1305 -2.4736 -0.6931
    8SAPS  H16S 1002  -0.169   4.216   9.840 -0.4584  0.8735  1.1639
    8SAPS  C217 1003  -0.123   4.403   9.739 -0.2316  0.7337  0.2253
    8SAPS  H17R 1004  -0.068   4.445   9.652 -1.4004  1.5918 -0.1131
    8SAPS  H17S 1005  -0.090   4.459   9.829 -0.7489  1.7192 -0.1803
    8SAPS  C218 1006  -0.270   4.436   9.719 -0.3304  0.3022 -0.9776
    8SAPS  H18R 1007  -0.319   4.405   9.813  0.8871  0.6531 -0.2097
    8SAPS  H18S 1008  -0.302   4.378   9.629  1.2130 -1.6115 -0.3671
    8SAPS  C219 1009  -0.289   4.587   9.706 -0.2950 -0.1901 -0.4361
    8SAPS  H19R 1010  -0.241   4.624   9.613 -1.0393  1.1034 -0.3299
    8SAPS  H19S 1011  -0.243   4.642   9.792  2.7225 -0.9425 -1.4565
    8SAPS  C220 1012  -0.438   4.606   9.684  0.1824 -0.3146  0.1734
    8SAPS  H20R 1013  -0.461   4.711   9.655 -1.7366 -0.2368  1.7505
    8SAPS  H20S 1014  -0.501   4.593   9.775 -2.4586  2.4305 -1.0707
    8SAPS  H20T 1015  -0.481   4.548   9.600  0.2744  1.8403 -1.4531
    8SAPS   C33 1016   0.872   3.662   9.965  0.5970  0.5298 -0.3017
    8SAPS   H3X 1017   0.817   3.566   9.956 -0.6050  1.2052 -0.3101
    8SAPS   H3Y 1018   0.981   3.643   9.958  0.3765 -0.4277 -1.6601
    8SAPS   C34 1019   0.850   3.732   9.831  0.5426 -0.2939  0.2213
    8SAPS   H4X 1020   0.907   3.827   9.826  2.6803 -1.4942  0.4156
    8SAPS   H4Y 1021   0.741   3.742   9.814  0.6418 -1.7268 -1.5541
    8SAPS   C35 1022   0.904   3.665   9.709 -0.1942  0.3141 -0.4831
    8SAPS   H5X 1023   0.871   3.559   9.714  0.9492 -0.1082 -1.2717
    8SAPS   H5Y 1024   1.015   3.676   9.713 -0.3770  2.0003  0.5992
    8SAPS   C36 1025   0.850   3.740   9.587 -0.2751 -0.3902 -0.2673
    8SAPS   H6X 1026   0.871   3.849   9.589  0.2646 -0.5072  0.8909
    8SAPS   H6Y 1027   0.740   3.730   9.579 -0.3270 -1.1993  1.1482
    8SAPS   C37 1028   0.900   3.670   9.454 -0.0809  0.4799  0.7356
    8SAPS   H7X 1029   0.870   3.563   9.454  0.5901  0.2912  0.5356
    8SAPS   H7Y 1030   1.010   3.681   9.454  0.0745 -0.9386  0.1347
    8SAPS   C38 1031   0.843   3.720   9.320 -0.9773  0.0150 -0.0710
    8SAPS   H8X 1032   0.885   3.821   9.299 -0.3009  1.1577  5.3524
    8SAPS   H8Y 1033   0.733   3.728   9.309 -1.0465 -2.0252 -1.3847
    8SAPS   C39 1034   0.889   3.632   9.197  0.3143 -0.3490 -0.1928
    8SAPS   H9X 1035   0.843   3.662   9.101 -0.8995 -0.1394  0.4369
    8SAPS   H9Y 1036   0.858   3.527   9.213  0.1891 -0.2686  0.0974
    8SAPS  C310 1037   1.042   3.642   9.193 -0.1090  0.0661  0.7426
    8SAPS  H10X 1038   1.086   3.598   9.285  0.2954  1.0233  1.0225
    8SAPS  H10Y 1039   1.069   3.750   9.187  3.1546 -0.7130 -1.7174
    8SAPS  C311 1040   1.113   3.584   9.065 -0.4433  0.9282  0.4593
    8SAPS  H11X 1041   1.086   3.477   9.057  0.4598  0.5878  1.7002
    8SAPS  H11Y 1042   1.224   3.586   9.072 -0.2383 -1.7041 -0.8877
    8SAPS  C312 1043   1.068   3.632   8.935 -0.1042 -0.1402  0.8301
    8SAPS  H12X 1044   0.957   3.628   8.935 -0.0833 -0.9544  1.3766
    8SAPS  H12Y 1045   1.107   3.579   8.846 -1.4642 -1.6401  1.0774
    8SAPS  C313 1046   1.094   3.780   8.907  0.4510 -0.3942 -0.1973
    8SAPS  H13X 1047   1.040   3.826   8.993  1.4523  0.7194 -0.1345
    8SAPS  H13Y 1048   1.045   3.817   8.814  0.7986  1.5746  0.3467
    8SAPS  C314 1049   1.239   3.833   8.918 -0.4233  0.1529  0.1553
    8SAPS  H14X 1050   1.301   3.759   8.864  1.1638  1.2526  0.4221
    8SAPS  H14Y 1051   1.255   3.821   9.027 -3.7298 -2.4291  0.5172
    8SAPS  C315 1052   1.271   3.973   8.861  0.2707  0.5274 -0.9626
    8SAPS  H15X 1053   1.208   4.053   8.907  1.5953  0.9673  0.1476
    8SAPS  H15Y 1054   1.236   3.960   8.756 -1.9803 -4.2383  0.1095
    8SAPS  C316 1055   1.417   4.004   8.876 -0.1881 -0.0515  0.5792
    8SAPS  H16X 1056   1.483   3.918   8.853 -1.1342 -0.3821 -1.0404
    8SAPS  H16Y 1057   1.446   4.033   8.979 -1.0739  0.8181  0.6003
    8SAPS  C317 1058   1.473   4.119   8.785 -0.5330 -0.4600  0.6514
    8SAPS  H17X 1059   1.575   4.135   8.827  0.3783 -0.2865 -1.4946
    8SAPS  H17Y 1060   1.419   4.212   8.814 -0.3953  0.5013 -1.8881
    8SAPS  C318 1061   1.485   4.091   8.636  0.2517  0.4995  0.4763
    8SAPS  H18X 1062   1.545   4.001   8.609 -0.2583  0.4308 -0.4728
    8SAPS  H18Y 1063   1.538   4.173   8.584 -1.0804  0.4502 -1.0356
    8SAPS  H18Z 1064   1.388   4.073   8.585  1.7197 -0.8642 -2.0440
    9SAPS     N 1065   2.459   5.621   5.943 -0.0027  0.8979  0.4033
    9SAPS   HN1 1066   2.552   5.646   5.981  0.9414  0.7241 -1.6709
    9SAPS   HN2 1067   2.472   5.586   5.846  0.9151  1.1270  0.4431
    9SAPS   HN3 1068   2.387   5.695   5.931 -0.2322  0.5141 -0.8289
    9SAPS   C12 1069   2.407   5.502   6.030 -0.1690  0.5324 -0.2045
    9SAPS  H12A 1070   2.321   5.460   5.981 -1.9345  2.4899  1.0106
    9SAPS   C13 1071   2.514   5.388   6.047 -0.4149 -0.3491 -0.3229
    9SAPS  O13A 1072   2.614   5.383   5.966  0.5181 -0.0224  0.4069
    9SAPS  O13B 1073   2.484   5.283   6.110  0.1975  0.1541  0.6940
    9SAPS   C11 1074   2.361   5.564   6.169  0.2190  0.1307 -0.9071
    9SAPS  H11A 1075   2.325   5.483   6.237 -3.1218  2.5083  0.4718
    9SAPS  H11B 1076   2.268   5.621   6.147 -0.5602 -0.1372  1.3775
    9SAPS     P 1077   2.435   5.782   6.300  0.3074  0.3587 -0.0126
    9SAPS   O13 1078   2.541   5.872   6.252 -0.0944  0.0242  0.1625
    9SAPS   O14 1079   2.298   5.820   6.269  0.2634  0.0752  0.0817
    9SAPS   O12 1080   2.465   5.639   6.240 -0.0401  0.6777  0.5671
    9SAPS   O11 1081   2.438   5.751   6.454  0.4263 -0.5275  0.0105
    9SAPS    C1 1082   2.409   5.621   6.508  0.7052 -0.3690 -0.1560
    9SAPS    HA 1083   2.300   5.600   6.503  0.5782  0.0647  0.6985
    9SAPS    HB 1084   2.461   5.538   6.455 -2.9892 -1.7195 -2.0483
    9SAPS    C2 1085   2.444   5.612   6.664 -0.2235 -0.1227  0.6209
    9SAPS    HS 1086   2.392   5.529   6.716 -1.3325 -1.3497 -2.2634
    9SAPS   O21 1087   2.423   5.743   6.717  0.1631  0.3705 -0.4066
    9SAPS   C21 1088   2.309   5.760   6.780  0.4368 -0.3149  0.0263
    9SAPS   O22 1089   2.218   5.680   6.781 -0.2576 -0.2128  0.2924
    9SAPS   C22 1090   2.298   5.892   6.847 -0.4715  0.4372 -0.1355
    9SAPS   H2R 1091   2.379   5.885   6.923 -0.3481  0.2903 -0.2811
    9SAPS   H2S 1092   2.328   5.968   6.771 -1.1886  0.0319 -0.8430
    9SAPS    C3 1093   2.597   5.579   6.674  0.0928 -0.9823  0.0637
    9SAPS    HX 1094   2.662   5.651   6.620 -0.1772 -0.4599  0.4236
    9SAPS    HY 1095   2.610   5.489   6.611  0.7386 -1.0946  0.3434
    9SAPS   O31 1096   2.651   5.575   6.806  0.3250 -0.0735  0.0306
    9SAPS   C31 1097   2.647   5.456   6.874  0.0258  0.1737  0.3212
    9SAPS   O32 1098   2.580   5.361   6.837 -0.2238 -0.0073 -0.3672
    9SAPS   C32 1099   2.727   5.461   6.999  0.0552 -0.4834 -0.2215
    9SAPS   H2X 1100   2.652   5.488   7.076 -0.7945 -2.0536 -0.4559
    9SAPS   H2Y 1101   2.806   5.539   7.001 -0.6758  0.3486  3.7936
    9SAPS   C23 1102   2.164   5.928   6.915 -0.6480 -0.4756  0.3484
    9SAPS   H3R 1103   2.143   5.849   6.991 -1.2308  0.5364  1.2649
    9SAPS   H3S 1104   2.092   5.934   6.831 -0.9845  0.9673  0.7121
    9SAPS   C24 1105   2.174   6.066   6.980  0.3259 -0.7131  0.0337
    9SAPS   H4R 1106   2.193   6.134   6.894 -0.7145  1.7253  1.6406
    9SAPS   H4S 1107   2.258   6.059   7.053  1.9988 -3.0543 -1.9287
    9SAPS   C25 1108   2.052   6.118   7.050 -0.2114 -0.4341  0.2625
    9SAPS   H5R 1109   1.987   6.175   6.981  0.9808 -0.4670 -0.9153
    9SAPS   C26 1110   2.025   6.115   7.181  0.2377 -0.2733  0.0189
    9SAPS   H6R 1111   1.927   6.156   7.210  0.6427  0.7459  0.0044
    9SAPS   C27 1112   2.112   6.044   7.285 -0.6551 -0.1083  0.6106
    9SAPS   H7R 1113   2.205   6.103   7.301  0.1690 -0.6646 -1.7652
    9SAPS   H7S 1114   2.136   5.941   7.249 -1.0596 -0.7638  2.1419
    9SAPS   C28 1115   2.045   6.047   7.419  0.2023  0.0313 -0.0798
    9SAPS   H8R 1116   1.986   6.136   7.446 -0.6319 -0.5355 -0.0151
    9SAPS   C29 1117   2.060   5.953   7.516 -0.4113 -0.6452  0.0450
    9SAPS   H9R 1118   1.994   5.973   7.602 -0.5811  2.2334 -0.6580
    9SAPS  C210 1119   2.158   5.839   7.513  0.4738  0.5003  0.0565
    9SAPS  H10R 1120   2.178   5.807   7.618  0.5842  0.2712 -0.0351
    9SAPS  H10S 1121   2.252   5.872   7.465 -0.0068 -0.5133 -1.6870
    9SAPS  C211 1122   2.119   5.722   7.418  0.0861  0.5653 -0.3566
    9SAPS  H11R 1123   2.101   5.755   7.314 -2.8640 -3.3405 -1.2974
    9SAPS  C212 1124   2.100   5.595   7.453  0.2117  0.6534 -0.6129
    9SAPS  H12R 1125   2.078   5.521   7.374  1.0624  0.3573 -0.5829
    9SAPS  C213 1126   2.114   5.532   7.596  0.3185  0.2337  0.4539
    9SAPS  H13R 1127   2.158   5.608   7.664 -1.3691  0.3462  1.4548
    9SAPS  H13S 1128   2.176   5.440   7.583  0.6681  0.3547  1.1919
    9SAPS  C214 1129   1.983   5.487   7.657  0.2976  0.1967  0.3436
    9SAPS  H14R 1130   1.915   5.428   7.593  0.2132 -0.6222  1.1622
    9SAPS  C215 1131   1.951   5.486   7.786  0.3063  0.0417  0.1786
    9SAPS  H15R 1132   1.852   5.447   7.813  0.1830 -1.0505 -1.6498
    9SAPS  C216 1133   2.023   5.527   7.910  0.2167 -0.1974 -0.7183
    9SAPS  H16R 1134   2.052   5.630   7.880  1.0926 -0.7769 -1.9181
    9SAPS  H16S 1135   2.124   5.483   7.921  0.7473  1.0361 -0.3573
    9SAPS  C217 1136   1.945   5.515   8.050 -0.8425  0.3055  0.2971
    9SAPS  H17R 1137   1.843   5.559   8.041 -1.6240 -1.1704  1.4379
    9SAPS  H17S 1138   2.007   5.567   8.126 -0.1876  0.0534 -0.0621
    9SAPS  C218 1139   1.931   5.374   8.094 -0.0785 -0.1916 -0.1902
    9SAPS  H18R 1140   2.026   5.322   8.070  0.3336 -0.7255  2.2935
    9SAPS  H18S 1141   1.849   5.331   8.034  0.6479 -0.3953 -1.0618
    9SAPS  C219 1142   1.889   5.343   8.244 -0.4646 -0.1745 -0.3943
    9SAPS  H19R 1143   1.977   5.377   8.303 -0.7059 -0.7111  0.2912
    9SAPS  H19S 1144   1.881   5.237   8.274 -0.9964  0.5062  2.1012
    9SAPS  C220 1145   1.763   5.405   8.286  0.1295 -0.4156 -0.1295
    9SAPS  H20R 1146   1.681   5.375   8.217  1.5779 -0.8579 -1.7469
    9SAPS  H20S 1147   1.765   5.516   8.282  1.1955 -0.3255  1.7444
    9SAPS  H20T 1148   1.731   5.376   8.389  0.9762  0.1384  0.2963
    9SAPS   C33 1149   2.808   5.333   7.011  0.6010 -0.1446 -0.2352
    9SAPS   H3X 1150   2.871   5.305   6.924 -1.0638 -2.6091 -0.7655
    9SAPS   H3Y 1151   2.742   5.246   7.035 -0.5797  0.5268 -0.9757
    9SAPS   C34 1152   2.915   5.356   7.123 -0.1745  0.3328  0.3671
    9SAPS   H4X 1153   2.970   5.452   7.113 -0.4701  0.3404 -1.5058
    9SAPS   H4Y 1154   2.990   5.275   7.106 -0.7300 -0.6762  2.4079
    9SAPS   C35 1155   2.864   5.346   7.267  0.2419  0.0923  0.1937
    9SAPS   H5X 1156   2.836   5.240   7.285 -2.7086  1.0196  1.7083
    9SAPS   H5Y 1157   2.771   5.406   7.279 -0.0706 -0.3811  0.1671
    9SAPS   C36 1158   2.966   5.404   7.369  0.4652 -0.0130  0.1284
    9SAPS   H6X 1159   2.987   5.513   7.357 -0.8842  0.4588  1.6582
    9SAPS   H6Y 1160   3.062   5.353   7.351 -0.6858 -1.8928 -1.0228
    9SAPS   C37 1161   2.921   5.376   7.509  0.2391  0.1442 -0.2328
    9SAPS   H7X 1162   2.895   5.269   7.513 -0.2388  0.2972  1.5039
    9SAPS   H7Y 1163   2.825   5.432   7.516 -0.7814 -1.4618 -0.9616
    9SAPS   C38 1164   3.021   5.416   7.619 -0.4286  0.4658 -0.2220
    9SAPS   H8X 1165   3.064   5.518   7.605 -0.1201  0.7321  2.1761
    9SAPS   H8Y 1166   3.106   5.347   7.632  1.0231  2.5600  2.5976
    9SAPS   C39 1167   2.951   5.420   7.755 -0.8160 -0.1651 -0.3836
    9SAPS   H9X 1168   2.873   5.341   7.760  0.2333 -1.1572  2.5506
    9SAPS   H9Y 1169   2.905   5.521   7.761 -1.5111 -0.5507  1.3063
    9SAPS  C310 1170   3.048   5.411   7.874 -0.2255  0.0119 -0.0298
    9SAPS  H10X 1171   3.137   5.470   7.845  0.7387 -2.7367 -3.3530
    9SAPS  H10Y 1172   3.091   5.308   7.880  0.0023  0.1075 -0.0140
    9SAPS  C311 1173   2.995   5.455   8.014 -0.8187  0.4126 -0.1357
    9SAPS  H11X 1174   2.917   5.384   8.046 -0.9330  1.1961  1.3898
    9SAPS  H11Y 1175   2.948   5.553   7.991 -3.0005 -0.4799  0.2758
    9SAPS  C312 1176   3.102   5.463   8.125  0.0062 -0.2972  1.1878
    9SAPS  H12X 1177   3.169   5.550   8.109 -0.3270 -0.5387 -2.4407
    9SAPS  H12Y 1178   3.150   5.363   8.128 -2.8499 -1.8182 -0.2169
    9SAPS  C313 1179   3.031   5.484   8.263  0.0326  0.3345  0.1319
    9SAPS  H13X 1180   2.960   5.400   8.280 -0.1526  0.9796  3.1317
    9SAPS  H13Y 1181   2.967   5.576   8.267 -0.8643 -0.2894  0.4618
    9SAPS  C314 1182   3.128   5.460   8.382  0.1256  0.0794  0.3007
    9SAPS  H14X 1183   3.232   5.480   8.349  0.4261  0.2962  1.3492
    9SAPS  H14Y 1184   3.136   5.357   8.422 -4.1554 -0.1036  1.1243
    9SAPS  C315 1185   3.090   5.547   8.501  0.2396 -0.0818  0.0359
    9SAPS  H15X 1186   2.980   5.565   8.502  0.5718  2.9412 -2.2095
    9SAPS  H15Y 1187   3.108   5.654   8.476 -3.6239  0.4866 -1.0744
    9SAPS  C316 1188   3.145   5.519   8.643 -0.4700  0.0462 -0.3381
    9SAPS  H16X 1189   3.102   5.422   8.675 -3.7910  1.2792 -0.7325
    9SAPS  H16Y 1190   3.091   5.590   8.708 -1.6329  1.2528 -2.4897
    9SAPS  C317 1191   3.295   5.538   8.664 -0.0777 -0.1587 -0.2239
    9SAPS  H17X 1192   3.353   5.506   8.575 -0.4462  1.3452 -1.0435
    9SAPS  H17Y 1193   3.317   5.469   8.748 -1.1976  0.6192  0.7325
    9SAPS  C318 1194   3.333   5.682   8.696 -0.2219  0.1269 -0.8186
    9SAPS  H18X 1195   3.274   5.715   8.784 -2.7260 -2.1368 -1.5215
    9SAPS  H18Y 1196   3.314   5.761   8.621 -1.2447 -0.2095 -0.9299
    9SAPS  H18Z 1197   3.441   5.687   8.720 -0.2423 -0.3501 -0.6125
   10SAPS     N 1198   5.035   0.909   6.460 -0.1403  0.5398 -0.3178
   10SAPS   HN1 1199   5.121   0.877   6.411  0.0505  1.7333 -0.7858
   10SAPS   HN2 1200   5.075   0.916   6.556  0.2608  0.6388 -0.4951
   10SAPS   HN3 1201   4.954   0.843   6.460 -0.3398  0.7732 -1.0079
   10SAPS   C12 1202   5.006   1.041   6.401  1.0364  0.0459 -0.0864
   10SAPS  H12A 1203   5.095   1.103   6.412  1.3191 -0.1808 -0.9880
   10SAPS   C13 1204   4.991   1.045   6.252  0.0314 -0.3253  0.7128
   10SAPS  O13A 1205   5.004   0.945   6.180 -0.6584 -0.4763 -0.1063
   10SAPS  O13B 1206   4.974   1.155   6.198  0.2696 -0.7443 -0.5819
   10SAPS   C11 1207   4.886   1.101   6.481  0.2040 -0.0764  0.6221
   10SAPS  H11A 1208   4.877   1.203   6.437 -1.1631 -1.0789 -1.6206
   10SAPS  H11B 1209   4.901   1.096   6.591  1.0471  2.2522  0.6625
   10SAPS     P 1210   4.626   1.083   6.454  0.4118  0.1499  0.1397
   10SAPS   O13 1211   4.621   1.217   6.387 -0.0358  0.4795 -0.2655
   10SAPS   O14 1212   4.533   0.978   6.409 -0.1528 -0.5554  0.1484
   10SAPS   O12 1213   4.768   1.026   6.447 -0.1705  0.3287 -0.2164
   10SAPS   O11 1214   4.603   1.099   6.607  0.4235  0.7236  0.1201
   10SAPS    C1 1215   4.641   0.993   6.698 -0.8953 -1.0694 -0.1894
   10SAPS    HA 1216   4.740   0.945   6.679 -0.4865 -0.8730  1.2977
   10SAPS    HB 1217   4.650   1.041   6.797  1.2843 -0.4237 -0.6511
   10SAPS    C2 1218   4.529   0.887   6.703 -1.1953  0.2496  0.6543
   10SAPS    HS 1219   4.505   0.861   6.598 -0.8427  3.4698 -0.3455
   10SAPS   O21 1220   4.413   0.949   6.760 -0.8374 -0.6246 -0.0096
   10SAPS   C21 1221   4.302   0.872   6.768 -0.3780 -0.0889 -0.1795
   10SAPS   O22 1222   4.288   0.764   6.721 -0.2470 -0.2124  0.4894
   10SAPS   C22 1223   4.204   0.940   6.867  0.7044 -0.0279 -0.4513
   10SAPS   H2R 1224   4.200   1.050   6.855  2.9078  0.1393 -0.1318
   10SAPS   H2S 1225   4.105   0.902   6.835  1.2410 -2.1078  0.1892
   10SAPS    C3 1226   4.583   0.766   6.779  0.1840  0.4340 -0.2442
   10SAPS    HX 1227   4.681   0.728   6.743 -0.3540 -2.4674  1.0285
   10SAPS    HY 1228   4.514   0.684   6.748 -1.0958  1.0840  0.7840
   10SAPS   O31 1229   4.586   0.781   6.923  0.4788 -0.5846  0.3616
   10SAPS   C31 1230   4.698   0.778   6.990  0.1883  0.1203  0.0119
   10SAPS   O32 1231   4.804   0.735   6.950  0.0341  0.1001 -0.0105
   10SAPS   C32 1232   4.674   0.839   7.127  0.6693  0.1862  0.5124
   10SAPS   H2X 1233   4.670   0.753   7.199 -1.0898  1.0910  1.5732
   10SAPS   H2Y 1234   4.575   0.889   7.120  0.2070 -0.5196  1.7000
   10SAPS   C23 1235   4.225   0.906   7.022 -0.0401 -0.1515  0.0429
   10SAPS   H3R 1236   4.259   0.800   7.028  0.8195  0.0840 -0.4927
   10SAPS   H3S 1237   4.121   0.913   7.062 -0.0497  1.9807 -0.2461
   10SAPS   C24 1238   4.307   1.004   7.091 -1.2024  0.0314 -0.6756
   10SAPS   H4R 1239   4.407   1.014   7.045 -0.3400  0.0575  1.1179
   10SAPS   H4S 1240   4.321   0.962   7.193 -2.2987 -0.2989 -0.6441
   10SAPS   C25 1241   4.239   1.134   7.115 -0.0228 -0.3488 -0.2347
   10SAPS   H5R 1242   4.218   1.193   7.024  0.0841  0.4660  0.2547
   10SAPS   C26 1243   4.188   1.187   7.223 -0.0900 -0.0401 -0.6932
   10SAPS   H6R 1244   4.126   1.278   7.216 -1.1776 -0.2774  3.3928
   10SAPS   C27 1245   4.192   1.127   7.362 -0.2132  0.8677  0.3097
   10SAPS   H7R 1246   4.296   1.101   7.389 -0.1612  0.6556 -0.0827
   10SAPS   H7S 1247   4.124   1.040   7.373 -1.4993  2.0124  1.9835
   10SAPS   C28 1248   4.152   1.239   7.459  0.2471  0.1441 -0.7415
   10SAPS   H8R 1249   4.197   1.335   7.428 -1.9435  0.6798 -2.5598
   10SAPS   C29 1250   4.075   1.230   7.572 -0.1740  0.2345 -0.2627
   10SAPS   H9R 1251   4.059   1.329   7.617 -0.1656 -0.2438  0.8147
   10SAPS  C210 1252   4.012   1.106   7.632 -0.0491 -0.1571 -0.1104
   10SAPS  H10R 1253   4.084   1.042   7.687 -2.0606 -2.4338  0.0353
   10SAPS  H10S 1254   3.980   1.032   7.555  0.9476  1.1036 -1.7899
   10SAPS  C211 1255   3.894   1.159   7.712  0.2514  0.3372 -0.0057
   10SAPS  H11R 1256   3.812   1.201   7.651 -0.2180 -1.0373 -0.3565
   10SAPS  C212 1257   3.885   1.146   7.848 -0.6727 -0.3975  0.1973
   10SAPS  H12R 1258   3.800   1.187   7.905  1.6758  0.7272  3.1584
   10SAPS  C213 1259   3.998   1.085   7.936  0.3257 -0.6437  0.2733
   10SAPS  H13R 1260   3.998   1.135   8.035 -1.5710  1.4088 -0.6608
   10SAPS  H13S 1261   4.100   1.102   7.896 -0.2424 -0.9700 -1.4296
   10SAPS  C214 1262   3.975   0.934   7.934 -0.1280 -0.4024 -0.7918
   10SAPS  H14R 1263   3.958   0.896   7.833 -1.6596 -0.6915 -0.4450
   10SAPS  C215 1264   3.961   0.853   8.043  1.3952  0.6727  0.2073
   10SAPS  H15R 1265   3.959   0.743   8.048 -0.1511  0.7307  2.2053
   10SAPS  C216 1266   3.978   0.911   8.183 -0.4164 -0.5641 -0.1496
   10SAPS  H16R 1267   4.017   1.015   8.180  0.0958 -0.7584 -0.3697
   10SAPS  H16S 1268   4.056   0.848   8.232 -1.7844 -1.0595  1.4767
   10SAPS  C217 1269   3.855   0.912   8.270 -0.4382  0.4556 -0.3351
   10SAPS  H17R 1270   3.768   0.958   8.218 -1.8173 -1.4764  0.1700
   10SAPS  H17S 1271   3.868   0.973   8.362 -0.5573 -0.2670  0.1700
   10SAPS  C218 1272   3.818   0.767   8.317 -0.2480 -0.7992 -0.0034
   10SAPS  H18R 1273   3.901   0.705   8.356  0.2649 -0.6829 -0.8649
   10SAPS  H18S 1274   3.777   0.710   8.230  1.3885 -2.2772  0.1548
   10SAPS  C219 1275   3.710   0.771   8.425 -0.8029 -0.5146 -0.0734
   10SAPS  H19R 1276   3.624   0.833   8.393  1.3337  2.0111 -1.2787
   10SAPS  H19S 1277   3.733   0.818   8.523 -1.4232  0.5456 -0.4207
   10SAPS  C220 1278   3.652   0.633   8.444  0.0489  0.1281  0.4714
   10SAPS  H20R 1279   3.569   0.643   8.517 -1.7836  1.3880 -1.6319
   10SAPS  H20S 1280   3.716   0.553   8.487 -0.0755 -0.0184  0.3889
   10SAPS  H20T 1281   3.607   0.607   8.346 -1.9539  3.4686  0.3510
   10SAPS   C33 1282   4.785   0.927   7.173 -0.2309  0.5300 -0.3034
   10SAPS   H3X 1283   4.779   1.032   7.136  1.5869  0.1743 -1.7736
   10SAPS   H3Y 1284   4.883   0.902   7.127 -0.5907 -0.8424 -0.3678
   10SAPS   C34 1285   4.804   0.904   7.325  0.1126 -0.2650  0.7089
   10SAPS   H4X 1286   4.880   0.978   7.358  1.0111 -1.0966  0.5260
   10SAPS   H4Y 1287   4.844   0.804   7.354  0.3252 -0.3881 -0.0056
   10SAPS   C35 1288   4.675   0.927   7.401  0.6835  0.5664 -0.4800
   10SAPS   H5X 1289   4.600   0.845   7.395  0.9869  0.1240  1.1883
   10SAPS   H5Y 1290   4.618   1.014   7.363  2.2945  0.8539 -2.3679
   10SAPS   C36 1291   4.701   0.943   7.552 -0.1363 -0.0901  0.1676
   10SAPS   H6X 1292   4.752   1.040   7.571 -1.6674  0.4466  1.7647
   10SAPS   H6Y 1293   4.779   0.867   7.574  0.3999 -0.0357 -1.3959
   10SAPS   C37 1294   4.576   0.928   7.647 -0.5801  0.4542 -0.3990
   10SAPS   H7X 1295   4.526   0.832   7.625  0.9467 -1.1631  2.5791
   10SAPS   H7Y 1296   4.492   0.998   7.627 -0.5139  0.8405  0.5709
   10SAPS   C38 1297   4.614   0.945   7.794  0.3372 -0.7083 -0.2855
   10SAPS   H8X 1298   4.630   1.051   7.825  2.4022 -0.4047 -2.1241
   10SAPS   H8Y 1299   4.719   0.909   7.797  0.2510 -1.0553 -1.1596
   10SAPS   C39 1300   4.525   0.869   7.895 -0.5207 -0.0507  0.0752
   10SAPS   H9X 1301   4.532   0.760   7.872  0.8272 -0.2834  1.4028
   10SAPS   H9Y 1302   4.420   0.901   7.884  0.1652  2.0012 -0.8830
   10SAPS  C310 1303   4.572   0.890   8.042  0.1828  0.5050 -0.7283
   10SAPS  H10X 1304   4.526   0.986   8.077 -0.2472 -0.3800  1.3281
   10SAPS  H10Y 1305   4.682   0.902   8.050 -0.0570  1.7352  2.8048
   10SAPS  C311 1306   4.534   0.770   8.129  0.0216  0.1265  0.0509
   10SAPS  H11X 1307   4.578   0.788   8.229 -1.4106 -0.4350  0.8069
   10SAPS  H11Y 1308   4.589   0.682   8.090 -0.2598 -0.0904  0.1393
   10SAPS  C312 1309   4.380   0.734   8.135 -0.5769 -1.1419 -0.1514
   10SAPS  H12X 1310   4.343   0.725   8.031 -0.0124  3.0269 -0.8879
   10SAPS  H12Y 1311   4.318   0.820   8.166  1.3792 -0.2433  1.5301
   10SAPS  C313 1312   4.350   0.604   8.212  0.2314 -0.3763 -0.2467
   10SAPS  H13X 1313   4.425   0.526   8.187  0.8537 -0.8326  2.6232
   10SAPS  H13Y 1314   4.256   0.559   8.173  1.0662 -0.3274 -2.4214
   10SAPS  C314 1315   4.356   0.611   8.366  0.2740  0.3922  0.0491
   10SAPS  H14X 1316   4.262   0.654   8.407  1.1217  2.5934 -0.2150
   10SAPS  H14Y 1317   4.437   0.683   8.389  1.7998 -1.1459 -0.3419
   10SAPS  C315 1318   4.386   0.488   8.440  0.6654 -0.4048  0.5369
   10SAPS  H15X 1319   4.467   0.429   8.391  1.3182  0.1734  0.8992
   10SAPS  H15Y 1320   4.295   0.426   8.423  0.8271 -1.0635  1.9331
   10SAPS  C316 1321   4.434   0.501   8.587 -0.3166 -0.1278  0.3470
   10SAPS  H16X 1322   4.350   0.543   8.646 -1.0793  0.4833 -1.1248
   10SAPS  H16Y 1323   4.514   0.579   8.583  1.2491 -1.6376 -3.4181
   10SAPS  C317 1324   4.490   0.375   8.646 -0.1594  0.2596  0.6197
   10SAPS  H17X 1325   4.568   0.339   8.576 -0.0671  0.9190  0.3786
   10SAPS  H17Y 1326   4.411   0.297   8.657 -0.3190 -0.1268 -2.2694
   10SAPS  C318 1327   4.572   0.398   8.773 -0.0640  0.1102  0.4441
   10SAPS  H18X 1328   4.640   0.311   8.787  1.5471  1.0028 -1.3004
   10SAPS  H18Y 1329   4.510   0.429   8.859  0.6432  0.7578  0.7356
   10SAPS  H18Z 1330   4.638   0.482   8.742 -2.8519  1.5408 -2.1208
   11SAPS     N 1331   0.641   2.955   6.100 -0.1744  0.0516  0.1979
   11SAPS   HN1 1332   0.722   2.917   6.152 -0.1774 -0.0068  0.1599
   11SAPS   HN2 1333   0.651   3.058   6.087  0.3480 -0.1194 -0.8833
   11SAPS   HN3 1334   0.561   2.934   6.163 -0.2418 -2.2997 -0.5901
   11SAPS   C12 1335   0.607   2.879   5.978  0.1537 -0.4077 -0.1744
   11SAPS  H12A 1336   0.502   2.895   5.960  0.0791  0.8452  1.2245
   11SAPS   C13 1337   0.694   2.909   5.854  0.1073 -0.1724  0.5552
   11SAPS  O13A 1338   0.777   3.001   5.855 -0.4543 -0.0699  0.1919
   11SAPS  O13B 1339   0.664   2.849   5.748 -0.2998  0.6454 -0.4741
   11SAPS   C11 1340   0.616   2.736   6.031 -0.0421  0.0430  0.1856
   11SAPS  H11A 1341   0.609   2.673   5.940  1.0545 -0.7205  0.6031
   11SAPS  H11B 1342   0.548   2.708   6.114  0.4686  0.9397  0.9194
   11SAPS     P 1343   0.776   2.571   6.154 -0.0747 -0.0689 -0.1577
   11SAPS   O13 1344   0.714   2.471   6.075  0.6427 -0.1112 -0.0338
   11SAPS   O14 1345   0.923   2.562   6.180 -0.0925 -0.1579 -0.2501
   11SAPS   O12 1346   0.755   2.715   6.081  0.2355 -0.2397  0.1384
   11SAPS   O11 1347   0.700   2.589   6.293  0.5479 -0.2385 -0.9275
   11SAPS    C1 1348   0.775   2.636   6.407  0.1875 -1.0704  0.1763
   11SAPS    HA 1349   0.852   2.562   6.438 -1.2237 -2.9378 -0.5351
   11SAPS    HB 1350   0.814   2.737   6.384  0.5590 -1.2402  0.0504
   11SAPS    C2 1351   0.680   2.643   6.530  0.4981 -0.6600  0.3341
   11SAPS    HS 1352   0.734   2.667   6.624  1.5555 -2.2326  0.1652
   11SAPS   O21 1353   0.614   2.519   6.548 -0.2722  0.4620  0.0365
   11SAPS   C21 1354   0.694   2.424   6.609 -0.0664 -0.3998  0.4091
   11SAPS   O22 1355   0.807   2.443   6.639  0.2390  0.0055  0.2253
   11SAPS   C22 1356   0.624   2.289   6.621 -0.7633 -0.5185  0.3720
   11SAPS   H2R 1357   0.519   2.292   6.584 -0.1640 -1.9670 -1.5684
   11SAPS   H2S 1358   0.679   2.216   6.558  1.3836  1.4194 -0.1191
   11SAPS    C3 1359   0.573   2.752   6.511 -0.6070 -0.5584 -0.3194
   11SAPS    HX 1360   0.523   2.737   6.413 -0.2249 -0.7615 -0.4837
   11SAPS    HY 1361   0.635   2.844   6.513  0.5744 -1.3268 -0.7643
   11SAPS   O31 1362   0.479   2.739   6.624  0.4636  0.2298  0.6136
   11SAPS   C31 1363   0.399   2.841   6.639 -0.3801 -0.7783  0.0628
   11SAPS   O32 1364   0.412   2.957   6.600 -0.2986 -0.0058  0.2791
   11SAPS   C32 1365   0.285   2.794   6.720 -0.3675 -0.2090  0.0936
   11SAPS   H2X 1366   0.261   2.688   6.695 -2.8029  1.0647 -3.8317
   11SAPS   H2Y 1367   0.189   2.844   6.697 -0.5254 -0.7956 -0.5548
   11SAPS   C23 1368   0.626   2.241   6.768 -0.8131 -0.6329  0.4329
   11SAPS   H3R 1369   0.730   2.226   6.803 -1.1096  0.2376  1.7641
   11SAPS   H3S 1370   0.566   2.149   6.783 -1.7361  0.3349  3.3727
   11SAPS   C24 1371   0.560   2.351   6.851 -0.0937 -0.0087 -0.6228
   11SAPS   H4R 1372   0.471   2.390   6.797  1.4512  1.4257 -2.2808
   11SAPS   H4S 1373   0.627   2.439   6.861  1.2200 -1.0281 -0.1622
   11SAPS   C25 1374   0.512   2.299   6.984 -0.3548  0.5213  0.0525
   11SAPS   H5R 1375   0.409   2.261   6.979  0.2604 -1.2332 -0.2460
   11SAPS   C26 1376   0.583   2.267   7.094 -0.5556 -0.1170 -0.2544
   11SAPS   H6R 1377   0.534   2.224   7.183 -0.3840  3.3248  1.7108
   11SAPS   C27 1378   0.730   2.290   7.113  0.2943 -0.7064  0.2964
   11SAPS   H7R 1379   0.734   2.341   7.212 -0.0343 -1.1829  0.5646
   11SAPS   H7S 1380   0.767   2.363   7.039 -2.4256  0.6332  0.1257
   11SAPS   C28 1381   0.821   2.176   7.134  0.4722 -0.0458  0.2751
   11SAPS   H8R 1382   0.874   2.163   7.038 -1.8692  1.0196 -1.2568
   11SAPS   C29 1383   0.824   2.096   7.240 -0.3741 -0.0882 -0.1480
   11SAPS   H9R 1384   0.884   2.005   7.224  0.1295  0.3820 -1.0412
   11SAPS  C210 1385   0.752   2.112   7.373  0.8082  0.0816  1.0335
   11SAPS  H10R 1386   0.690   2.023   7.394  1.8591 -0.5750  1.4485
   11SAPS  H10S 1387   0.686   2.201   7.368 -1.5160 -1.5887 -0.2255
   11SAPS  C211 1388   0.839   2.106   7.500  0.7192 -0.8876  0.7508
   11SAPS  H11R 1389   0.940   2.065   7.482  1.5055  0.8033  1.0719
   11SAPS  C212 1390   0.815   2.135   7.626 -0.0519 -0.0511 -0.1761
   11SAPS  H12R 1391   0.897   2.133   7.699 -1.2951 -1.1338  1.2514
   11SAPS  C213 1392   0.685   2.189   7.685  0.0568  0.6998  0.0484
   11SAPS  H13R 1393   0.639   2.246   7.601  0.1004 -0.7647 -0.9929
   11SAPS  H13S 1394   0.719   2.259   7.764  1.4656 -0.7777  0.8076
   11SAPS  C214 1395   0.599   2.088   7.748  0.5026  0.3065 -0.5268
   11SAPS  H14R 1396   0.641   2.028   7.830 -0.3959  0.5631  0.1362
   11SAPS  C215 1397   0.474   2.052   7.714  0.4298 -0.7392  0.0268
   11SAPS  H15R 1398   0.419   1.978   7.773  2.0196 -0.1652  2.3806
   11SAPS  C216 1399   0.396   2.115   7.601  0.2907  0.3915  0.0839
   11SAPS  H16R 1400   0.430   2.066   7.507 -1.6737  1.4591 -1.2490
   11SAPS  H16S 1401   0.411   2.224   7.593  0.4856  0.3702  0.1502
   11SAPS  C217 1402   0.242   2.074   7.600 -0.5718  0.1504  0.2385
   11SAPS  H17R 1403   0.214   2.100   7.704 -0.4759  0.3013  0.2270
   11SAPS  H17S 1404   0.233   1.967   7.574  3.4727  0.1478 -1.9683
   11SAPS  C218 1405   0.153   2.161   7.512  0.2232 -0.5793  0.3185
   11SAPS  H18R 1406   0.169   2.271   7.515 -1.1031 -0.3554 -0.4549
   11SAPS  H18S 1407   0.048   2.154   7.547  0.0413  2.3337  0.6385
   11SAPS  C219 1408   0.174   2.124   7.367  0.0861  0.0095 -0.0095
   11SAPS  H19R 1409   0.126   2.030   7.331  2.2914 -1.0003 -0.4686
   11SAPS  H19S 1410   0.279   2.097   7.344 -0.1667  0.4478 -1.8302
   11SAPS  C220 1411   0.125   2.230   7.263 -0.8200 -0.6034 -0.1084
   11SAPS  H20R 1412   0.014   2.221   7.255 -0.9915 -1.9173  2.5312
   11SAPS  H20S 1413   0.171   2.212   7.163  1.3355  0.7547  0.5736
   11SAPS  H20T 1414   0.151   2.330   7.303 -2.7019 -0.6865  1.5292
   11SAPS   C33 1415   0.300   2.812   6.873 -0.1854  0.6212 -0.6427
   11SAPS   H3X 1416   0.204   2.826   6.927  0.6594  0.9627  0.8208
   11SAPS   H3Y 1417   0.371   2.892   6.901  0.1787  0.5614 -1.3800
   11SAPS   C34 1418   0.363   2.686   6.946 -0.0398 -0.6640  0.2010
   11SAPS   H4X 1419   0.466   2.670   6.908 -0.7925 -3.0267 -1.0868
   11SAPS   H4Y 1420   0.298   2.603   6.911 -0.2424 -0.3527 -0.1660
   11SAPS   C35 1421   0.358   2.687   7.099  0.5766 -0.5261 -0.8634
   11SAPS   H5X 1422   0.252   2.699   7.130  1.2297  0.0572  1.4048
   11SAPS   H5Y 1423   0.420   2.770   7.139 -0.7449  0.0579  0.0571
   11SAPS   C36 1424   0.403   2.558   7.161 -0.1416 -0.3480  0.2368
   11SAPS   H6X 1425   0.509   2.543   7.133 -0.4616  0.4703 -1.5182
   11SAPS   H6Y 1426   0.355   2.467   7.118 -1.9293 -0.1438  1.6713
   11SAPS   C37 1427   0.388   2.574   7.312 -0.1333  0.0310 -0.0150
   11SAPS   H7X 1428   0.281   2.588   7.340 -0.2666 -1.6012  0.3497
   11SAPS   H7Y 1429   0.440   2.672   7.324  0.4346 -0.4371  1.5462
   11SAPS   C38 1430   0.452   2.464   7.393 -0.0381 -0.2454 -0.0912
   11SAPS   H8X 1431   0.549   2.428   7.354 -0.0428 -3.1265  2.2367
   11SAPS   H8Y 1432   0.385   2.376   7.394 -0.1866 -0.1376 -0.5540
   11SAPS   C39 1433   0.462   2.505   7.542  0.7985 -0.2342 -0.2363
   11SAPS   H9X 1434   0.522   2.598   7.538  0.5357 -0.1045 -3.3619
   11SAPS   H9Y 1435   0.518   2.430   7.602 -0.1870 -1.2275 -0.5343
   11SAPS  C310 1436   0.323   2.539   7.603 -0.0897 -0.7578  0.8476
   11SAPS  H10X 1437   0.258   2.453   7.578 -0.7559 -0.4109  1.3390
   11SAPS  H10Y 1438   0.275   2.626   7.552 -1.2453 -1.9233 -0.1123
   11SAPS  C311 1439   0.315   2.547   7.757 -0.5775  0.3441 -0.5053
   11SAPS  H11X 1440   0.218   2.585   7.796 -0.0843  1.8273 -0.6924
   11SAPS  H11Y 1441   0.386   2.629   7.782  0.3646 -0.1756 -1.4021
   11SAPS  C312 1442   0.372   2.418   7.827  0.4038 -0.8235  0.1895
   11SAPS  H12X 1443   0.479   2.394   7.809  0.5493 -2.1054  2.4163
   11SAPS  H12Y 1444   0.312   2.337   7.781  1.4692 -1.4295 -0.1478
   11SAPS  C313 1445   0.355   2.440   7.984  0.0256 -0.1660  0.7028
   11SAPS  H13X 1446   0.244   2.443   7.990 -0.0612  0.4399 -0.6943
   11SAPS  H13Y 1447   0.418   2.528   8.009  0.3503 -0.7854  2.1423
   11SAPS  C314 1448   0.409   2.321   8.060  0.1587  0.2734 -0.1515
   11SAPS  H14X 1449   0.517   2.317   8.034  0.4907 -2.4624  1.3372
   11SAPS  H14Y 1450   0.368   2.222   8.031  0.6137 -0.6041  2.0142
   11SAPS  C315 1451   0.418   2.355   8.210  0.5257  0.2685 -0.1084
   11SAPS  H15X 1452   0.309   2.355   8.234  0.3223 -1.6129 -0.8721
   11SAPS  H15Y 1453   0.465   2.451   8.241 -1.1302  0.4835  2.0189
   11SAPS  C316 1454   0.479   2.234   8.284 -0.4910  0.3448  0.0765
   11SAPS  H16X 1455   0.588   2.256   8.281 -0.7652  1.6313 -1.0592
   11SAPS  H16Y 1456   0.458   2.139   8.230 -0.2599 -1.1067  2.4116
   11SAPS  C317 1457   0.421   2.222   8.429  0.2942 -0.5333  0.4606
   11SAPS  H17X 1458   0.311   2.218   8.422  0.3585  0.4084 -2.1899
   11SAPS  H17Y 1459   0.459   2.314   8.477  1.0300 -1.9398  2.7165
   11SAPS  C318 1460   0.483   2.107   8.502  0.5648 -0.1552 -0.2405
   11SAPS  H18X 1461   0.451   2.010   8.460 -3.5492  0.0121  1.9506
   11SAPS  H18Y 1462   0.441   2.109   8.606  0.3150  0.6895 -0.3543
   11SAPS  H18Z 1463   0.592   2.129   8.504  0.4089  0.5946  0.3603
   12SAPS     N 1464   0.212   0.509   6.017 -0.1886  0.3585  0.4400
   12SAPS   HN1 1465   0.211   0.609   6.045 -2.0197 -0.0171  1.8699
   12SAPS   HN2 1466   0.222   0.453   6.104 -1.5472 -3.9277 -1.8547
   12SAPS   HN3 1467   0.295   0.494   5.955 -0.1474 -0.6101  0.7097
   12SAPS   C12 1468   0.081   0.476   5.958 -0.1389 -0.2904  0.1821
   12SAPS  H12A 1469   0.008   0.483   6.036  2.0072  0.3149  2.2357
   12SAPS   C13 1470   0.038   0.565   5.840 -0.0128 -0.0079  0.2640
   12SAPS  O13A 1471   0.104   0.673   5.820  0.3541  0.1017 -0.4756
   12SAPS  O13B 1472  -0.082   0.558   5.801  0.1640 -0.1946 -0.0177
   12SAPS   C11 1473   0.074   0.326   5.925 -0.7496  0.1925  0.1146
   12SAPS  H11A 1474   0.163   0.282   5.973  0.4905  1.4564 -0.8981
   12SAPS  H11B 1475   0.092   0.315   5.816 -0.3518  0.9076  0.1030
   12SAPS     P 1476  -0.081   0.177   6.079  0.3365  0.2335 -0.2955
   12SAPS   O13 1477  -0.224   0.191   6.110 -0.1812  0.1251  0.5407
   12SAPS   O14 1478  -0.031   0.042   6.050 -0.4242  0.2897  0.9945
   12SAPS   O12 1479  -0.054   0.263   5.953 -0.1965 -0.0236  0.1521
   12SAPS   O11 1480   0.014   0.253   6.180 -0.2890 -0.0888  0.5440
   12SAPS    C1 1481  -0.032   0.315   6.303 -0.1711 -0.0109 -0.4033
   12SAPS    HA 1482  -0.108   0.393   6.278 -0.7566 -0.2159  0.6715
   12SAPS    HB 1483  -0.077   0.240   6.370  0.3137  0.8671  0.9405
   12SAPS    C2 1484   0.084   0.388   6.365 -0.1469  0.1850 -0.5021
   12SAPS    HS 1485   0.121   0.463   6.292 -2.0899  1.4352 -0.2757
   12SAPS   O21 1486   0.185   0.302   6.413 -0.4656 -0.1320 -0.4629
   12SAPS   C21 1487   0.277   0.272   6.311  0.1059 -0.0319 -0.3930
   12SAPS   O22 1488   0.296   0.343   6.216  0.1092  0.2696  0.3853
   12SAPS   C22 1489   0.354   0.149   6.353  0.1749  0.3200  0.8011
   12SAPS   H2R 1490   0.321   0.099   6.447 -0.1181  1.0738  1.1062
   12SAPS   H2S 1491   0.353   0.077   6.268  0.2157  0.9312  0.2724
   12SAPS    C3 1492   0.040   0.467   6.487  0.3185  0.1699  0.5100
   12SAPS    HX 1493  -0.010   0.403   6.563  0.6407 -1.3171 -0.4716
   12SAPS    HY 1494  -0.046   0.524   6.446 -1.5486 -2.4426  0.5379
   12SAPS   O31 1495   0.149   0.552   6.525 -0.2334  0.1863 -0.7817
   12SAPS   C31 1496   0.180   0.537   6.653  0.9395  0.3576 -0.6793
   12SAPS   O32 1497   0.149   0.447   6.731  0.0026  0.6894 -0.8157
   12SAPS   C32 1498   0.278   0.648   6.681 -0.4098 -0.1817  0.2020
   12SAPS   H2X 1499   0.267   0.731   6.608  0.4586 -0.4802 -0.2889
   12SAPS   H2Y 1500   0.377   0.599   6.672 -0.6474 -0.3453 -2.3258
   12SAPS   C23 1501   0.503   0.190   6.354  0.2426 -0.1922 -0.0287
   12SAPS   H3R 1502   0.536   0.185   6.248 -3.0342  4.3197 -1.5339
   12SAPS   H3S 1503   0.560   0.109   6.405  0.6840  0.7595  1.0191
   12SAPS   C24 1504   0.539   0.328   6.414 -0.4182 -0.2885 -0.6045
   12SAPS   H4R 1505   0.486   0.407   6.357 -1.4062  0.1848  0.9136
   12SAPS   H4S 1506   0.648   0.329   6.395  0.0842 -3.5828  1.1730
   12SAPS   C25 1507   0.501   0.340   6.563  0.0317  0.2548 -0.1080
   12SAPS   H5R 1508   0.394   0.351   6.585  0.5356 -0.1471  2.9012
   12SAPS   C26 1509   0.590   0.346   6.669  0.2210 -0.3252 -0.0269
   12SAPS   H6R 1510   0.553   0.362   6.772  0.9157  2.4066 -0.1154
   12SAPS   C27 1511   0.737   0.330   6.650  0.3580 -1.0237  0.1442
   12SAPS   H7R 1512   0.764   0.274   6.559  0.5175  0.0239 -0.4720
   12SAPS   H7S 1513   0.778   0.269   6.734  0.8939 -0.1030  0.5773
   12SAPS   C28 1514   0.805   0.469   6.646 -0.3318 -0.1620 -0.1015
   12SAPS   H8R 1515   0.802   0.511   6.545 -0.9432  0.6185  0.2318
   12SAPS   C29 1516   0.850   0.534   6.755  0.2724  0.2901  0.5629
   12SAPS   H9R 1517   0.905   0.629   6.742 -0.2607  0.7771  1.6960
   12SAPS  C210 1518   0.860   0.481   6.899  0.1758  0.2327  0.2969
   12SAPS  H10R 1519   0.963   0.472   6.939 -0.8075 -1.4396  2.6253
   12SAPS  H10S 1520   0.818   0.379   6.907  0.8850 -0.0246  0.7727
   12SAPS  C211 1521   0.781   0.574   6.988  0.5113  0.2136  0.4435
   12SAPS  H11R 1522   0.696   0.619   6.933 -0.2505 -2.9434 -1.2288
   12SAPS  C212 1523   0.785   0.593   7.121 -0.7976 -0.2004  0.5694
   12SAPS  H12R 1524   0.723   0.670   7.169  3.0759  2.3823  1.9844
   12SAPS  C213 1525   0.886   0.529   7.214  0.0176 -0.2885  0.3913
   12SAPS  H13R 1526   0.926   0.441   7.160  0.8509  0.5869 -0.4510
   12SAPS  H13S 1527   0.826   0.485   7.297  0.0563 -1.2489 -0.0721
   12SAPS  C214 1528   0.989   0.627   7.267 -0.2099  0.6448  0.1233
   12SAPS  H14R 1529   1.053   0.670   7.188 -1.3542 -1.1631 -1.8781
   12SAPS  C215 1530   1.001   0.684   7.388  0.1315  0.1196  0.2982
   12SAPS  H15R 1531   1.076   0.765   7.396  0.3241 -0.0869  0.6382
   12SAPS  C216 1532   0.928   0.652   7.513 -0.0358 -1.0295  0.2204
   12SAPS  H16R 1533   0.963   0.561   7.566 -0.1581 -1.3586 -0.2606
   12SAPS  H16S 1534   0.825   0.621   7.484  0.3387 -0.9551 -1.2852
   12SAPS  C217 1535   0.911   0.770   7.613 -0.3664  0.1438  0.6691
   12SAPS  H17R 1536   0.826   0.748   7.681 -1.9645  0.0863 -1.2215
   12SAPS  H17S 1537   0.890   0.864   7.558  0.2854  0.3708  0.8009
   12SAPS  C218 1538   1.044   0.784   7.692  0.3935 -0.0637 -0.3016
   12SAPS  H18R 1539   1.107   0.862   7.644  0.5825  1.1113  1.7464
   12SAPS  H18S 1540   1.104   0.691   7.687  0.1102 -0.2644 -0.0579
   12SAPS  C219 1541   1.026   0.815   7.842 -0.1574 -0.2353  0.6607
   12SAPS  H19R 1542   0.961   0.905   7.849 -0.2664 -0.3528  1.1758
   12SAPS  H19S 1543   1.130   0.839   7.873  0.3982  0.4224 -1.5182
   12SAPS  C220 1544   0.969   0.702   7.933 -0.5814 -0.1218  0.2856
   12SAPS  H20R 1545   1.043   0.619   7.935 -0.4827 -0.0309  2.4690
   12SAPS  H20S 1546   0.872   0.670   7.890 -0.2454 -0.2817 -0.3786
   12SAPS  H20T 1547   0.956   0.739   8.037 -2.4457  1.5271 -0.4674
   12SAPS   C33 1548   0.265   0.715   6.822 -0.5262 -0.5611 -0.3908
   12SAPS   H3X 1549   0.165   0.741   6.863  0.4903 -0.1314  1.9657
   12SAPS   H3Y 1550   0.321   0.811   6.820 -0.4825 -0.5902 -0.5679
   12SAPS   C34 1551   0.331   0.642   6.939  0.0865  0.9601  0.6519
   12SAPS   H4X 1552   0.429   0.616   6.892 -0.6752 -1.5307  0.2997
   12SAPS   H4Y 1553   0.276   0.546   6.946  2.8599 -0.8600 -0.7404
   12SAPS   C35 1554   0.330   0.722   7.070 -0.9739 -0.2716 -0.1368
   12SAPS   H5X 1555   0.306   0.653   7.153  2.0580 -0.0127  1.0904
   12SAPS   H5Y 1556   0.249   0.796   7.056 -1.7182 -1.3273 -1.6289
   12SAPS   C36 1557   0.458   0.805   7.097  0.5450  0.6799  0.6747
   12SAPS   H6X 1558   0.481   0.876   7.015  0.7364 -0.3531 -0.1874
   12SAPS   H6Y 1559   0.541   0.731   7.096  1.3755  1.5858 -0.2693
   12SAPS   C37 1560   0.467   0.877   7.234  0.2229 -0.3411 -0.8540
   12SAPS   H7X 1561   0.440   0.804   7.313 -3.3968  1.2499 -0.4296
   12SAPS   H7Y 1562   0.382   0.948   7.232 -0.0279 -0.4712  1.6377
   12SAPS   C38 1563   0.603   0.948   7.247  0.3080 -0.1983  0.1495
   12SAPS   H8X 1564   0.611   1.026   7.168  0.0177  1.6782  1.8775
   12SAPS   H8Y 1565   0.686   0.879   7.221 -0.9038 -1.7247  0.2105
   12SAPS   C39 1566   0.637   0.987   7.395  1.0631  0.2668 -0.2886
   12SAPS   H9X 1567   0.633   0.898   7.462 -1.6142  1.6636  1.5689
   12SAPS   H9Y 1568   0.551   1.053   7.419  0.7177 -0.9229  2.1370
   12SAPS  C310 1569   0.773   1.058   7.409  1.4184 -0.2556  0.0097
   12SAPS  H10X 1570   0.779   1.138   7.332 -2.6364  0.1012 -0.1793
   12SAPS  H10Y 1571   0.858   0.986   7.403  0.1800 -1.8385  0.6810
   12SAPS  C311 1572   0.784   1.122   7.550  0.3318 -0.1248  0.4616
   12SAPS  H11X 1573   0.790   1.049   7.633 -2.7939 -0.2977  0.6466
   12SAPS  H11Y 1574   0.696   1.187   7.569  0.2518 -0.3766  0.9578
   12SAPS  C312 1575   0.911   1.220   7.549 -0.3500  0.3797 -0.0480
   12SAPS  H12X 1576   0.890   1.306   7.482 -0.9654 -0.0999 -0.4951
   12SAPS  H12Y 1577   0.991   1.150   7.517 -2.9560 -3.2871  0.7794
   12SAPS  C313 1578   0.928   1.269   7.693  0.0866 -0.7197 -0.3134
   12SAPS  H13X 1579   0.888   1.190   7.760  0.1692  0.4335  1.1183
   12SAPS  H13Y 1580   0.853   1.349   7.710 -0.2223 -1.3299  1.3459
   12SAPS  C314 1581   1.069   1.321   7.736  0.0348 -0.2759  0.1450
   12SAPS  H14X 1582   1.107   1.397   7.665 -1.1564 -0.1451 -0.3680
   12SAPS  H14Y 1583   1.138   1.234   7.726 -1.1522 -1.2547  0.3352
   12SAPS  C315 1584   1.076   1.359   7.881 -0.8159 -0.4975 -0.8501
   12SAPS  H15X 1585   0.998   1.302   7.937 -0.6373  0.8331  0.8436
   12SAPS  H15Y 1586   1.036   1.462   7.892 -0.9502 -0.4848 -1.4437
   12SAPS  C316 1587   1.213   1.340   7.960  0.6616 -0.5718 -0.5222
   12SAPS  H16X 1588   1.255   1.237   7.958  2.1075 -0.1851  2.9686
   12SAPS  H16Y 1589   1.186   1.371   8.063  0.6108  2.9426 -1.4579
   12SAPS  C317 1590   1.319   1.434   7.897  0.5022  0.5458  0.1659
   12SAPS  H17X 1591   1.330   1.420   7.788  3.1086  0.0226  0.4233
   12SAPS  H17Y 1592   1.416   1.404   7.943  0.7998  2.2629  0.7439
   12SAPS  C318 1593   1.294   1.582   7.919  0.0982 -0.2789 -0.1611
   12SAPS  H18X 1594   1.267   1.595   8.026 -0.1342 -1.6845 -0.0232
   12SAPS  H18Y 1595   1.210   1.608   7.851  0.6936 -0.4805 -0.9999
   12SAPS  H18Z 1596   1.386   1.637   7.892 -0.1940 -0.3997 -1.4789
   13SAPS     N 1597   5.650   5.095   5.969  0.3459 -0.2970  0.3382
   13SAPS   HN1 1598   5.568   5.078   6.032 -1.0491 -0.8622 -1.5316
   13SAPS   HN2 1599   5.619   5.057   5.877  2.3139  1.9158 -1.3491
   13SAPS   HN3 1600   5.735   5.050   6.008 -0.6370  0.9226  4.4369
   13SAPS   C12 1601   5.663   5.241   5.951  0.0241 -0.1362  0.1992
   13SAPS  H12A 1602   5.769   5.262   5.945 -0.1896  2.3079  2.7477
   13SAPS   C13 1603   5.586   5.278   5.827  0.1480  0.1805  0.0450
   13SAPS  O13A 1604   5.549   5.186   5.742  0.1190  0.2007 -0.3486
   13SAPS  O13B 1605   5.576   5.399   5.796 -0.5915  0.0833  0.8403
   13SAPS   C11 1606   5.603   5.303   6.077 -0.8414 -0.5293 -0.0665
   13SAPS  H11A 1607   5.615   5.411   6.053 -0.5405 -0.4953  0.2276
   13SAPS  H11B 1608   5.670   5.291   6.165 -0.7856 -0.5435 -0.1109
   13SAPS     P 1609   5.419   5.181   6.215 -0.1125  0.1746 -0.0143
   13SAPS   O13 1610   5.275   5.196   6.243 -0.3521  0.5271  0.1547
   13SAPS   O14 1611   5.465   5.044   6.168 -0.0037 -0.0624 -0.0994
   13SAPS   O12 1612   5.458   5.284   6.099 -0.0863 -0.1763  0.2002
   13SAPS   O11 1613   5.508   5.220   6.339 -0.1021 -0.5471  0.0833
   13SAPS    C1 1614   5.539   5.355   6.383  0.1379 -0.2998 -0.2191
   13SAPS    HA 1615   5.646   5.352   6.413  0.4626 -1.6054 -1.3746
   13SAPS    HB 1616   5.537   5.425   6.297 -0.0442 -0.5504 -0.4214
   13SAPS    C2 1617   5.450   5.417   6.495  0.2066  0.0731 -0.1466
   13SAPS    HS 1618   5.422   5.522   6.469  0.8759  0.0798 -0.8781
   13SAPS   O21 1619   5.518   5.406   6.619 -0.0184  0.1148  0.1023
   13SAPS   C21 1620   5.573   5.523   6.666 -0.1542  0.8502  1.0013
   13SAPS   O22 1621   5.583   5.622   6.595 -0.1025 -0.3810  0.0092
   13SAPS   C22 1622   5.639   5.502   6.803  0.1197 -0.2936  0.4101
   13SAPS   H2R 1623   5.555   5.520   6.873 -0.5236 -1.7300  0.0432
   13SAPS   H2S 1624   5.656   5.392   6.807  0.5275 -0.5244 -3.6084
   13SAPS    C3 1625   5.314   5.340   6.523 -0.2660 -0.1683 -0.1875
   13SAPS    HX 1626   5.347   5.236   6.541 -2.2606 -0.6407  1.0564
   13SAPS    HY 1627   5.268   5.351   6.422  4.0774 -2.1995 -2.6708
   13SAPS   O31 1628   5.241   5.406   6.629  0.0675 -0.4185  0.0408
   13SAPS   C31 1629   5.158   5.506   6.588 -0.6547  0.6147 -0.2376
   13SAPS   O32 1630   5.126   5.527   6.473  0.0858  0.2996 -0.7084
   13SAPS   C32 1631   5.101   5.590   6.695  0.0353 -0.7851 -0.0664
   13SAPS   H2X 1632   5.127   5.543   6.792 -1.4073 -3.0406 -0.7192
   13SAPS   H2Y 1633   4.991   5.575   6.692  0.1486 -1.4780 -1.0595
   13SAPS   C23 1634   5.770   5.588   6.821  0.2735 -0.0792 -0.5590
   13SAPS   H3R 1635   5.757   5.694   6.791  1.5732  0.3141  0.2025
   13SAPS   H3S 1636   5.848   5.543   6.756  1.5339  1.1608  0.0590
   13SAPS   C24 1637   5.818   5.568   6.971  0.4396 -0.3531 -0.2502
   13SAPS   H4R 1638   5.923   5.602   6.982  0.4468 -0.9187  1.7119
   13SAPS   H4S 1639   5.838   5.459   6.975 -2.1208 -1.0145 -2.4774
   13SAPS   C25 1640   5.723   5.612   7.083  0.2348 -0.0486  0.4120
   13SAPS   H5R 1641   5.676   5.712   7.074 -2.1276 -1.0610  0.6110
   13SAPS   C26 1642   5.666   5.538   7.183  0.1650 -0.3960 -0.1988
   13SAPS   H6R 1643   5.611   5.599   7.256  2.5207 -0.0576  1.3800
   13SAPS   C27 1644   5.682   5.393   7.223 -0.1173 -0.1780  0.6443
   13SAPS   H7R 1645   5.760   5.336   7.167 -2.1858 -1.7272 -0.8311
   13SAPS   H7S 1646   5.587   5.337   7.215 -0.2233  0.1701 -0.8708
   13SAPS   C28 1647   5.732   5.377   7.365  0.1116 -0.8349 -0.1810
   13SAPS   H8R 1648   5.839   5.354   7.375  0.5922  0.6055 -1.5837
   13SAPS   C29 1649   5.653   5.397   7.470 -0.3370 -0.0626 -0.4896
   13SAPS   H9R 1650   5.689   5.378   7.572 -2.8024 -0.6083  0.3375
   13SAPS  C210 1651   5.506   5.432   7.480 -0.6888 -0.3432 -0.0073
   13SAPS  H10R 1652   5.461   5.469   7.385 -0.9354  0.1976  0.3152
   13SAPS  H10S 1653   5.501   5.515   7.555  3.1731  1.0097 -1.0561
   13SAPS  C211 1654   5.426   5.311   7.525  0.0848 -0.1413  0.0956
   13SAPS  H11R 1655   5.458   5.210   7.496 -1.2914 -1.1212  1.8091
   13SAPS  C212 1656   5.310   5.320   7.595  0.3017 -0.0053 -0.9525
   13SAPS  H12R 1657   5.257   5.224   7.605 -1.5852  1.0548 -0.1942
   13SAPS  C213 1658   5.239   5.446   7.639 -0.5080  0.0419 -0.1327
   13SAPS  H13R 1659   5.183   5.491   7.554 -0.8097 -1.0883 -0.5467
   13SAPS  H13S 1660   5.319   5.516   7.672 -1.0444  0.6281 -0.0656
   13SAPS  C214 1661   5.140   5.431   7.749 -0.7974 -0.1628 -0.9758
   13SAPS  H14R 1662   5.033   5.430   7.720 -2.1072  0.2588  3.1741
   13SAPS  C215 1663   5.158   5.444   7.885 -0.5893  0.0232 -0.0049
   13SAPS  H15R 1664   5.069   5.435   7.948 -0.5414  0.3813  0.1175
   13SAPS  C216 1665   5.289   5.466   7.958 -0.9872 -0.2664  0.2095
   13SAPS  H16R 1666   5.292   5.565   8.009  1.7202  1.0387 -2.1675
   13SAPS  H16S 1667   5.371   5.449   7.885 -0.1608 -3.2925  1.6769
   13SAPS  C217 1668   5.304   5.358   8.071  0.0331 -0.6181 -0.9218
   13SAPS  H17R 1669   5.218   5.373   8.140  0.7769  0.3399 -0.1772
   13SAPS  H17S 1670   5.401   5.362   8.126 -0.9283  0.6497  0.7724
   13SAPS  C218 1671   5.301   5.209   8.004 -0.4090  0.5103 -1.3105
   13SAPS  H18R 1672   5.383   5.203   7.930 -0.5461  0.7029 -1.4815
   13SAPS  H18S 1673   5.202   5.198   7.954 -2.4732  2.5191  1.9364
   13SAPS  C219 1674   5.321   5.102   8.121  0.5925 -0.0773 -0.2644
   13SAPS  H19R 1675   5.317   5.002   8.072  0.9599 -0.9511  1.4272
   13SAPS  H19S 1676   5.237   5.124   8.190  2.9244  3.4913  1.7545
   13SAPS  C220 1677   5.451   5.106   8.197  0.0006 -0.5000 -0.1672
   13SAPS  H20R 1678   5.534   5.079   8.128  0.1524  0.5961 -0.4336
   13SAPS  H20S 1679   5.454   5.044   8.290 -1.2894  1.0536  0.9611
   13SAPS  H20T 1680   5.465   5.208   8.240 -4.1908 -1.0298  3.1748
   13SAPS   C33 1681   5.145   5.740   6.680  0.1953  0.1909  0.5856
   13SAPS   H3X 1682   5.090   5.810   6.747  0.3408 -0.0761  0.9952
   13SAPS   H3Y 1683   5.124   5.769   6.575 -0.9784 -0.7848  0.5283
   13SAPS   C34 1684   5.293   5.763   6.698  0.2323 -0.4019 -0.0996
   13SAPS   H4X 1685   5.317   5.869   6.676  1.3573 -0.6897 -0.3265
   13SAPS   H4Y 1686   5.349   5.705   6.621 -2.2270 -0.3487 -2.0208
   13SAPS   C35 1687   5.356   5.715   6.834  0.5368 -0.2604 -0.0066
   13SAPS   H5X 1688   5.462   5.747   6.839  0.1773  0.8379  1.7066
   13SAPS   H5Y 1689   5.349   5.604   6.832 -1.1517 -0.1741 -0.5766
   13SAPS   C36 1690   5.284   5.769   6.958  0.0467  0.6792  0.4275
   13SAPS   H6X 1691   5.187   5.716   6.964  0.8452 -0.7118  2.0403
   13SAPS   H6Y 1692   5.286   5.880   6.959  0.4760  0.6759  0.2297
   13SAPS   C37 1693   5.350   5.719   7.087  0.2122 -0.4353 -0.3014
   13SAPS   H7X 1694   5.456   5.752   7.086  0.0044  0.2978  0.4374
   13SAPS   H7Y 1695   5.344   5.609   7.105 -1.1667 -0.2313  0.6949
   13SAPS   C38 1696   5.289   5.782   7.214 -0.6392  0.3168  0.5138
   13SAPS   H8X 1697   5.187   5.746   7.239 -1.4585  0.4486 -2.3113
   13SAPS   H8Y 1698   5.282   5.892   7.200 -0.4413  0.1532 -1.1483
   13SAPS   C39 1699   5.382   5.774   7.344 -0.2848 -0.1570  0.2071
   13SAPS   H9X 1700   5.482   5.817   7.322  0.4754 -0.3935  2.9059
   13SAPS   H9Y 1701   5.396   5.667   7.371 -1.6496 -0.7877 -1.3487
   13SAPS  C310 1702   5.322   5.855   7.464 -0.4852  0.3404 -0.6095
   13SAPS  H10X 1703   5.222   5.813   7.487 -0.0787 -0.5122 -0.3331
   13SAPS  H10Y 1704   5.318   5.965   7.448 -0.1919  0.7028  1.5661
   13SAPS  C311 1705   5.417   5.837   7.585  0.1906  0.4127  0.5049
   13SAPS  H11X 1706   5.526   5.841   7.565  0.5293 -1.8138  1.5485
   13SAPS  H11Y 1707   5.404   5.735   7.627  2.5071 -0.7845 -1.4102
   13SAPS  C312 1708   5.380   5.932   7.706  0.0602 -0.4919 -0.1288
   13SAPS  H12X 1709   5.387   6.037   7.671 -1.4894  0.7247  2.8695
   13SAPS  H12Y 1710   5.475   5.927   7.764  0.5273  2.6594 -0.4324
   13SAPS  C313 1711   5.263   5.899   7.790 -0.0487 -0.9751 -0.2369
   13SAPS  H13X 1712   5.301   5.813   7.850  1.8053 -0.3256 -0.4205
   13SAPS  H13Y 1713   5.184   5.858   7.724  0.2009 -0.0172 -1.1470
   13SAPS  C314 1714   5.207   6.009   7.870  0.6289 -0.6900 -0.0947
   13SAPS  H14X 1715   5.198   6.096   7.801  3.5374  1.1409  1.6317
   13SAPS  H14Y 1716   5.289   6.037   7.939  1.4100  0.2836 -1.3814
   13SAPS  C315 1717   5.071   5.978   7.937 -0.0582  0.4716  0.2231
   13SAPS  H15X 1718   4.992   5.973   7.860  0.9240 -1.1416 -0.7356
   13SAPS  H15Y 1719   5.060   6.069   8.001  0.2888 -0.9797  2.4560
   13SAPS  C316 1720   5.067   5.850   8.015  0.4455  0.6063 -0.1239
   13SAPS  H16X 1721   5.065   5.758   7.952  1.0696 -0.8360  1.8449
   13SAPS  H16Y 1722   4.971   5.841   8.069 -1.4279 -1.6016 -3.4639
   13SAPS  C317 1723   5.173   5.824   8.133  0.1953  1.0753 -0.3911
   13SAPS  H17X 1724   5.263   5.795   8.075 -0.0230 -0.6836  0.1067
   13SAPS  H17Y 1725   5.142   5.736   8.193  0.4704  0.3851 -1.2412
   13SAPS  C318 1726   5.206   5.935   8.231  0.8771  0.6456  0.2632
   13SAPS  H18X 1727   5.274   5.906   8.314 -0.4698 -2.1119  0.4918
   13SAPS  H18Y 1728   5.111   5.971   8.277  0.2899  0.8058 -1.0344
   13SAPS  H18Z 1729   5.251   6.024   8.182  1.3440  0.3694  0.1796
   14SAPS     N 1730   0.868   1.604   5.923  0.0189 -0.1831  0.1135
   14SAPS   HN1 1731   0.816   1.611   5.833 -2.0348 -2.9671  0.9312
   14SAPS   HN2 1732   0.963   1.645   5.924 -0.8681  2.0151  0.0215
   14SAPS   HN3 1733   0.879   1.503   5.948  0.3897 -0.2688 -0.3804
   14SAPS   C12 1734   0.786   1.684   6.017 -0.4571  0.1274 -0.2640
   14SAPS  H12A 1735   0.824   1.672   6.118 -1.6005  1.5657  0.3883
   14SAPS   C13 1736   0.802   1.838   5.992  0.1374 -0.3543 -1.2554
   14SAPS  O13A 1737   0.893   1.881   5.918  0.0954 -0.6814  0.6534
   14SAPS  O13B 1738   0.746   1.918   6.080 -0.4968  0.5059  0.0842
   14SAPS   C11 1739   0.636   1.653   6.001 -0.4110 -0.3441  0.1362
   14SAPS  H11A 1740   0.571   1.720   6.061 -0.5354  0.1787 -0.5720
   14SAPS  H11B 1741   0.626   1.552   6.048  0.5460  0.6829  2.7541
   14SAPS     P 1742   0.461   1.629   5.817 -0.1957  0.2073 -0.1150
   14SAPS   O13 1743   0.407   1.740   5.737 -0.3324 -0.5908  0.0145
   14SAPS   O14 1744   0.456   1.487   5.774  0.3722 -0.1182  0.0167
   14SAPS   O12 1745   0.610   1.661   5.860  0.0545  0.2302  0.1269
   14SAPS   O11 1746   0.376   1.620   5.949  0.2949  0.1452 -0.3528
   14SAPS    C1 1747   0.252   1.677   5.981 -0.0970 -0.3223  0.5839
   14SAPS    HA 1748   0.241   1.785   5.959  1.1161  0.0555  1.6933
   14SAPS    HB 1749   0.173   1.624   5.925  0.2066 -0.3934  0.2230
   14SAPS    C2 1750   0.236   1.673   6.134  0.1108  0.0640  0.7244
   14SAPS    HS 1751   0.142   1.720   6.170  0.5000  1.8131 -0.4309
   14SAPS   O21 1752   0.338   1.744   6.199  0.0570 -0.2908 -0.4098
   14SAPS   C21 1753   0.319   1.881   6.203  0.4734  0.2420  0.4039
   14SAPS   O22 1754   0.222   1.946   6.160 -0.1943  0.0520  0.5873
   14SAPS   C22 1755   0.449   1.948   6.252 -0.5565 -0.0650  0.3568
   14SAPS   H2R 1756   0.517   1.868   6.287  1.5268  0.9296 -1.1737
   14SAPS   H2S 1757   0.496   1.979   6.156 -3.5362 -0.9343 -1.4977
   14SAPS    C3 1758   0.231   1.526   6.192  0.0964  0.4035 -0.2887
   14SAPS    HX 1759   0.324   1.485   6.149 -0.3285  1.2208 -2.0825
   14SAPS    HY 1760   0.148   1.471   6.142  0.9136 -0.1246 -1.0774
   14SAPS   O31 1761   0.225   1.519   6.340 -0.0792 -0.7551 -0.5206
   14SAPS   C31 1762   0.105   1.533   6.400 -0.0181 -0.0853 -0.5902
   14SAPS   O32 1763  -0.003   1.551   6.349 -0.4617 -0.1040 -0.4273
   14SAPS   C32 1764   0.130   1.514   6.547 -0.2471  0.1870  0.2540
   14SAPS   H2X 1765   0.232   1.551   6.569  0.7270 -0.5544 -2.5218
   14SAPS   H2Y 1766   0.126   1.405   6.571 -1.4585 -0.4502 -2.4434
   14SAPS   C23 1767   0.423   2.069   6.338 -0.2411  0.0171 -0.2381
   14SAPS   H3R 1768   0.332   2.128   6.315 -0.7029  0.5603  2.5908
   14SAPS   H3S 1769   0.512   2.135   6.329 -1.2989  1.4749 -0.4888
   14SAPS   C24 1770   0.413   2.043   6.492 -0.5535  0.2718  0.2192
   14SAPS   H4R 1771   0.380   2.143   6.529 -0.2891  0.8217 -1.0078
   14SAPS   H4S 1772   0.514   2.018   6.530 -1.3624 -3.1136  0.4507
   14SAPS   C25 1773   0.312   1.942   6.531  0.6192  0.5732  0.2125
   14SAPS   H5R 1774   0.340   1.837   6.514 -1.2128  0.1103 -0.1976
   14SAPS   C26 1775   0.193   1.965   6.584  0.5543  0.6465 -0.0059
   14SAPS   H6R 1776   0.133   1.878   6.615  1.8830 -1.2166 -2.3219
   14SAPS   C27 1777   0.131   2.102   6.611 -0.5678 -0.2318  0.3339
   14SAPS   H7R 1778   0.023   2.095   6.585 -0.7050 -2.4959  1.3310
   14SAPS   H7S 1779   0.177   2.184   6.551 -0.7158 -1.1005 -1.0243
   14SAPS   C28 1780   0.153   2.139   6.757  0.3402 -0.3613 -0.0893
   14SAPS   H8R 1781   0.257   2.124   6.788  0.2317 -0.9052  0.0147
   14SAPS   C29 1782   0.059   2.182   6.852 -0.3009 -0.8330  0.8617
   14SAPS   H9R 1783   0.094   2.204   6.954 -1.1011  0.6722  0.8476
   14SAPS  C210 1784  -0.087   2.201   6.829 -0.4224  0.1056  0.5090
   14SAPS  H10R 1785  -0.107   2.213   6.720 -1.2767 -0.4519  0.5923
   14SAPS  H10S 1786  -0.123   2.295   6.875  0.0975 -0.2882  1.7566
   14SAPS  C211 1787  -0.177   2.090   6.867  0.4640  0.2780 -0.2370
   14SAPS  H11R 1788  -0.185   2.014   6.788  1.7246  0.0889 -0.1975
   14SAPS  C212 1789  -0.259   2.082   6.978 -0.3844  0.0280  0.8463
   14SAPS  H12R 1790  -0.317   1.990   6.997 -1.1400  0.5004  0.8419
   14SAPS  C213 1791  -0.265   2.173   7.090 -0.2006  0.6562 -0.2566
   14SAPS  H13R 1792  -0.275   2.277   7.051 -0.3799  2.5753  4.2960
   14SAPS  H13S 1793  -0.167   2.178   7.143  0.7158  0.6198 -1.8688
   14SAPS  C214 1794  -0.386   2.154   7.175 -0.1333 -0.1833 -0.1217
   14SAPS  H14R 1795  -0.477   2.136   7.115 -1.3494 -0.2339  1.6523
   14SAPS  C215 1796  -0.395   2.153   7.307  0.5861 -0.9617  0.3751
   14SAPS  H15R 1797  -0.497   2.151   7.348  1.2080 -0.4569  2.0212
   14SAPS  C216 1798  -0.291   2.175   7.409 -0.0327 -0.2524 -0.4270
   14SAPS  H16R 1799  -0.268   2.284   7.416  2.0827 -0.5707 -1.6196
   14SAPS  H16S 1800  -0.205   2.113   7.376 -1.3643 -3.0753  1.0790
   14SAPS  C217 1801  -0.324   2.149   7.555  0.0423 -0.6459 -0.0168
   14SAPS  H17R 1802  -0.357   2.044   7.566  1.5267 -0.8989  3.1032
   14SAPS  H17S 1803  -0.403   2.220   7.589  0.8919 -0.4309  1.5865
   14SAPS  C218 1804  -0.200   2.151   7.649  0.5594 -0.1570  0.4747
   14SAPS  H18R 1805  -0.157   2.253   7.644 -1.1910  0.5377 -1.4124
   14SAPS  H18S 1806  -0.127   2.070   7.625 -0.5557 -0.6979 -1.3557
   14SAPS  C219 1807  -0.239   2.139   7.799  0.6007  0.1244  0.0559
   14SAPS  H19R 1808  -0.312   2.057   7.813  1.6582 -0.8693 -0.0974
   14SAPS  H19S 1809  -0.288   2.235   7.826 -2.0870 -1.1914  0.1325
   14SAPS  C220 1810  -0.113   2.126   7.886  0.1478 -0.4429 -0.8263
   14SAPS  H20R 1811  -0.076   2.022   7.890  2.8998  0.4491 -1.3442
   14SAPS  H20S 1812  -0.131   2.175   7.984  1.4172  1.7305 -1.5956
   14SAPS  H20T 1813  -0.029   2.179   7.836 -0.4350  0.6910 -0.6342
   14SAPS   C33 1814   0.022   1.585   6.636 -0.4539  0.2933  0.0613
   14SAPS   H3X 1815  -0.077   1.538   6.614 -1.2367  1.4985  0.9003
   14SAPS   H3Y 1816   0.009   1.692   6.609  0.1423  0.2321 -0.4974
   14SAPS   C34 1817   0.044   1.580   6.786 -0.7765 -0.2166  0.8919
   14SAPS   H4X 1818   0.152   1.586   6.811 -0.2611  1.0944 -1.3773
   14SAPS   H4Y 1819   0.011   1.484   6.831 -1.2525 -0.7738 -0.5969
   14SAPS   C35 1820  -0.046   1.681   6.860  0.0382  0.2064 -0.2045
   14SAPS   H5X 1821  -0.154   1.663   6.838  0.4294  0.5621 -2.6631
   14SAPS   H5Y 1822  -0.009   1.784   6.840  0.9696 -0.0039  0.3739
   14SAPS   C36 1823  -0.032   1.669   7.014 -0.1142  0.3819  0.4542
   14SAPS   H6X 1824   0.077   1.668   7.036 -0.5902  0.6391  3.1536
   14SAPS   H6Y 1825  -0.076   1.572   7.044  1.4366 -0.6814 -0.5289
   14SAPS   C37 1826  -0.102   1.793   7.075  0.5517 -0.1982 -0.7793
   14SAPS   H7X 1827  -0.199   1.801   7.023  0.7681 -0.8195 -1.2900
   14SAPS   H7Y 1828  -0.058   1.893   7.052  0.5821  0.0153  0.1412
   14SAPS   C38 1829  -0.134   1.783   7.223  0.4210 -0.9176 -0.7775
   14SAPS   H8X 1830  -0.217   1.711   7.238 -1.2127  1.1180  0.6586
   14SAPS   H8Y 1831  -0.165   1.882   7.263 -3.9465 -1.4164 -2.3450
   14SAPS   C39 1832  -0.022   1.719   7.309  0.2976  1.0459 -0.5044
   14SAPS   H9X 1833   0.072   1.778   7.301  1.0500 -0.2307 -1.4658
   14SAPS   H9Y 1834   0.003   1.621   7.265 -1.2247  0.4701 -0.1445
   14SAPS  C310 1835  -0.077   1.710   7.456 -0.1148 -1.1906 -0.1132
   14SAPS  H10X 1836  -0.163   1.640   7.464 -0.8346 -0.1281  2.0880
   14SAPS  H10Y 1837  -0.104   1.811   7.495  0.8494 -0.7309 -0.6006
   14SAPS  C311 1838   0.030   1.662   7.553  0.3364 -0.5417 -0.4464
   14SAPS  H11X 1839   0.111   1.736   7.542 -1.8847  2.1490  0.1043
   14SAPS  H11Y 1840   0.069   1.566   7.514 -0.3682 -0.1341 -2.2367
   14SAPS  C312 1841  -0.022   1.657   7.701  0.1846  0.4530 -0.0152
   14SAPS  H12X 1842  -0.079   1.564   7.719 -0.7107  0.3348 -2.8833
   14SAPS  H12Y 1843  -0.094   1.741   7.714 -1.2545 -0.9939  1.9170
   14SAPS  C313 1844   0.084   1.664   7.814 -0.5323 -0.0691 -0.4162
   14SAPS  H13X 1845   0.147   1.574   7.797  0.9984  0.8513  0.1917
   14SAPS  H13Y 1846   0.042   1.644   7.915 -0.6402 -3.0804 -0.9717
   14SAPS  C314 1847   0.175   1.779   7.813  0.4544  0.0245 -0.0736
   14SAPS  H14X 1848   0.112   1.867   7.784  0.9080 -1.2148 -6.2648
   14SAPS  H14Y 1849   0.245   1.759   7.729  0.5812 -1.9426  0.4554
   14SAPS  C315 1850   0.234   1.817   7.950  0.0060 -0.6699 -0.2971
   14SAPS  H15X 1851   0.160   1.803   8.031  0.8549 -0.3502  0.5564
   14SAPS  H15Y 1852   0.270   1.922   7.957 -1.4438 -0.2640  2.5659
   14SAPS  C316 1853   0.349   1.720   7.995  1.0998  0.1201  0.0692
   14SAPS  H16X 1854   0.420   1.698   7.913 -1.9786 -1.5408 -2.3730
   14SAPS  H16Y 1855   0.304   1.619   8.008 -1.4891  1.4062  1.9795
   14SAPS  C317 1856   0.420   1.755   8.130 -0.1150 -0.6273  0.0676
   14SAPS  H17X 1857   0.486   1.672   8.164  0.8362  0.2077  0.3122
   14SAPS  H17Y 1858   0.336   1.778   8.199 -0.6508  0.6872 -0.9858
   14SAPS  C318 1859   0.497   1.885   8.110 -1.1525  0.0174  0.8187
   14SAPS  H18X 1860   0.549   1.875   8.012 -0.5178 -1.0176  1.2569
   14SAPS  H18Y 1861   0.576   1.904   8.185  1.3729 -0.3036 -1.5984
   14SAPS  H18Z 1862   0.436   1.977   8.093  0.6816  1.3005  0.8992
   15SAPS     N 1863   0.133   2.106   5.973  0.3946 -0.3826  0.2369
   15SAPS   HN1 1864   0.150   2.042   5.892 -1.4027 -3.2915  1.9524
   15SAPS   HN2 1865   0.152   2.052   6.060  1.4456  0.0543  0.2850
   15SAPS   HN3 1866   0.029   2.114   5.971  0.2753 -1.0680  1.7781
   15SAPS   C12 1867   0.208   2.231   5.965 -0.1053 -0.3176 -0.0002
   15SAPS  H12A 1868   0.311   2.211   5.992  0.2175 -0.6595 -1.4239
   15SAPS   C13 1869   0.205   2.300   5.829  0.3716 -1.0866 -0.1358
   15SAPS  O13A 1870   0.132   2.260   5.738 -0.0741 -0.2679 -0.4776
   15SAPS  O13B 1871   0.281   2.400   5.824 -0.6562  0.3802  0.8972
   15SAPS   C11 1872   0.159   2.329   6.080 -0.3085  0.2858  0.0078
   15SAPS  H11A 1873   0.227   2.417   6.077  0.8099 -0.5644 -1.9416
   15SAPS  H11B 1874   0.178   2.275   6.176 -2.5093  1.3423  1.1098
   15SAPS     P 1875  -0.032   2.477   6.131  0.3597 -0.0817 -0.1560
   15SAPS   O13 1876   0.048   2.592   6.102 -0.5650  0.1212  0.3343
   15SAPS   O14 1877  -0.181   2.479   6.094 -0.1951 -0.6635  0.1129
   15SAPS   O12 1878   0.022   2.355   6.058  0.5272 -0.2927 -0.1387
   15SAPS   O11 1879  -0.025   2.437   6.291 -0.1126 -0.6814  0.2204
   15SAPS    C1 1880  -0.062   2.319   6.355 -0.4147  0.0335  0.6150
   15SAPS    HA 1881  -0.043   2.236   6.283  0.3714 -1.0374  1.9877
   15SAPS    HB 1882   0.005   2.297   6.441  0.4622  1.3392  0.2795
   15SAPS    C2 1883  -0.206   2.328   6.410 -1.2403 -0.4162  0.1551
   15SAPS    HS 1884  -0.267   2.381   6.335  0.1163  1.0794  0.0564
   15SAPS   O21 1885  -0.208   2.392   6.533  0.3149 -0.2398 -0.3819
   15SAPS   C21 1886  -0.327   2.443   6.563 -0.2378  0.1873  0.4266
   15SAPS   O22 1887  -0.424   2.461   6.493 -0.1402  0.1219 -0.2094
   15SAPS   C22 1888  -0.336   2.487   6.713  0.4247 -0.5407  0.0712
   15SAPS   H2R 1889  -0.282   2.406   6.767  0.7140  0.0342  0.6548
   15SAPS   H2S 1890  -0.285   2.585   6.723  0.2311 -0.2868 -1.2154
   15SAPS    C3 1891  -0.251   2.179   6.425 -0.2317 -0.6063  0.0960
   15SAPS    HX 1892  -0.181   2.120   6.487 -0.1358  0.1076  0.6731
   15SAPS    HY 1893  -0.253   2.123   6.329  2.1736 -0.2726 -0.2116
   15SAPS   O31 1894  -0.383   2.173   6.481 -0.0985  0.6848 -0.1992
   15SAPS   C31 1895  -0.429   2.046   6.519  0.3215 -1.0489  0.5358
   15SAPS   O32 1896  -0.357   1.951   6.526  0.2181 -0.1189  0.4847
   15SAPS   C32 1897  -0.571   2.058   6.577  0.1436  0.7911 -0.1504
   15SAPS   H2X 1898  -0.627   1.962   6.565 -1.8770  1.9003 -0.0058
   15SAPS   H2Y 1899  -0.624   2.137   6.520  1.7384  1.8577 -0.2031
   15SAPS   C23 1900  -0.489   2.506   6.754 -0.2540  0.4784 -0.4400
   15SAPS   H3R 1901  -0.543   2.409   6.747 -1.3045  1.1238 -1.7123
   15SAPS   H3S 1902  -0.545   2.569   6.682 -2.2974 -2.7629 -1.8675
   15SAPS   C24 1903  -0.506   2.557   6.897 -0.5285  0.0347  0.0913
   15SAPS   H4R 1904  -0.599   2.505   6.929  1.2612 -1.5495  3.1742
   15SAPS   H4S 1905  -0.513   2.668   6.898  2.1771  0.2945 -1.0458
   15SAPS   C25 1906  -0.412   2.502   7.000  0.0213 -0.5953 -0.0222
   15SAPS   H5R 1907  -0.306   2.495   6.973  0.2239 -0.8310  0.7931
   15SAPS   C26 1908  -0.439   2.479   7.130 -0.3797 -1.2029  0.0815
   15SAPS   H6R 1909  -0.362   2.445   7.199  0.6112  0.5840 -0.0878
   15SAPS   C27 1910  -0.574   2.507   7.195  0.1565 -0.0975 -0.5889
   15SAPS   H7R 1911  -0.649   2.425   7.199 -0.7822  0.6495 -2.0162
   15SAPS   H7S 1912  -0.626   2.579   7.129  0.8625  1.7797  0.7959
   15SAPS   C28 1913  -0.564   2.572   7.341  0.4571  0.2903 -0.1337
   15SAPS   H8R 1914  -0.511   2.668   7.350  1.9813 -0.4330 -1.0145
   15SAPS   C29 1915  -0.604   2.511   7.453  0.4927 -0.1699  0.0422
   15SAPS   H9R 1916  -0.606   2.555   7.554 -1.1096 -1.2987  0.5412
   15SAPS  C210 1917  -0.678   2.377   7.466 -0.1012 -0.0659  0.2034
   15SAPS  H10R 1918  -0.620   2.320   7.541  0.9315  0.5071 -0.1467
   15SAPS  H10S 1919  -0.676   2.313   7.376 -0.4188 -1.6778  1.2965
   15SAPS  C211 1920  -0.826   2.391   7.511  0.7838 -0.4979  0.0897
   15SAPS  H11R 1921  -0.890   2.403   7.423  1.2194  0.7086 -0.0805
   15SAPS  C212 1922  -0.886   2.385   7.632  0.1806 -0.2266  0.6265
   15SAPS  H12R 1923  -0.995   2.394   7.633 -0.0363 -1.8786 -1.1564
   15SAPS  C213 1924  -0.831   2.362   7.770  0.0622 -0.3722  0.2783
   15SAPS  H13R 1925  -0.872   2.432   7.846 -0.0505 -1.1094  0.9074
   15SAPS  H13S 1926  -0.720   2.368   7.769  0.0419  0.0864  0.5635
   15SAPS  C214 1927  -0.863   2.221   7.822 -0.1930 -0.0107  0.6083
   15SAPS  H14R 1928  -0.869   2.144   7.744  0.4118  2.3356 -1.9307
   15SAPS  C215 1929  -0.862   2.184   7.951  0.0956 -0.7075  0.3710
   15SAPS  H15R 1930  -0.905   2.087   7.979 -1.6143 -0.5311 -1.4496
   15SAPS  C216 1931  -0.835   2.274   8.076 -0.9958 -0.3503 -0.0624
   15SAPS  H16R 1932  -0.920   2.277   8.149 -1.2159  0.8681 -0.3339
   15SAPS  H16S 1933  -0.811   2.379   8.048  2.3559 -0.1930  2.7089
   15SAPS  C217 1934  -0.723   2.234   8.171  0.5526 -0.0053  0.4694
   15SAPS  H17R 1935  -0.738   2.134   8.216  1.0065 -0.3696 -0.1783
   15SAPS  H17S 1936  -0.724   2.312   8.250  0.7741 -2.0763  2.6437
   15SAPS  C218 1937  -0.585   2.237   8.094 -0.9543  0.1821  0.1868
   15SAPS  H18R 1938  -0.589   2.321   8.022  0.5755 -0.2951 -0.4979
   15SAPS  H18S 1939  -0.568   2.150   8.028  0.0994 -0.2962  1.0606
   15SAPS  C219 1940  -0.459   2.256   8.178 -0.5484 -0.3308 -0.5300
   15SAPS  H19R 1941  -0.461   2.358   8.224  1.4094 -0.6545  0.4084
   15SAPS  H19S 1942  -0.370   2.253   8.110  0.2140  0.1625  0.4155
   15SAPS  C220 1943  -0.435   2.143   8.278 -0.1841  0.3291 -0.4728
   15SAPS  H20R 1944  -0.532   2.115   8.324  0.5759 -0.9916  0.3952
   15SAPS  H20S 1945  -0.354   2.161   8.353 -0.4879  0.1300 -0.0883
   15SAPS  H20T 1946  -0.411   2.054   8.216 -2.2256 -2.2228  2.1092
   15SAPS   C33 1947  -0.571   2.094   6.721  0.1249  0.4342 -0.1431
   15SAPS   H3X 1948  -0.491   2.167   6.742  0.5386  0.1118 -0.5803
   15SAPS   H3Y 1949  -0.558   2.010   6.793  1.5430 -1.2868 -2.2897
   15SAPS   C34 1950  -0.710   2.158   6.780 -0.5048  0.3660  0.8093
   15SAPS   H4X 1951  -0.785   2.080   6.755 -0.1482  0.2101  0.2075
   15SAPS   H4Y 1952  -0.728   2.246   6.713  1.3739  0.9500  1.0248
   15SAPS   C35 1953  -0.695   2.182   6.930  0.1314 -0.2235 -0.3524
   15SAPS   H5X 1954  -0.766   2.265   6.950 -0.6342 -1.0305  0.3815
   15SAPS   H5Y 1955  -0.597   2.207   6.974 -0.7018 -0.1800  1.5885
   15SAPS   C36 1956  -0.761   2.062   7.010 -0.2993 -0.5387  0.1051
   15SAPS   H6X 1957  -0.686   1.982   7.027 -0.4489 -0.9454 -1.0262
   15SAPS   H6Y 1958  -0.841   2.011   6.951  0.3733  1.2703 -2.5307
   15SAPS   C37 1959  -0.806   2.113   7.148  0.0198  0.1396  0.2630
   15SAPS   H7X 1960  -0.886   2.189   7.130  0.6666  0.6820 -0.3614
   15SAPS   H7Y 1961  -0.726   2.152   7.214  0.4881 -1.2779  0.5513
   15SAPS   C38 1962  -0.880   1.993   7.219 -0.2641 -0.2066  0.1772
   15SAPS   H8X 1963  -0.817   1.905   7.191  2.8792  2.3579 -1.4870
   15SAPS   H8Y 1964  -0.979   1.983   7.171 -0.7824  0.8949  0.9961
   15SAPS   C39 1965  -0.900   2.013   7.364 -0.2678 -0.1460 -0.4715
   15SAPS   H9X 1966  -0.955   2.108   7.380 -0.0351  0.2339 -1.8413
   15SAPS   H9Y 1967  -0.804   2.024   7.419 -1.5940 -0.5694  2.0821
   15SAPS  C310 1968  -0.980   1.902   7.430 -0.3399 -0.5339 -0.2872
   15SAPS  H10X 1969  -0.924   1.807   7.417  0.7887 -0.2632  2.1078
   15SAPS  H10Y 1970  -1.083   1.896   7.389 -0.2114  0.1015 -0.7242
   15SAPS  C311 1971  -0.994   1.908   7.575  0.2598  1.1438 -0.0150
   15SAPS  H11X 1972  -1.046   2.005   7.594 -1.8341  0.4703 -1.9862
   15SAPS  H11Y 1973  -0.891   1.912   7.617  0.9645 -2.3367 -1.1493
   15SAPS  C312 1974  -1.079   1.784   7.617 -0.4055  0.5848 -0.6738
   15SAPS  H12X 1975  -1.021   1.690   7.604  0.1668  0.8077  0.1499
   15SAPS  H12Y 1976  -1.172   1.780   7.556  0.1519  0.1066 -1.5057
   15SAPS  C313 1977  -1.130   1.791   7.766  0.1103 -0.2777  0.3084
   15SAPS  H13X 1978  -1.192   1.704   7.797 -0.3309 -0.0784  0.0048
   15SAPS  H13Y 1979  -1.193   1.883   7.768  1.1119  0.4183  1.8950
   15SAPS  C314 1980  -1.018   1.809   7.863  0.8151  0.0197 -0.2232
   15SAPS  H14X 1981  -0.968   1.907   7.843  0.5747  0.4085  0.9964
   15SAPS  H14Y 1982  -0.937   1.742   7.827 -0.0150 -1.5849  0.8138
   15SAPS  C315 1983  -1.056   1.801   8.014 -0.0047  0.1431  0.8606
   15SAPS  H15X 1984  -0.968   1.787   8.081 -0.1755 -2.0943  0.6940
   15SAPS  H15Y 1985  -1.120   1.712   8.035  1.3806 -1.0929  0.0887
   15SAPS  C316 1986  -1.137   1.923   8.061  0.2356 -0.5464  0.2464
   15SAPS  H16X 1987  -1.246   1.916   8.039  0.6256  0.2882 -2.2349
   15SAPS  H16Y 1988  -1.100   2.020   8.023 -2.3436  0.5208  0.2108
   15SAPS  C317 1989  -1.115   1.958   8.207  0.2662  0.1101 -0.5094
   15SAPS  H17X 1990  -1.004   1.969   8.213  0.1265  1.2618  0.1101
   15SAPS  H17Y 1991  -1.142   1.878   8.279 -0.6615  1.1761  0.3456
   15SAPS  C318 1992  -1.172   2.081   8.261  0.0138 -0.2388  0.6652
   15SAPS  H18X 1993  -1.111   2.114   8.348  1.4304 -1.7556  0.2856
   15SAPS  H18Y 1994  -1.281   2.070   8.283 -0.7819  0.0952 -2.5955
   15SAPS  H18Z 1995  -1.160   2.160   8.183 -1.4946 -2.6236 -2.1757
   16SAPS     N 1996   3.347   2.918   6.119 -0.1851 -0.2104 -0.3411
   16SAPS   HN1 1997   3.278   2.920   6.197 -2.2423 -1.1272 -2.0477
   16SAPS   HN2 1998   3.290   2.898   6.035 -2.2157  0.3026  0.8377
   16SAPS   HN3 1999   3.421   2.849   6.142  1.0793  0.5622 -1.9129
   16SAPS   C12 2000   3.399   3.057   6.090 -0.4071  0.5267  0.3454
   16SAPS  H12A 2001   3.492   3.043   6.037 -0.7487 -0.9799  0.1110
   16SAPS   C13 2002   3.319   3.143   5.989 -0.2852 -0.3240  0.2333
   16SAPS  O13A 2003   3.201   3.110   5.953  0.0568  0.7043 -0.0606
   16SAPS  O13B 2004   3.364   3.255   5.944  0.2222 -0.2286 -0.6757
   16SAPS   C11 2005   3.422   3.132   6.231  0.4079 -0.2410 -0.1232
   16SAPS  H11A 2006   3.492   3.218   6.224  0.7640 -0.4296  0.9026
   16SAPS  H11B 2007   3.473   3.071   6.308 -0.1813  0.6798  1.0148
   16SAPS     P 2008   3.217   3.115   6.384 -0.2061 -0.1651 -0.3087
   16SAPS   O13 2009   3.108   3.204   6.433 -0.3625  0.5685  0.4747
   16SAPS   O14 2010   3.181   2.981   6.338 -0.3217  0.1343  0.5632
   16SAPS   O12 2011   3.298   3.193   6.272  0.5293 -0.5778  0.1859
   16SAPS   O11 2012   3.332   3.098   6.495  0.1401 -0.1976 -0.1857
   16SAPS    C1 2013   3.415   3.199   6.552 -0.0522  0.3894  0.9746
   16SAPS    HA 2014   3.520   3.168   6.531 -0.2056 -0.6956  1.7610
   16SAPS    HB 2015   3.398   3.294   6.496 -0.4706 -0.1515  0.1706
   16SAPS    C2 2016   3.383   3.219   6.705 -0.0243  0.6718 -0.6351
   16SAPS    HS 2017   3.434   3.311   6.741  1.2936  0.0423 -0.8355
   16SAPS   O21 2018   3.421   3.101   6.784 -0.5507 -0.5846  0.5491
   16SAPS   C21 2019   3.550   3.087   6.801 -0.3415 -0.0381  0.0300
   16SAPS   O22 2020   3.638   3.158   6.753  0.0452  0.3300 -0.0818
   16SAPS   C22 2021   3.576   2.967   6.894 -1.0186  0.3886 -0.4550
   16SAPS   H2R 2022   3.509   2.972   6.982  2.5763 -0.1873  2.5932
   16SAPS   H2S 2023   3.558   2.872   6.838 -0.3738 -0.9227  1.4580
   16SAPS    C3 2024   3.223   3.249   6.725 -0.3040 -0.1698 -0.7807
   16SAPS    HX 2025   3.181   3.150   6.697  1.0010 -0.7693 -0.7031
   16SAPS    HY 2026   3.202   3.326   6.648 -2.0159  1.9834  1.6756
   16SAPS   O31 2027   3.188   3.298   6.856  0.7417  0.0686  0.2008
   16SAPS   C31 2028   3.061   3.331   6.873  0.2771  0.0805 -0.0507
   16SAPS   O32 2029   2.966   3.328   6.799  0.3695 -0.1371  0.7998
   16SAPS   C32 2030   3.052   3.372   7.015 -0.1109 -0.0558  0.3500
   16SAPS   H2X 2031   3.150   3.407   7.054  1.1759 -1.8317 -1.1036
   16SAPS   H2Y 2032   3.018   3.289   7.081 -0.3615  1.1114  1.7538
   16SAPS   C23 2033   3.725   2.964   6.947 -0.4589  0.2934 -0.6430
   16SAPS   H3R 2034   3.799   2.987   6.867 -1.4437 -1.3158 -2.0968
   16SAPS   H3S 2035   3.738   2.858   6.977  0.1968  0.0560 -1.6935
   16SAPS   C24 2036   3.765   3.057   7.065  0.6004  0.1675 -0.7618
   16SAPS   H4R 2037   3.876   3.054   7.064  0.5825 -0.4477 -0.9562
   16SAPS   H4S 2038   3.737   3.015   7.164  0.4178 -1.3447 -1.4291
   16SAPS   C25 2039   3.716   3.202   7.053 -0.5239  0.2143 -0.4499
   16SAPS   H5R 2040   3.775   3.258   6.980  2.8792 -2.7154 -0.2291
   16SAPS   C26 2041   3.604   3.255   7.113 -0.7233 -0.4727 -0.1697
   16SAPS   H6R 2042   3.578   3.360   7.095 -0.0308  0.3730  3.1670
   16SAPS   C27 2043   3.515   3.173   7.200 -0.1602 -0.6283 -0.0905
   16SAPS   H7R 2044   3.560   3.149   7.299 -0.7145  3.0203  1.2078
   16SAPS   H7S 2045   3.498   3.076   7.149 -0.2415  0.1460 -1.5932
   16SAPS   C28 2046   3.372   3.234   7.227  0.2602 -0.0395 -0.5621
   16SAPS   H8R 2047   3.319   3.273   7.139 -1.4352 -3.5679 -1.2953
   16SAPS   C29 2048   3.303   3.237   7.343 -0.2685 -0.4053  0.0301
   16SAPS   H9R 2049   3.225   3.315   7.343 -0.7813 -0.9099 -0.0170
   16SAPS  C210 2050   3.341   3.180   7.480 -0.2494  0.3011 -0.7039
   16SAPS  H10R 2051   3.374   3.076   7.458 -1.1710 -0.4358  1.1980
   16SAPS  H10S 2052   3.254   3.174   7.549  2.0540  0.8630  2.4477
   16SAPS  C211 2053   3.455   3.257   7.550 -0.2721 -0.2653 -0.1846
   16SAPS  H11R 2054   3.547   3.282   7.494  0.6438 -0.3755  1.2265
   16SAPS  C212 2055   3.464   3.271   7.681 -0.5188 -0.0419  0.0958
   16SAPS  H12R 2056   3.553   3.315   7.728 -1.4666  1.4863  0.5025
   16SAPS  C213 2057   3.366   3.219   7.780 -0.0339  0.2991 -0.1824
   16SAPS  H13R 2058   3.399   3.213   7.886 -2.4663  0.4301  0.6481
   16SAPS  H13S 2059   3.331   3.117   7.754  0.9875  0.5707 -2.8828
   16SAPS  C214 2060   3.240   3.300   7.784  0.1013 -0.2903 -0.3593
   16SAPS  H14R 2061   3.229   3.357   7.691  0.1931 -0.8803 -0.7343
   16SAPS  C215 2062   3.159   3.315   7.893  0.0412 -0.0348 -0.4628
   16SAPS  H15R 2063   3.068   3.375   7.880  0.9638  1.3467 -0.7639
   16SAPS  C216 2064   3.179   3.258   8.028  0.1880  0.2847 -0.8125
   16SAPS  H16R 2065   3.228   3.159   8.020 -0.7720 -0.3150  0.4262
   16SAPS  H16S 2066   3.080   3.234   8.072  0.2382  0.3631 -0.6532
   16SAPS  C217 2067   3.255   3.351   8.126  0.1798  0.0816  0.1851
   16SAPS  H17R 2068   3.201   3.444   8.150 -2.1639 -0.4744 -2.3356
   16SAPS  H17S 2069   3.346   3.376   8.067 -0.6913  0.0334 -1.2359
   16SAPS  C218 2070   3.289   3.276   8.253  0.8704 -0.4313 -0.2034
   16SAPS  H18R 2071   3.377   3.320   8.305  0.2818  0.0048  0.4495
   16SAPS  H18S 2072   3.310   3.169   8.233 -2.6435 -1.1017 -0.9983
   16SAPS  C219 2073   3.169   3.263   8.359 -0.4673  0.3084 -0.2571
   16SAPS  H19R 2074   3.085   3.210   8.310 -0.6406 -0.6867  1.0652
   16SAPS  H19S 2075   3.131   3.367   8.370  0.2999  0.4716  1.1012
   16SAPS  C220 2076   3.214   3.211   8.495 -0.3378 -0.1574 -0.1633
   16SAPS  H20R 2077   3.241   3.298   8.559 -0.0850 -0.3283 -0.0357
   16SAPS  H20S 2078   3.308   3.152   8.485 -0.3501 -0.0481 -0.9848
   16SAPS  H20T 2079   3.134   3.152   8.545 -0.9168 -0.2237 -1.1259
   16SAPS   C33 2080   2.948   3.476   7.047 -0.4426  0.2425  0.3239
   16SAPS   H3X 2081   2.853   3.450   6.996  0.5149 -0.9308 -0.9097
   16SAPS   H3Y 2082   2.981   3.579   7.020 -0.6944  0.1652 -0.2847
   16SAPS   C34 2083   2.905   3.503   7.193 -0.2053 -0.0278 -0.3675
   16SAPS   H4X 2084   2.997   3.516   7.254  0.2446 -0.3661 -0.9566
   16SAPS   H4Y 2085   2.862   3.405   7.225  1.8018  0.0934  3.1950
   16SAPS   C35 2086   2.808   3.610   7.222 -0.7837 -0.1405 -0.2579
   16SAPS   H5X 2087   2.708   3.564   7.211 -0.6906 -0.2618 -0.6334
   16SAPS   H5Y 2088   2.832   3.685   7.143  2.1381 -1.9940 -1.3278
   16SAPS   C36 2089   2.827   3.681   7.358 -0.4681 -0.4083  0.1655
   16SAPS   H6X 2090   2.750   3.761   7.355  0.1516  0.1785 -2.6751
   16SAPS   H6Y 2091   2.928   3.726   7.366 -0.7229  0.0799  0.7206
   16SAPS   C37 2092   2.814   3.595   7.480  0.0983 -0.1345 -0.6771
   16SAPS   H7X 2093   2.904   3.533   7.496  0.3582  0.5225  0.5974
   16SAPS   H7Y 2094   2.727   3.526   7.470  0.4961 -0.7259 -0.1281
   16SAPS   C38 2095   2.814   3.688   7.598 -0.0336  0.1969 -0.1640
   16SAPS   H8X 2096   2.727   3.756   7.588 -0.6150 -0.5655 -0.4201
   16SAPS   H8Y 2097   2.901   3.756   7.586 -1.1149  1.1656 -3.5529
   16SAPS   C39 2098   2.795   3.620   7.736 -0.6385 -0.7194 -0.5741
   16SAPS   H9X 2099   2.890   3.564   7.750 -0.3652 -0.2055 -0.3551
   16SAPS   H9Y 2100   2.725   3.539   7.706 -0.6500 -0.4409 -1.3461
   16SAPS  C310 2101   2.748   3.721   7.845 -0.6397  1.1638 -0.3177
   16SAPS  H10X 2102   2.641   3.750   7.839 -0.6411  0.9655 -1.6051
   16SAPS  H10Y 2103   2.802   3.817   7.832 -2.0080  2.0143  0.1031
   16SAPS  C311 2104   2.759   3.665   7.993 -0.0916 -0.4050 -0.1069
   16SAPS  H11X 2105   2.862   3.636   8.023 -1.1266 -1.6783  2.4913
   16SAPS  H11Y 2106   2.696   3.574   7.984 -0.5938 -0.0770  0.0783
   16SAPS  C312 2107   2.714   3.764   8.095  0.5237 -0.3765 -0.2506
   16SAPS  H12X 2108   2.605   3.788   8.092  0.8466  1.6265  1.5803
   16SAPS  H12Y 2109   2.765   3.861   8.083  1.4989 -1.0421 -1.6459
   16SAPS  C313 2110   2.735   3.696   8.231  0.0208 -0.4209 -0.7598
   16SAPS  H13X 2111   2.839   3.656   8.230  0.4605  0.6694 -0.6273
   16SAPS  H13Y 2112   2.651   3.627   8.253  0.6070 -0.7954  0.3973
   16SAPS  C314 2113   2.706   3.785   8.353 -0.4126 -0.8918 -0.5762
   16SAPS  H14X 2114   2.790   3.858   8.360 -0.1766 -1.2529  0.5149
   16SAPS  H14Y 2115   2.703   3.725   8.446  0.1244 -1.5765 -0.9970
   16SAPS  C315 2116   2.573   3.861   8.346  1.2287 -0.1538  0.6610
   16SAPS  H15X 2117   2.497   3.808   8.286  2.8649  0.7082 -2.4144
   16SAPS  H15Y 2118   2.589   3.958   8.294 -1.9667 -1.3175 -2.9364
   16SAPS  C316 2119   2.509   3.889   8.488  0.4341  0.5251 -0.4501
   16SAPS  H16X 2120   2.564   3.966   8.546 -1.8551  0.7548  1.5459
   16SAPS  H16Y 2121   2.513   3.794   8.545 -1.9889  1.1124  0.8123
   16SAPS  C317 2122   2.364   3.941   8.484 -0.6077 -0.2460 -0.3257
   16SAPS  H17X 2123   2.313   3.852   8.440  0.5353 -0.1408 -1.9427
   16SAPS  H17Y 2124   2.359   4.028   8.415 -0.4228 -0.2629 -0.3590
   16SAPS  C318 2125   2.300   3.982   8.622 -0.5375  0.2112  0.7242
   16SAPS  H18X 2126   2.299   3.886   8.679 -0.4474 -1.0953 -1.3561
   16SAPS  H18Y 2127   2.200   4.027   8.606 -0.1081  0.9306  0.0308
   16SAPS  H18Z 2128   2.370   4.053   8.671 -0.1657 -0.3697  1.0420
   17SAPC     N 2129   0.986   1.517  10.505 -0.5067  0.4900  0.0513
   17SAPC   C12 2130   1.025   1.435  10.385  0.6554 -0.3191  0.2935
   17SAPC  H12A 2131   1.047   1.334  10.418 -1.6922 -0.3248  2.0930
   17SAPC  H12B 2132   1.102   1.485  10.328 -0.4121  2.9187  1.4907
   17SAPC   C13 2133   0.911   1.644  10.470 -0.0883  0.5588  0.2496
   17SAPC  H13A 2134   0.908   1.714  10.552 -1.4623 -1.8954  2.4621
   17SAPC  H13B 2135   0.967   1.686  10.388  1.3191 -0.9851  0.3616
   17SAPC  H13C 2136   0.811   1.617  10.440 -0.7402 -0.0948  2.7624
   17SAPC   C14 2137   0.891   1.444  10.602 -0.3028 -0.2940  0.1946
   17SAPC  H14A 2138   0.803   1.430  10.540  1.0559 -3.8420 -1.1941
   17SAPC  H14B 2139   0.943   1.358  10.640  0.6739 -0.4256 -1.3567
   17SAPC  H14C 2140   0.876   1.509  10.688  1.0274  2.8769 -1.7995
   17SAPC   C15 2141   1.101   1.557  10.589 -0.2136 -1.3522  0.1148
   17SAPC  H15A 2142   1.165   1.478  10.625 -0.6227 -1.0438  1.5859
   17SAPC  H15B 2143   1.166   1.618  10.529 -2.4731  0.5161 -0.6135
   17SAPC  H15C 2144   1.068   1.610  10.677  0.2152 -0.8665 -0.0147
   17SAPC   C11 2145   0.916   1.419  10.273  0.4041  0.0446 -0.4449
   17SAPC  H11A 2146   0.955   1.349  10.197 -1.9917 -0.4562 -1.2885
   17SAPC  H11B 2147   0.902   1.520  10.228 -1.6146 -0.3723 -0.8064
   17SAPC     P 2148   0.747   1.234  10.352 -0.3107  0.5352 -0.5409
   17SAPC   O13 2149   0.864   1.155  10.390  0.8644  0.1255 -0.6205
   17SAPC   O14 2150   0.631   1.242  10.442  0.4679 -0.1370 -0.0062
   17SAPC   O12 2151   0.790   1.378  10.313  0.7349  0.0212 -0.1848
   17SAPC   O11 2152   0.688   1.164  10.224  0.6549  0.8151 -0.2406
   17SAPC    C1 2153   0.700   1.218  10.094 -0.2561 -0.1427 -0.5332
   17SAPC    HA 2154   0.793   1.275  10.071  0.4470 -1.3144 -0.6838
   17SAPC    HB 2155   0.683   1.134  10.024 -0.0105  0.9183 -1.9082
   17SAPC    C2 2156   0.584   1.317  10.073 -0.1730 -0.7666 -0.4254
   17SAPC    HS 2157   0.590   1.384  10.161  0.4798 -0.2367 -0.8676
   17SAPC   O21 2158   0.456   1.237  10.056  0.4927  0.0506  0.1196
   17SAPC   C21 2159   0.353   1.318  10.071  0.1675  0.2137  0.6009
   17SAPC   O22 2160   0.358   1.433  10.110  0.0934 -0.3859 -0.0907
   17SAPC   C22 2161   0.218   1.243  10.051 -0.6892  0.4005  1.3449
   17SAPC   H2R 2162   0.245   1.149   9.999 -2.2063  0.5646  0.2362
   17SAPC   H2S 2163   0.183   1.220  10.154 -2.6874 -1.5321  0.3010
   17SAPC    C3 2164   0.617   1.411   9.945 -0.0836 -0.0240  0.3029
   17SAPC    HX 2165   0.708   1.466   9.977  1.1163 -1.3527 -0.7060
   17SAPC    HY 2166   0.539   1.486   9.919  1.1299  0.8636 -0.9228
   17SAPC   O31 2167   0.662   1.334   9.827  0.9223  0.1256  0.1787
   17SAPC   C31 2168   0.573   1.292   9.745  0.3158 -0.3185  0.3664
   17SAPC   O32 2169   0.449   1.310   9.756 -0.2662 -0.1389 -0.0486
   17SAPC   C32 2170   0.635   1.220   9.624 -0.4215  0.1513 -0.2487
   17SAPC   H2X 2171   0.702   1.136   9.652 -2.0579 -1.6912 -1.6201
   17SAPC   H2Y 2172   0.709   1.291   9.580 -0.3489  2.4252  3.1273
   17SAPC   C23 2173   0.120   1.325   9.976  0.2254  0.3800  0.6351
   17SAPC   H3R 2174   0.147   1.348   9.871  0.9833  1.7210  1.0881
   17SAPC   H3S 2175   0.109   1.426  10.021  0.5555 -0.1815  2.0142
   17SAPC   C24 2176  -0.015   1.248   9.980  0.6281 -0.0748  0.6650
   17SAPC   H4R 2177  -0.094   1.315   9.940 -1.4476 -2.1424  1.0866
   17SAPC   H4S 2178  -0.037   1.240  10.089 -1.7467 -1.1249  0.1518
   17SAPC   C25 2179  -0.020   1.110   9.918 -0.0616 -0.2268  0.4915
   17SAPC   H5R 2180   0.018   1.037   9.991 -0.8521 -2.1001 -0.8949
   17SAPC   C26 2181  -0.071   1.076   9.797  0.2684 -0.3238  0.9551
   17SAPC   H6R 2182  -0.072   0.972   9.763  2.3099  0.3593 -1.4913
   17SAPC   C27 2183  -0.131   1.181   9.695  0.3385 -0.0533 -0.6358
   17SAPC   H7R 2184  -0.057   1.263   9.684 -0.0558  0.2647 -0.8860
   17SAPC   H7S 2185  -0.230   1.218   9.728  0.6340  0.4906 -0.3354
   17SAPC   C28 2186  -0.157   1.121   9.558 -0.2430  0.4221  0.7349
   17SAPC   H8R 2187  -0.264   1.097   9.546 -0.2724 -0.5493  2.5629
   17SAPC   C29 2188  -0.064   1.085   9.469  0.1369  0.4914  0.4307
   17SAPC   H9R 2189  -0.096   1.061   9.367  2.0595  0.8583 -0.2977
   17SAPC  C210 2190   0.091   1.088   9.469 -0.1798 -0.2242  0.0820
   17SAPC  H10R 2191   0.110   1.064   9.363 -0.7747  0.6647 -0.2415
   17SAPC  H10S 2192   0.134   1.006   9.529  1.6443 -2.0257 -3.4119
   17SAPC  C211 2193   0.147   1.222   9.509 -0.4861  0.1665 -0.6759
   17SAPC  H11R 2194   0.194   1.231   9.608  2.2020  1.2975 -1.9537
   17SAPC  C212 2195   0.164   1.325   9.436  0.0638  0.2925  0.5608
   17SAPC  H12R 2196   0.212   1.413   9.481  0.1237  0.6388 -0.1606
   17SAPC  C213 2197   0.125   1.322   9.291 -0.6850 -0.0411 -0.4759
   17SAPC  H13R 2198   0.015   1.315   9.281 -0.6037  0.0408 -1.5741
   17SAPC  H13S 2199   0.149   1.226   9.240  3.5572  1.1532 -1.1142
   17SAPC  C214 2200   0.173   1.439   9.200  0.3968  0.2751 -0.1584
   17SAPC  H14R 2201   0.169   1.528   9.265  0.4442  1.2802 -1.4840
   17SAPC  C215 2202   0.215   1.441   9.069 -0.3871  0.2007 -0.9485
   17SAPC  H15R 2203   0.209   1.538   9.018 -4.5041 -0.5086 -2.1654
   17SAPC  C216 2204   0.225   1.320   8.977 -0.1396  0.0265  0.2236
   17SAPC  H16R 2205   0.140   1.249   8.984 -0.1826  0.0825  0.2727
   17SAPC  H16S 2206   0.317   1.260   8.994 -0.7495 -1.2106 -0.6848
   17SAPC  C217 2207   0.232   1.367   8.826  0.9881 -0.7589  0.1779
   17SAPC  H17R 2208   0.314   1.442   8.820  0.6406 -0.4723 -1.6892
   17SAPC  H17S 2209   0.144   1.428   8.796  1.0353  1.4293  3.8626
   17SAPC  C218 2210   0.260   1.247   8.736  0.6601 -0.5603 -0.6220
   17SAPC  H18R 2211   0.174   1.180   8.753 -1.7612  2.7300  1.4583
   17SAPC  H18S 2212   0.352   1.194   8.771 -0.0279 -1.4969 -0.1918
   17SAPC  C219 2213   0.273   1.274   8.586  0.3117 -0.5578 -0.1616
   17SAPC  H19R 2214   0.351   1.352   8.569 -1.3652  1.2393 -0.0216
   17SAPC  H19S 2215   0.170   1.315   8.572  0.9643  1.0860 -0.4645
   17SAPC  C220 2216   0.302   1.148   8.506 -0.1475 -0.7424  0.0314
   17SAPC  H20R 2217   0.259   1.174   8.407  0.2060 -0.7890 -0.1335
   17SAPC  H20S 2218   0.248   1.055   8.535 -0.7614 -0.4411 -0.1300
   17SAPC  H20T 2219   0.410   1.121   8.499  0.0191  0.3316 -2.7685
   17SAPC   C33 2220   0.538   1.190   9.514 -0.0104 -0.7289 -0.3457
   17SAPC   H3X 2221   0.470   1.275   9.495  0.0624  0.0124  2.2712
   17SAPC   H3Y 2222   0.473   1.111   9.557  2.3240 -1.8928  1.2579
   17SAPC   C34 2223   0.612   1.151   9.384  0.3236 -0.3797 -0.2163
   17SAPC   H4X 2224   0.684   1.068   9.403  2.3846  1.7448  1.8958
   17SAPC   H4Y 2225   0.667   1.243   9.353  1.2831 -0.1877  1.8939
   17SAPC   C35 2226   0.506   1.133   9.275 -0.0789  0.4762  0.4911
   17SAPC   H5X 2227   0.431   1.215   9.277  0.1027  0.6341  1.7502
   17SAPC   H5Y 2228   0.462   1.032   9.293  0.7438  0.1878  0.9449
   17SAPC   C36 2229   0.569   1.125   9.132 -0.4473 -0.3367 -0.2850
   17SAPC   H6X 2230   0.493   1.087   9.060 -1.3990 -0.2730  0.6655
   17SAPC   H6Y 2231   0.655   1.054   9.130  0.7355  1.0354  0.6895
   17SAPC   C37 2232   0.618   1.261   9.072 -0.1253  0.4827  0.2714
   17SAPC   H7X 2233   0.725   1.282   9.095  0.8956 -2.1307 -1.5839
   17SAPC   H7Y 2234   0.545   1.330   9.120 -0.5670 -0.5010  1.0402
   17SAPC   C38 2235   0.607   1.264   8.916  0.5554  0.1499  0.2216
   17SAPC   H8X 2236   0.509   1.239   8.868  0.3860  0.0578  0.6127
   17SAPC   H8Y 2237   0.671   1.180   8.882 -1.2639 -1.0705 -0.3529
   17SAPC   C39 2238   0.650   1.398   8.867  0.3533  0.0490  0.1644
   17SAPC   H9X 2239   0.760   1.409   8.881  0.4333 -0.6681  0.1196
   17SAPC   H9Y 2240   0.601   1.476   8.930  2.2178 -2.2699  4.9825
   17SAPC  C310 2241   0.621   1.404   8.721  0.0019  0.1126 -0.1444
   17SAPC  H10X 2242   0.516   1.435   8.701  0.0589 -0.5582 -1.6103
   17SAPC  H10Y 2243   0.649   1.302   8.686 -0.1130  0.1717 -0.4058
   17SAPC  C311 2244   0.705   1.505   8.644  0.4056 -0.6879 -0.0730
   17SAPC  H11X 2245   0.806   1.512   8.689 -0.3221 -0.9586  1.6521
   17SAPC  H11Y 2246   0.658   1.604   8.661 -0.8859 -1.2192 -0.3733
   17SAPC  C312 2247   0.718   1.490   8.498  0.3944  0.3456  0.5979
   17SAPC  H12X 2248   0.619   1.473   8.449  0.1650 -0.6446  1.3811
   17SAPC  H12Y 2249   0.770   1.396   8.471 -1.2496 -0.3822 -0.2157
   17SAPC  C313 2250   0.785   1.610   8.430  0.6655  0.2532  0.9208
   17SAPC  H13X 2251   0.876   1.631   8.490  1.8583 -1.6718 -0.0959
   17SAPC  H13Y 2252   0.712   1.692   8.444 -1.6438 -1.6159  0.5198
   17SAPC  C314 2253   0.798   1.587   8.280 -0.2899  0.1534  0.5727
   17SAPC  H14X 2254   0.696   1.574   8.239  0.2250  1.1969 -1.1297
   17SAPC  H14Y 2255   0.864   1.503   8.252 -0.0033  1.4975 -3.4391
   17SAPC  C315 2256   0.846   1.710   8.206  0.2676  0.1266  0.0212
   17SAPC  H15X 2257   0.947   1.735   8.244  1.5224  0.8905 -3.4760
   17SAPC  H15Y 2258   0.785   1.797   8.236 -0.3544 -0.9807  2.1789
   17SAPC  C316 2259   0.866   1.682   8.056  0.2445 -0.3619  0.0440
   17SAPC  H16X 2260   0.777   1.623   8.028 -0.4035  0.5380  0.1565
   17SAPC  H16Y 2261   0.955   1.616   8.054  1.0855  0.6595 -3.5851
   17SAPC  C317 2262   0.881   1.799   7.959  0.3946 -0.4273 -0.9489
   17SAPC  H17X 2263   0.974   1.853   7.987 -0.2215  1.0715 -1.6375
   17SAPC  H17Y 2264   0.791   1.862   7.980  0.0484 -1.2588  0.1337
   17SAPC  C318 2265   0.886   1.756   7.811 -0.5502 -0.1433  0.2738
   17SAPC  H18X 2266   0.880   1.841   7.739  0.3294  0.7740  1.2638
   17SAPC  H18Y 2267   0.988   1.714   7.796 -1.1594 -1.4628 -0.3039
   17SAPC  H18Z 2268   0.809   1.681   7.784 -1.5184  1.5809 -2.1341
   18SAPC     N 2269   6.352   6.785  10.745  0.1461  0.3211  0.2677
   18SAPC   C12 2270   6.497   6.808  10.717 -0.4114  0.2031 -0.6638
   18SAPC  H12A 2271   6.551   6.716  10.728  2.2338  1.7766  0.4912
   18SAPC  H12B 2272   6.535   6.871  10.797 -0.5726 -0.9084  0.3182
   18SAPC   C13 2273   6.345   6.709  10.871 -0.4120 -0.3923  0.4667
   18SAPC  H13A 2274   6.243   6.693  10.902  0.0805 -1.7963  1.5039
   18SAPC  H13B 2275   6.406   6.620  10.871 -0.1868 -0.2740  2.2914
   18SAPC  H13C 2276   6.387   6.773  10.946  2.2173  1.5729 -2.4252
   18SAPC   C14 2277   6.272   6.914  10.752  0.1981  0.5816  0.0342
   18SAPC  H14A 2278   6.269   6.959  10.653  3.8274  0.7995 -0.1258
   18SAPC  H14B 2279   6.170   6.895  10.780 -0.5760 -1.3475 -3.4494
   18SAPC  H14C 2280   6.316   6.987  10.818  1.8184  0.4153 -0.8105
   18SAPC   C15 2281   6.287   6.678  10.651  0.0874  0.4821 -1.1175
   18SAPC  H15A 2282   6.188   6.650  10.686  1.7339 -2.7706  1.5154
   18SAPC  H15B 2283   6.278   6.736  10.561  1.2420  1.3093 -0.7182
   18SAPC  H15C 2284   6.343   6.586  10.645 -0.5866 -0.0492  0.1810
   18SAPC   C11 2285   6.535   6.866  10.585 -0.2708 -0.3743  0.5787
   18SAPC  H11A 2286   6.482   6.818  10.500  2.4834  0.2174 -1.6345
   18SAPC  H11B 2287   6.643   6.844  10.573 -0.2244 -0.9902  1.9696
   18SAPC     P 2288   6.533   7.092  10.456 -0.2017 -0.0972  0.2417
   18SAPC   O13 2289   6.470   7.221  10.490 -0.0609 -0.0319 -0.4150
   18SAPC   O14 2290   6.678   7.094  10.422  0.1598 -0.0034 -0.5053
   18SAPC   O12 2291   6.516   7.005  10.590 -0.1978 -0.0232  0.1765
   18SAPC   O11 2292   6.447   7.017  10.338 -0.5258 -0.2358  0.2308
   18SAPC    C1 2293   6.307   6.997  10.338 -0.4507 -0.0283  0.0621
   18SAPC    HA 2294   6.287   6.888  10.340 -1.9139  0.2325  0.5934
   18SAPC    HB 2295   6.260   7.039  10.429  0.3927 -0.6556  0.8105
   18SAPC    C2 2296   6.249   7.057  10.207  0.3036  0.0164  0.5306
   18SAPC    HS 2297   6.138   7.045  10.204  0.4932 -2.7170 -2.8932
   18SAPC   O21 2298   6.306   7.007  10.083 -1.0313  0.2492 -0.1832
   18SAPC   C21 2299   6.266   6.885  10.049  0.0333  0.8097 -0.3313
   18SAPC   O22 2300   6.184   6.814  10.108  0.0368 -0.1938 -0.3157
   18SAPC   C22 2301   6.330   6.847   9.912  0.4444 -1.1869  0.5517
   18SAPC   H2R 2302   6.420   6.906   9.886 -0.3777  0.3478  1.0637
   18SAPC   H2S 2303   6.363   6.741   9.919 -0.5210 -1.6899 -1.5738
   18SAPC    C3 2304   6.263   7.212  10.212 -0.2185  0.4513  0.7610
   18SAPC    HX 2305   6.370   7.237  10.192 -0.4129  0.6859 -0.0225
   18SAPC    HY 2306   6.250   7.257  10.313 -1.0239 -0.5905  1.1445
   18SAPC   O31 2307   6.189   7.279  10.110 -0.5635 -0.3272 -0.6072
   18SAPC   C31 2308   6.091   7.358  10.149  0.1448  0.2014 -0.3739
   18SAPC   O32 2309   6.054   7.373  10.262  0.5539  0.1771  0.5603
   18SAPC   C32 2310   6.033   7.417  10.019 -0.0599  0.4338  0.2085
   18SAPC   H2X 2311   5.929   7.448  10.042 -0.0693  0.0231  0.7405
   18SAPC   H2Y 2312   6.042   7.341   9.938  2.2275  1.0205 -0.1578
   18SAPC   C23 2313   6.237   6.857   9.790  0.2965 -0.1720  0.1253
   18SAPC   H3R 2314   6.139   6.806   9.797 -0.2590  0.9978  1.3117
   18SAPC   H3S 2315   6.289   6.811   9.703 -0.3222  1.9217 -1.4405
   18SAPC   C24 2316   6.201   7.003   9.739 -0.3942  0.2923 -0.6202
   18SAPC   H4R 2317   6.175   7.050   9.836 -2.8717 -3.7544  0.9347
   18SAPC   H4S 2318   6.114   7.012   9.670  0.4930  3.1504 -1.5114
   18SAPC   C25 2319   6.320   7.079   9.680  0.0265  0.7654  0.8597
   18SAPC   H5R 2320   6.403   7.087   9.752 -1.4928  1.2973  2.6225
   18SAPC   C26 2321   6.337   7.131   9.557  0.7398 -0.9998  0.0929
   18SAPC   H6R 2322   6.426   7.186   9.523 -1.3367  1.5504 -1.5917
   18SAPC   C27 2323   6.240   7.134   9.443 -0.4371 -0.4826 -0.3186
   18SAPC   H7R 2324   6.290   7.200   9.368 -0.0157 -0.1733  0.2218
   18SAPC   H7S 2325   6.147   7.187   9.470 -2.2479 -2.5402 -2.1476
   18SAPC   C28 2326   6.207   7.001   9.380 -0.1316  0.2477 -0.6804
   18SAPC   H8R 2327   6.195   6.913   9.445 -2.5999  0.1523 -1.1832
   18SAPC   C29 2328   6.172   6.985   9.253  0.0567  0.1681 -0.3605
   18SAPC   H9R 2329   6.174   6.885   9.208 -0.5813 -0.1040  0.2005
   18SAPC  C210 2330   6.169   7.088   9.145 -0.2965 -0.2931 -0.1323
   18SAPC  H10R 2331   6.174   7.194   9.178  1.4566  0.0961 -1.5210
   18SAPC  H10S 2332   6.070   7.083   9.094  0.3163 -2.5706 -1.2324
   18SAPC  C211 2333   6.261   7.072   9.034  0.2320 -0.4099  0.6218
   18SAPC  H11R 2334   6.260   6.974   8.985  1.9798  0.1190 -0.5704
   18SAPC  C212 2335   6.337   7.163   8.976  0.4264  0.4598  0.0171
   18SAPC  H12R 2336   6.396   7.133   8.888 -0.1579 -1.2132  0.1631
   18SAPC  C213 2337   6.349   7.310   9.018  0.5018  0.2826  0.0463
   18SAPC  H13R 2338   6.454   7.347   9.005  1.7895 -2.3288  2.0284
   18SAPC  H13S 2339   6.334   7.323   9.127 -2.4827 -0.6353 -0.1821
   18SAPC  C214 2340   6.249   7.398   8.945 -0.5913  0.1322  0.2022
   18SAPC  H14R 2341   6.150   7.402   8.994 -1.1852 -3.0413 -0.5502
   18SAPC  C215 2342   6.269   7.457   8.823 -0.4484  0.3484  0.3044
   18SAPC  H15R 2343   6.198   7.530   8.781  0.5618 -0.3914 -2.9993
   18SAPC  C216 2344   6.394   7.425   8.746 -0.3325 -0.7077 -0.5254
   18SAPC  H16R 2345   6.471   7.358   8.790  0.1724 -1.4679 -2.4403
   18SAPC  H16S 2346   6.444   7.523   8.734  0.4935 -1.2352 -1.6485
   18SAPC  C217 2347   6.373   7.369   8.602  0.0869 -0.7804  0.6892
   18SAPC  H17R 2348   6.277   7.312   8.609  0.0599 -1.0724 -1.2938
   18SAPC  H17S 2349   6.464   7.311   8.574 -0.2692 -0.7504 -0.6399
   18SAPC  C218 2350   6.348   7.471   8.486  1.0562  0.5946 -0.4665
   18SAPC  H18R 2351   6.337   7.403   8.399  1.3204 -0.9615  0.6580
   18SAPC  H18S 2352   6.444   7.524   8.469  1.6741  0.0092  1.0188
   18SAPC  C219 2353   6.238   7.572   8.500 -0.1648 -0.7386  0.0675
   18SAPC  H19R 2354   6.281   7.671   8.474  1.3599 -1.7257 -1.3757
   18SAPC  H19S 2355   6.198   7.595   8.601 -0.8971 -0.2679 -0.3229
   18SAPC  C220 2356   6.114   7.552   8.417 -0.1685  0.2523 -0.0163
   18SAPC  H20R 2357   6.087   7.444   8.412 -1.9264  0.6855 -0.4068
   18SAPC  H20S 2358   6.124   7.584   8.311  3.2372  0.0077  0.1289
   18SAPC  H20T 2359   6.034   7.607   8.471 -1.1004  1.8368 -2.7784
   18SAPC   C33 2360   6.086   7.550   9.978  0.8310  0.4668 -0.2071
   18SAPC   H3X 2361   6.083   7.616  10.067 -0.7383  0.7955 -0.4833
   18SAPC   H3Y 2362   6.035   7.603   9.895 -0.3658  1.3325  1.0413
   18SAPC   C34 2363   6.234   7.538   9.938 -0.0311 -0.7123  0.1095
   18SAPC   H4X 2364   6.301   7.481  10.006  1.0944  0.3100 -0.1053
   18SAPC   H4Y 2365   6.273   7.642   9.937 -0.5511 -0.5180 -0.7477
   18SAPC   C35 2366   6.264   7.489   9.798 -0.7560  0.8906 -1.0797
   18SAPC   H5X 2367   6.210   7.392   9.794 -1.5660  1.1637  1.4773
   18SAPC   H5Y 2368   6.373   7.484   9.777 -0.5431  0.6212  0.0105
   18SAPC   C36 2369   6.203   7.562   9.673  0.8519  0.5067 -0.0434
   18SAPC   H6X 2370   6.226   7.669   9.658  0.9450  0.2787 -1.7873
   18SAPC   H6Y 2371   6.095   7.554   9.697  1.0186  1.1905  0.9513
   18SAPC   C37 2372   6.241   7.491   9.540 -0.4352  0.1308  0.0735
   18SAPC   H7X 2373   6.171   7.405   9.531  2.0582 -2.2140  1.6657
   18SAPC   H7Y 2374   6.347   7.458   9.530 -0.7077 -1.7587  2.5751
   18SAPC   C38 2375   6.209   7.567   9.413  0.8410 -0.5433 -0.4421
   18SAPC   H8X 2376   6.218   7.493   9.330 -3.5352 -1.7573 -0.1172
   18SAPC   H8Y 2377   6.286   7.643   9.389  1.5597 -0.6875  1.2866
   18SAPC   C39 2378   6.073   7.632   9.395  0.7691 -0.4829 -0.1067
   18SAPC   H9X 2379   6.062   7.727   9.452  0.4819 -2.2513  3.0256
   18SAPC   H9Y 2380   5.994   7.579   9.453 -1.7033  3.0355  0.1364
   18SAPC  C310 2381   6.024   7.655   9.253 -0.2618  0.0587 -0.1855
   18SAPC  H10X 2382   5.917   7.682   9.264  0.1088  1.2792  0.6477
   18SAPC  H10Y 2383   6.034   7.563   9.190  0.4825 -1.1981  1.6761
   18SAPC  C311 2384   6.094   7.771   9.192 -0.8446  0.5496  0.4241
   18SAPC  H11X 2385   6.201   7.742   9.193 -0.7852  0.4260 -2.3612
   18SAPC  H11Y 2386   6.075   7.863   9.253  0.5897  1.8906 -1.0789
   18SAPC  C312 2387   6.053   7.770   9.043  0.0792 -0.0474  0.4525
   18SAPC  H12X 2388   5.943   7.787   9.042 -0.5086 -3.1479  1.0283
   18SAPC  H12Y 2389   6.072   7.668   9.002 -0.0412 -0.2287  0.8360
   18SAPC  C313 2390   6.103   7.889   8.957  0.6657 -0.1837  0.0778
   18SAPC  H13X 2391   6.040   7.885   8.865 -1.6051  2.1658  1.3874
   18SAPC  H13Y 2392   6.210   7.874   8.932  0.9571  0.6353  0.7379
   18SAPC  C314 2393   6.070   8.033   9.013 -0.0424  0.2375  0.3499
   18SAPC  H14X 2394   6.111   8.051   9.115 -0.0950 -0.6466  0.5395
   18SAPC  H14Y 2395   5.961   8.050   9.029 -0.2735 -0.3847 -0.5080
   18SAPC  C315 2396   6.114   8.147   8.910  0.4893 -1.1133  0.3529
   18SAPC  H15X 2397   6.074   8.124   8.809 -0.6060 -0.7074  0.6760
   18SAPC  H15Y 2398   6.225   8.149   8.913  0.5382  2.4305  1.5095
   18SAPC  C316 2399   6.062   8.284   8.961 -0.2967 -0.1621  0.2698
   18SAPC  H16X 2400   6.071   8.283   9.071 -0.5169  1.3469  0.3311
   18SAPC  H16Y 2401   5.953   8.298   8.940 -0.3267 -0.0064  0.5296
   18SAPC  C317 2402   6.149   8.401   8.912 -0.6398 -0.3007  0.0399
   18SAPC  H17X 2403   6.255   8.370   8.927  0.1572  2.0470 -0.3729
   18SAPC  H17Y 2404   6.129   8.490   8.975  1.5446 -0.6469  1.3559
   18SAPC  C318 2405   6.129   8.439   8.761 -0.7296  0.6901 -0.3723
   18SAPC  H18X 2406   6.161   8.350   8.702  3.1383  2.0424 -0.6150
   18SAPC  H18Y 2407   6.206   8.510   8.724  1.5264 -1.3776  0.0498
   18SAPC  H18Z 2408   6.032   8.484   8.731 -0.4721 -0.7350 -3.9083
   19SAPC     N 2409   5.419   3.309  10.516 -0.5956 -0.3164  0.0605
   19SAPC   C12 2410   5.501   3.227  10.419  0.0646  0.4785  0.0267
   19SAPC  H12A 2411   5.569   3.173  10.483 -0.7819 -0.5334  0.1025
   19SAPC  H12B 2412   5.553   3.291  10.348  1.6460 -1.5978 -0.8149
   19SAPC   C13 2413   5.299   3.375  10.445 -0.2878  0.4556  0.1631
   19SAPC  H13A 2414   5.224   3.303  10.416  0.6405 -1.0558  1.3555
   19SAPC  H13B 2415   5.260   3.457  10.503  0.2552 -0.7897  2.4053
   19SAPC  H13C 2416   5.333   3.422  10.353 -2.7614 -2.6616 -2.5821
   19SAPC   C14 2417   5.380   3.227  10.626  0.2985  0.4594 -0.1101
   19SAPC  H14A 2418   5.306   3.273  10.691  1.4632 -0.1856  1.7604
   19SAPC  H14B 2419   5.333   3.135  10.592  2.1384 -0.1235 -1.1812
   19SAPC  H14C 2420   5.459   3.207  10.696  0.5383 -0.4354 -0.6152
   19SAPC   C15 2421   5.498   3.420  10.567  0.4957 -0.7937  0.2152
   19SAPC  H15A 2422   5.435   3.489  10.619 -1.2269 -2.5618  0.6071
   19SAPC  H15B 2423   5.571   3.372  10.631 -0.8837 -0.4964  2.0617
   19SAPC  H15C 2424   5.552   3.472  10.489  1.5095 -2.1951 -0.0769
   19SAPC   C11 2425   5.425   3.121  10.340  0.2198  0.0527  0.5372
   19SAPC  H11A 2426   5.494   3.079  10.264  1.0880  0.3753  1.1232
   19SAPC  H11B 2427   5.344   3.170  10.283  1.3740 -0.1498 -1.3654
   19SAPC     P 2428   5.446   2.886  10.462 -0.2812  0.1102 -0.3418
   19SAPC   O13 2429   5.569   2.930  10.527  0.4019  0.1240  0.0072
   19SAPC   O14 2430   5.345   2.813  10.541  0.0723  0.2205 -0.0211
   19SAPC   O12 2431   5.370   3.018  10.418 -0.2370  0.1527 -0.4208
   19SAPC   O11 2432   5.483   2.813  10.331  0.2304  0.4865 -1.1068
   19SAPC    C1 2433   5.620   2.817  10.273  0.4988  0.4703 -0.4947
   19SAPC    HA 2434   5.624   2.880  10.181  2.1013 -0.1809 -0.8994
   19SAPC    HB 2435   5.695   2.852  10.347  0.6817  0.0777 -0.4925
   19SAPC    C2 2436   5.682   2.675  10.239  0.3458  0.3143 -0.5938
   19SAPC    HS 2437   5.786   2.696  10.207  1.1225 -0.2056  1.4423
   19SAPC   O21 2438   5.608   2.619  10.121 -0.2049 -0.9773 -0.0945
   19SAPC   C21 2439   5.616   2.682  10.009 -0.5044  0.1558 -0.3806
   19SAPC   O22 2440   5.663   2.792   9.993 -0.8981  0.2847 -0.7210
   19SAPC   C22 2441   5.549   2.599   9.898 -0.4037 -0.2942  0.3220
   19SAPC   H2R 2442   5.580   2.496   9.926  0.4391  0.4293  2.2071
   19SAPC   H2S 2443   5.439   2.602   9.914 -0.4436 -2.4178  0.7065
   19SAPC    C3 2444   5.676   2.575  10.362 -0.2109  0.2039 -0.1705
   19SAPC    HX 2445   5.570   2.554  10.384 -0.8337  3.8612  1.0172
   19SAPC    HY 2446   5.712   2.608  10.462 -0.1856 -3.1788  1.0572
   19SAPC   O31 2447   5.739   2.453  10.315  0.1444 -0.2106 -0.6078
   19SAPC   C31 2448   5.859   2.423  10.352  0.1178 -0.4001  0.4166
   19SAPC   O32 2449   5.923   2.473  10.443  0.8285  0.3804 -0.4333
   19SAPC   C32 2450   5.915   2.312  10.264 -0.1449 -0.4588  0.2459
   19SAPC   H2X 2451   5.849   2.224  10.281  1.2596 -1.7420 -0.6834
   19SAPC   H2Y 2452   6.016   2.278  10.298  0.7069 -0.6254 -2.2719
   19SAPC   C23 2453   5.597   2.649   9.761  0.2634 -0.6538 -0.1555
   19SAPC   H3R 2454   5.706   2.644   9.741 -0.4038 -1.5073 -4.6168
   19SAPC   H3S 2455   5.561   2.752   9.740 -0.6430 -0.7334  0.8930
   19SAPC   C24 2456   5.547   2.564   9.647  0.7700  0.3703 -0.1211
   19SAPC   H4R 2457   5.556   2.632   9.560  0.6874  0.7365  0.1563
   19SAPC   H4S 2458   5.437   2.557   9.663  0.6969  0.0850 -0.7166
   19SAPC   C25 2459   5.618   2.431   9.629  0.1843  0.8148 -0.0293
   19SAPC   H5R 2460   5.679   2.403   9.716 -1.8659 -2.4947  0.5190
   19SAPC   C26 2461   5.628   2.362   9.513 -0.0424  0.1720  0.0579
   19SAPC   H6R 2462   5.687   2.269   9.508 -1.1393 -0.5669  0.3238
   19SAPC   C27 2463   5.572   2.410   9.379  0.3514  0.1456  0.0909
   19SAPC   H7R 2464   5.486   2.478   9.395  1.5441  1.6726  0.2150
   19SAPC   H7S 2465   5.521   2.322   9.334 -0.8463  0.4724  0.7640
   19SAPC   C28 2466   5.673   2.475   9.288 -0.1129 -0.1262  0.4645
   19SAPC   H8R 2467   5.699   2.574   9.328  2.0460  0.2804 -1.7672
   19SAPC   C29 2468   5.726   2.428   9.171 -0.2893 -0.5665 -0.1480
   19SAPC   H9R 2469   5.792   2.494   9.113  0.5437 -0.6728  0.6571
   19SAPC  C210 2470   5.687   2.296   9.106 -0.7347  0.2633 -0.1395
   19SAPC  H10R 2471   5.631   2.316   9.012 -0.8970 -3.0703 -0.8558
   19SAPC  H10S 2472   5.624   2.235   9.175 -1.8617  1.1892 -0.3113
   19SAPC  C211 2473   5.801   2.213   9.071 -0.5548 -0.8814 -0.3073
   19SAPC  H11R 2474   5.831   2.137   9.145  0.9504  0.1855  0.2284
   19SAPC  C212 2475   5.871   2.210   8.955 -0.1260 -0.5385  0.4901
   19SAPC  H12R 2476   5.955   2.142   8.933 -0.6197 -0.3068 -2.7492
   19SAPC  C213 2477   5.845   2.284   8.827  0.0808 -0.5092 -0.4301
   19SAPC  H13R 2478   5.936   2.337   8.795  1.0032 -0.6779  1.7589
   19SAPC  H13S 2479   5.776   2.367   8.853  0.1378 -1.5527  3.8392
   19SAPC  C214 2480   5.792   2.198   8.717  0.0695 -0.1778  0.4810
   19SAPC  H14R 2481   5.862   2.116   8.695 -0.9721 -0.9220 -0.1836
   19SAPC  C215 2482   5.690   2.218   8.629  0.3017 -0.8793  1.0050
   19SAPC  H15R 2483   5.670   2.139   8.554  0.4719 -0.1055  0.1252
   19SAPC  C216 2484   5.601   2.338   8.608 -0.6692  0.2865  0.0727
   19SAPC  H16R 2485   5.635   2.421   8.673  1.0033 -1.0824  1.0303
   19SAPC  H16S 2486   5.499   2.328   8.652  1.0204 -2.1602  3.9268
   19SAPC  C217 2487   5.595   2.387   8.464 -0.5004 -0.4664  0.6904
   19SAPC  H17R 2488   5.524   2.471   8.449  1.3471  0.5659 -3.8960
   19SAPC  H17S 2489   5.574   2.303   8.395  0.9059  1.3519 -2.1576
   19SAPC  C218 2490   5.731   2.454   8.419 -0.4290  0.4960 -0.4505
   19SAPC  H18R 2491   5.805   2.371   8.419 -0.7829  0.1168  1.7500
   19SAPC  H18S 2492   5.758   2.539   8.485  1.3682 -0.6927  0.4244
   19SAPC  C219 2493   5.732   2.508   8.276 -0.1681  0.5131 -0.1377
   19SAPC  H19R 2494   5.713   2.432   8.198  0.6978  0.3185 -0.1755
   19SAPC  H19S 2495   5.834   2.547   8.254  0.4423 -0.0638  1.4617
   19SAPC  C220 2496   5.637   2.619   8.266 -0.1075  0.4837  0.9888
   19SAPC  H20R 2497   5.652   2.690   8.351 -1.7402  1.9045  0.1581
   19SAPC  H20S 2498   5.533   2.579   8.268 -0.5010  1.4773  2.1300
   19SAPC  H20T 2499   5.651   2.672   8.170  0.7836  2.2503  2.0405
   19SAPC   C33 2500   5.924   2.357  10.120 -0.1348  0.1008  0.6266
   19SAPC   H3X 2501   5.821   2.378  10.084 -0.1348 -0.9246 -0.0145
   19SAPC   H3Y 2502   5.947   2.265  10.062  1.9012  1.2934 -0.5606
   19SAPC   C34 2503   6.029   2.465  10.098  0.5202  0.3958  0.1567
   19SAPC   H4X 2504   6.125   2.424  10.136  0.0086  0.2840  1.3954
   19SAPC   H4Y 2505   6.004   2.550  10.165 -1.8704 -0.7115  0.7799
   19SAPC   C35 2506   6.040   2.524   9.950  0.3481  0.0435 -0.2846
   19SAPC   H5X 2507   5.939   2.564   9.923  1.4131  1.8540 -1.9290
   19SAPC   H5Y 2508   6.063   2.436   9.887 -1.6300 -1.0328  0.4219
   19SAPC   C36 2509   6.142   2.631   9.937  0.4770 -0.2644 -0.0263
   19SAPC   H6X 2510   6.232   2.610   9.998 -0.3751 -0.5681  1.1565
   19SAPC   H6Y 2511   6.095   2.720   9.984 -0.2044 -0.2809 -0.6495
   19SAPC   C37 2512   6.153   2.673   9.790  0.1538  0.6215 -0.1095
   19SAPC   H7X 2513   6.196   2.775   9.776  2.1899 -0.1036  0.5028
   19SAPC   H7Y 2514   6.060   2.653   9.733  0.0522 -1.8399  0.8236
   19SAPC   C38 2515   6.263   2.577   9.724  0.0996  0.4262  0.5089
   19SAPC   H8X 2516   6.234   2.470   9.733  1.2138  0.1206  0.5387
   19SAPC   H8Y 2517   6.352   2.583   9.790 -0.2987 -2.1364  1.3851
   19SAPC   C39 2518   6.308   2.604   9.579  0.2530  0.9306 -0.1081
   19SAPC   H9X 2519   6.389   2.538   9.541 -2.1613 -1.6496 -1.1619
   19SAPC   H9Y 2520   6.353   2.705   9.591 -2.4224  2.1178  0.7622
   19SAPC  C310 2521   6.187   2.596   9.482  1.0953  0.6091 -0.8657
   19SAPC  H10X 2522   6.110   2.665   9.520 -1.3677 -2.0039 -0.7953
   19SAPC  H10Y 2523   6.145   2.493   9.487  1.6547  0.4391  1.5425
   19SAPC  C311 2524   6.240   2.636   9.339  0.4637 -0.0728 -0.4129
   19SAPC  H11X 2525   6.327   2.573   9.309  1.3014  0.6555  0.4277
   19SAPC  H11Y 2526   6.291   2.735   9.343  0.9052 -0.3383  2.2971
   19SAPC  C312 2527   6.130   2.636   9.225  0.2307 -0.3482 -0.2283
   19SAPC  H12X 2528   6.034   2.677   9.265  0.4289  1.4434 -1.4891
   19SAPC  H12Y 2529   6.106   2.535   9.186 -3.9039  0.5828 -0.5719
   19SAPC  C313 2530   6.173   2.725   9.100 -0.0365 -0.3633 -0.6330
   19SAPC  H13X 2531   6.208   2.824   9.134 -0.7796 -0.0190 -0.8361
   19SAPC  H13Y 2532   6.095   2.737   9.022  1.4010  2.5251 -1.7491
   19SAPC  C314 2533   6.288   2.653   9.033 -0.1576  0.8757  0.8603
   19SAPC  H14X 2534   6.255   2.547   9.023 -0.3868  1.0576 -0.5806
   19SAPC  H14Y 2535   6.377   2.648   9.100  1.4005 -0.2719 -1.1791
   19SAPC  C315 2536   6.336   2.718   8.899 -0.4982 -0.3860 -0.2698
   19SAPC  H15X 2537   6.378   2.815   8.933  0.0625 -0.8720  0.4484
   19SAPC  H15Y 2538   6.249   2.745   8.835 -0.5345 -1.5252 -0.7229
   19SAPC  C316 2539   6.451   2.636   8.826 -0.6523  0.1805 -0.2105
   19SAPC  H16X 2540   6.405   2.544   8.785 -1.4618  0.9615 -1.1062
   19SAPC  H16Y 2541   6.530   2.618   8.902 -0.0559  0.5691 -0.7338
   19SAPC  C317 2542   6.513   2.720   8.711  0.0378  0.5210  0.3769
   19SAPC  H17X 2543   6.568   2.809   8.749 -1.1981  2.0587 -1.2871
   19SAPC  H17Y 2544   6.431   2.747   8.641  0.9933  2.1424 -0.1684
   19SAPC  C318 2545   6.622   2.643   8.646  0.8576  1.1724  0.7934
   19SAPC  H18X 2546   6.589   2.537   8.639  1.8437  0.5861  3.7493
   19SAPC  H18Y 2547   6.713   2.636   8.709 -0.5546 -1.9761  2.7400
   19SAPC  H18Z 2548   6.642   2.670   8.540 -2.2221 -0.5412 -0.3630
   20SAPC     N 2549   5.088   6.421  11.234 -0.0260  0.1000 -0.0193
   20SAPC   C12 2550   5.178   6.430  11.110  0.0601  0.3005 -0.1205
   20SAPC  H12A 2551   5.275   6.428  11.157 -0.2501  3.5340  0.9198
   20SAPC  H12B 2552   5.175   6.528  11.065 -0.4201  0.8261  1.0143
   20SAPC   C13 2553   5.161   6.475  11.353  0.1855 -0.1683  0.2210
   20SAPC  H13A 2554   5.249   6.418  11.380  0.3459  0.0752  0.2190
   20SAPC  H13B 2555   5.191   6.576  11.329 -0.4009  0.2675  1.2488
   20SAPC  H13C 2556   5.096   6.471  11.440 -0.4404 -0.8869 -0.2688
   20SAPC   C14 2557   4.960   6.499  11.208  0.0432 -0.7879 -0.1493
   20SAPC  H14A 2558   4.895   6.508  11.294  1.5736  1.6273  0.8818
   20SAPC  H14B 2559   4.967   6.601  11.173 -0.7463 -0.2679  1.1292
   20SAPC  H14C 2560   4.894   6.451  11.138 -3.6717  1.3173  1.6099
   20SAPC   C15 2561   5.046   6.280  11.260  0.6700 -0.5716 -0.3045
   20SAPC  H15A 2562   4.997   6.240  11.173  0.6446 -0.7153 -0.2244
   20SAPC  H15B 2563   5.132   6.216  11.277  1.1162  0.0338 -0.2267
   20SAPC  H15C 2564   4.977   6.274  11.342  2.2400 -0.0865  1.1198
   20SAPC   C11 2565   5.151   6.319  11.002  0.1331 -0.2426 -0.5030
   20SAPC  H11A 2566   5.168   6.219  11.047 -1.6010 -0.0825  0.6059
   20SAPC  H11B 2567   5.229   6.339  10.925  0.8507  0.3965  0.3605
   20SAPC     P 2568   4.933   6.216  10.891 -0.0687 -0.7993  0.2448
   20SAPC   O13 2569   4.948   6.095  10.967  0.0279 -0.5680  0.2091
   20SAPC   O14 2570   4.800   6.275  10.867  0.3160 -0.8510 -0.2799
   20SAPC   O12 2571   5.016   6.327  10.958 -0.6746  0.0843 -0.3539
   20SAPC   O11 2572   5.012   6.189  10.753 -0.7180  0.5053  0.4821
   20SAPC    C1 2573   5.073   6.299  10.682  0.1500  0.2884  0.0236
   20SAPC    HA 2574   5.095   6.384  10.751  0.7908  0.8042 -0.8014
   20SAPC    HB 2575   5.166   6.270  10.628 -0.7943 -1.7653 -0.5750
   20SAPC    C2 2576   4.973   6.348  10.565 -0.2346 -0.2795 -0.2940
   20SAPC    HS 2577   4.869   6.368  10.599 -1.1683 -0.8536 -2.5650
   20SAPC   O21 2578   4.961   6.241  10.467  0.9869  0.2956 -0.3362
   20SAPC   C21 2579   4.860   6.253  10.391 -0.0115 -0.8277 -0.3389
   20SAPC   O22 2580   4.757   6.321  10.403 -0.5771 -0.9078  0.3652
   20SAPC   C22 2581   4.880   6.165  10.270  0.0299 -0.3997  0.0670
   20SAPC   H2R 2582   4.980   6.188  10.226 -0.4078  1.9956  0.2139
   20SAPC   H2S 2583   4.875   6.058  10.299 -1.5879 -0.0452  1.2061
   20SAPC    C3 2584   5.030   6.471  10.491 -0.4966  0.1333 -0.4106
   20SAPC    HX 2585   5.037   6.545  10.574  0.3100  0.3820 -0.6962
   20SAPC    HY 2586   4.958   6.502  10.412  1.8758  2.0314 -1.9791
   20SAPC   O31 2587   5.158   6.436  10.430  1.1105  0.0699 -0.4188
   20SAPC   C31 2588   5.263   6.516  10.453 -0.7125  0.0615  0.4561
   20SAPC   O32 2589   5.271   6.602  10.539 -0.1732  0.2303  0.5306
   20SAPC   C32 2590   5.389   6.476  10.367 -0.4119 -0.1871 -0.8605
   20SAPC   H2X 2591   5.371   6.373  10.328 -0.2879 -0.8302  0.6861
   20SAPC   H2Y 2592   5.472   6.464  10.440 -0.9591  2.6966  0.3739
   20SAPC   C23 2593   4.785   6.198  10.151  0.6032  0.1257 -0.7083
   20SAPC   H3R 2594   4.684   6.162  10.182  1.7875 -1.6109  1.3563
   20SAPC   H3S 2595   4.820   6.139  10.064  0.0892 -0.2059 -0.6947
   20SAPC   C24 2596   4.784   6.342  10.098 -0.5847 -0.6619 -0.1799
   20SAPC   H4R 2597   4.739   6.411  10.173  1.9248  0.2930  0.5343
   20SAPC   H4S 2598   4.740   6.348   9.996  2.0095  3.2250 -1.2507
   20SAPC   C25 2599   4.920   6.406  10.084  0.2643 -0.1788  0.7479
   20SAPC   H5R 2600   4.972   6.413  10.181  2.2872 -1.7650 -0.1594
   20SAPC   C26 2601   4.984   6.445   9.974  0.6571 -0.4396 -0.1748
   20SAPC   H6R 2602   5.094   6.458   9.975  0.6074 -0.0265  0.1928
   20SAPC   C27 2603   4.924   6.443   9.837 -0.1230 -0.0579 -0.5675
   20SAPC   H7R 2604   4.994   6.501   9.772  3.1318 -3.0391 -0.0136
   20SAPC   H7S 2605   4.830   6.501   9.832 -0.0246  0.2600  0.8133
   20SAPC   C28 2606   4.895   6.310   9.761  0.3094  0.1619  0.5778
   20SAPC   H8R 2607   4.876   6.224   9.828  2.2804 -0.0283  0.9405
   20SAPC   C29 2608   4.885   6.311   9.628 -0.0549  0.1727 -0.6593
   20SAPC   H9R 2609   4.841   6.216   9.593 -2.2499  1.1642 -0.7699
   20SAPC  C210 2610   4.884   6.425   9.527  0.2306  0.5746  0.3379
   20SAPC  H10R 2611   4.878   6.523   9.579 -5.3337 -0.5053  2.4806
   20SAPC  H10S 2612   4.786   6.441   9.477 -0.2221  1.5578  1.4758
   20SAPC  C211 2613   4.994   6.399   9.437 -0.9025  0.3507  0.4119
   20SAPC  H11R 2614   5.092   6.372   9.480  0.0321 -0.3281 -1.9548
   20SAPC  C212 2615   4.985   6.397   9.304 -0.5767  1.0978 -0.6492
   20SAPC  H12R 2616   5.079   6.370   9.253  0.3918  1.8673  0.6919
   20SAPC  C213 2617   4.868   6.417   9.211 -0.6076 -0.2557 -0.3134
   20SAPC  H13R 2618   4.800   6.490   9.259  0.4994  0.9775 -0.5334
   20SAPC  H13S 2619   4.810   6.323   9.201  0.2961 -0.6890 -1.8003
   20SAPC  C214 2620   4.920   6.477   9.087 -0.5042 -0.2134  0.1056
   20SAPC  H14R 2621   5.003   6.549   9.090 -0.2572 -0.4647 -0.5246
   20SAPC  C215 2622   4.893   6.435   8.964  0.6764 -0.0724  0.2903
   20SAPC  H15R 2623   4.941   6.493   8.885  0.5357  0.5111  0.6278
   20SAPC  C216 2624   4.797   6.329   8.912  0.3734 -0.9896 -0.9766
   20SAPC  H16R 2625   4.778   6.251   8.989 -0.2413  0.5917  0.5382
   20SAPC  H16S 2626   4.837   6.273   8.824  0.9610 -2.1942  0.0321
   20SAPC  C217 2627   4.652   6.367   8.878 -0.1850 -0.3214  0.5857
   20SAPC  H17R 2628   4.646   6.473   8.848  0.5966 -0.3768  0.2193
   20SAPC  H17S 2629   4.581   6.348   8.962 -0.3508 -2.5615  0.0193
   20SAPC  C218 2630   4.582   6.287   8.765 -0.4327  0.3062 -0.4100
   20SAPC  H18R 2631   4.489   6.340   8.736 -1.4098 -1.2804 -0.2673
   20SAPC  H18S 2632   4.560   6.189   8.812 -1.5953  0.6111 -0.2915
   20SAPC  C219 2633   4.670   6.260   8.643 -0.2265  0.0428  0.0669
   20SAPC  H19R 2634   4.600   6.203   8.579 -0.7560 -1.0653  1.5702
   20SAPC  H19S 2635   4.746   6.185   8.674 -0.6740  0.2133  1.6750
   20SAPC  C220 2636   4.743   6.383   8.571  0.9054 -0.0175  0.0851
   20SAPC  H20R 2637   4.818   6.347   8.497 -1.1261 -0.3484 -1.9239
   20SAPC  H20S 2638   4.793   6.446   8.647  2.3995 -2.4770  1.2757
   20SAPC  H20T 2639   4.668   6.446   8.519  2.6288  0.7062 -1.6308
   20SAPC   C33 2640   5.420   6.575  10.253 -0.1792 -0.4394  0.5203
   20SAPC   H3X 2641   5.524   6.549  10.221 -0.4929 -1.1592  0.0523
   20SAPC   H3Y 2642   5.427   6.683  10.277  0.3057  0.5649 -3.3960
   20SAPC   C34 2643   5.343   6.549  10.122  0.7955 -0.2318  0.6563
   20SAPC   H4X 2644   5.243   6.598  10.124  1.1471  0.4656  1.4451
   20SAPC   H4Y 2645   5.311   6.443  10.110  2.6857 -0.5890 -2.1059
   20SAPC   C35 2646   5.424   6.610  10.006  0.8084  0.0209 -0.4340
   20SAPC   H5X 2647   5.527   6.569   9.997  0.6736 -0.7489  1.1401
   20SAPC   H5Y 2648   5.436   6.716  10.034  2.9654 -0.4121  0.4721
   20SAPC   C36 2649   5.345   6.595   9.876  0.3122  0.0006  0.4551
   20SAPC   H6X 2650   5.251   6.653   9.890 -0.5987 -1.5033  0.7678
   20SAPC   H6Y 2651   5.314   6.489   9.861 -1.4073  0.5694 -0.2350
   20SAPC   C37 2652   5.421   6.630   9.745 -0.2493  0.2047 -0.7052
   20SAPC   H7X 2653   5.505   6.564   9.716 -0.5521  0.2840 -1.8391
   20SAPC   H7Y 2654   5.466   6.731   9.750  0.9477 -0.3834  1.6175
   20SAPC   C38 2655   5.336   6.618   9.616 -0.2880  0.7294  0.0258
   20SAPC   H8X 2656   5.254   6.684   9.649 -2.6673 -1.3952 -1.2721
   20SAPC   H8Y 2657   5.299   6.514   9.603  0.3806  0.7298 -2.4577
   20SAPC   C39 2658   5.400   6.653   9.485  0.4991 -0.2431  0.3661
   20SAPC   H9X 2659   5.496   6.598   9.469  1.8271  2.6007 -2.4368
   20SAPC   H9Y 2660   5.420   6.762   9.479 -1.9905  0.2772  0.6849
   20SAPC  C310 2661   5.308   6.641   9.362 -0.1667 -0.3309  0.1374
   20SAPC  H10X 2662   5.220   6.706   9.382  2.9566  4.1435  0.6339
   20SAPC  H10Y 2663   5.278   6.534   9.361 -1.2035 -0.0416 -0.9202
   20SAPC  C311 2664   5.377   6.668   9.226  0.3049 -0.6121 -0.2645
   20SAPC  H11X 2665   5.473   6.614   9.211  2.0249  2.3561 -0.6785
   20SAPC  H11Y 2666   5.397   6.777   9.218 -1.0061 -0.3261  0.0762
   20SAPC  C312 2667   5.277   6.643   9.110  0.0636 -0.5051 -0.6403
   20SAPC  H12X 2668   5.173   6.672   9.138  0.5466 -1.9168  3.2458
   20SAPC  H12Y 2669   5.266   6.533   9.097  0.2843 -0.7573  1.0616
   20SAPC  C313 2670   5.310   6.720   8.992 -0.1024 -0.1846 -0.1790
   20SAPC  H13X 2671   5.405   6.680   8.950 -0.0351 -0.6046  0.3578
   20SAPC  H13Y 2672   5.321   6.827   9.020  2.6183 -1.0386  2.5170
   20SAPC  C314 2673   5.203   6.711   8.885  1.1255  0.5650  0.2796
   20SAPC  H14X 2674   5.117   6.769   8.925  1.8988  1.4852  0.6327
   20SAPC  H14Y 2675   5.167   6.607   8.868  0.2481  1.1444 -1.7705
   20SAPC  C315 2676   5.245   6.767   8.752 -0.2448  0.5121  1.3887
   20SAPC  H15X 2677   5.299   6.696   8.685 -1.1042  1.5086 -0.4337
   20SAPC  H15Y 2678   5.315   6.851   8.772  0.0227  1.2474 -2.0207
   20SAPC  C316 2679   5.116   6.810   8.679  0.1648 -0.7443  0.9874
   20SAPC  H16X 2680   5.154   6.859   8.586  0.2381  1.2227  1.9922
   20SAPC  H16Y 2681   5.066   6.893   8.735  0.8531 -1.2413  2.3820
   20SAPC  C317 2682   5.035   6.697   8.630  0.1280  0.0206 -0.0059
   20SAPC  H17X 2683   4.994   6.643   8.718 -0.3937 -0.2510 -0.4126
   20SAPC  H17Y 2684   5.096   6.624   8.573 -0.0654  0.6732 -1.0790
   20SAPC  C318 2685   4.924   6.746   8.539  0.0161  0.0877 -0.4290
   20SAPC  H18X 2686   4.880   6.661   8.482  0.2199 -2.0280  2.3958
   20SAPC  H18Y 2687   4.960   6.823   8.467 -0.4788 -1.4893 -2.4701
   20SAPC  H18Z 2688   4.834   6.782   8.593 -0.6456 -1.4444 -0.4429
   21SAPC     N 2689   5.713   5.356  11.201  0.1186 -0.4018  0.5336
   21SAPC   C12 2690   5.740   5.482  11.125 -0.4422  0.1398  0.1166
   21SAPC  H12A 2691   5.841   5.492  11.088 -0.3888  1.4144  0.5715
   21SAPC  H12B 2692   5.717   5.566  11.189  0.8006 -0.1266  0.9511
   21SAPC   C13 2693   5.566   5.330  11.224  0.7861  0.2787  0.7077
   21SAPC  H13A 2694   5.515   5.419  11.255  0.3025  0.0764  0.4956
   21SAPC  H13B 2695   5.517   5.302  11.132  1.5241  0.4366  0.2527
   21SAPC  H13C 2696   5.553   5.241  11.284  1.8408  0.4265  1.1766
   21SAPC   C14 2697   5.765   5.244  11.119  0.5893 -0.2780 -0.1761
   21SAPC  H14A 2698   5.864   5.260  11.080  0.8083 -1.8955 -0.3366
   21SAPC  H14B 2699   5.754   5.157  11.181 -1.7319  0.6131  0.8096
   21SAPC  H14C 2700   5.697   5.234  11.035 -2.1098 -0.7737  1.9158
   21SAPC   C15 2701   5.776   5.366  11.332  0.6503 -0.1749  0.1563
   21SAPC  H15A 2702   5.884   5.370  11.332  0.6463  0.7831  1.5596
   21SAPC  H15B 2703   5.751   5.452  11.393  2.7717  0.0698  0.7927
   21SAPC  H15C 2704   5.745   5.282  11.392 -0.0722  0.9842  1.4721
   21SAPC   C11 2705   5.645   5.504  11.003  0.3204  0.4165  0.0121
   21SAPC  H11A 2706   5.642   5.604  10.955 -1.4650 -0.2183 -1.2933
   21SAPC  H11B 2707   5.540   5.495  11.037 -1.1081  1.8185 -3.5299
   21SAPC     P 2708   5.791   5.415  10.805  0.2797 -0.0285  0.1626
   21SAPC   O13 2709   5.904   5.425  10.904  0.6053 -1.2283 -0.1353
   21SAPC   O14 2710   5.789   5.293  10.729 -0.1281  0.2010  0.0975
   21SAPC   O12 2711   5.658   5.412  10.890  0.0814 -0.1400  0.6034
   21SAPC   O11 2712   5.769   5.542  10.714 -0.0853  0.0846 -0.3896
   21SAPC    C1 2713   5.873   5.635  10.690 -0.1043 -0.4501  0.1268
   21SAPC    HA 2714   5.843   5.737  10.722 -2.6679 -0.4943 -1.8244
   21SAPC    HB 2715   5.969   5.609  10.740  0.9005  1.5591 -0.6230
   21SAPC    C2 2716   5.907   5.652  10.542 -0.3745 -0.6037 -0.1225
   21SAPC    HS 2717   5.813   5.696  10.500  0.6650  3.0173  0.9895
   21SAPC   O21 2718   5.952   5.527  10.483  0.0172 -0.4709  0.4217
   21SAPC   C21 2719   5.906   5.507  10.359 -0.3793 -0.1538  0.0950
   21SAPC   O22 2720   5.815   5.575  10.314 -0.5969  0.0086  0.1445
   21SAPC   C22 2721   5.981   5.407  10.283  0.5558  0.0575  0.2564
   21SAPC   H2R 2722   6.090   5.425  10.287  0.5937  0.9984 -2.6879
   21SAPC   H2S 2723   5.973   5.307  10.331 -0.2100  0.0367  0.0934
   21SAPC    C3 2724   6.015   5.760  10.529 -0.1664  0.5434  0.3309
   21SAPC    HX 2725   6.105   5.721  10.581  0.6556  0.8000 -0.8687
   21SAPC    HY 2726   5.986   5.848  10.589  0.7047 -0.1370  1.8124
   21SAPC   O31 2727   6.051   5.789  10.396  0.8721  0.1736 -0.2823
   21SAPC   C31 2728   5.973   5.869  10.321 -0.3530 -0.4470  0.4278
   21SAPC   O32 2729   5.877   5.934  10.362 -0.3672  0.0257 -0.2341
   21SAPC   C32 2730   6.030   5.873  10.175  0.6058  0.4224  0.0803
   21SAPC   H2X 2731   5.984   5.797  10.109 -0.0470  1.3761 -0.5717
   21SAPC   H2Y 2732   6.140   5.856  10.172  0.3702 -1.1066 -2.1073
   21SAPC   C23 2733   5.926   5.403  10.137  0.9156  0.0227  0.0152
   21SAPC   H3R 2734   5.925   5.500  10.084  1.2316 -0.9690 -1.9298
   21SAPC   H3S 2735   5.818   5.379  10.146  0.7393  0.2897 -1.1709
   21SAPC   C24 2736   5.997   5.307  10.048  0.1899  0.6749  0.2093
   21SAPC   H4R 2737   5.924   5.271   9.973 -0.9123  1.2663  0.9770
   21SAPC   H4S 2738   6.030   5.221  10.110  0.8264  0.5991 -0.2247
   21SAPC   C25 2739   6.121   5.368   9.981 -0.2024 -0.5193 -0.1556
   21SAPC   H5R 2740   6.213   5.373  10.041 -0.2952 -1.5271  0.0930
   21SAPC   C26 2741   6.141   5.406   9.853 -0.2321 -0.7544  0.3381
   21SAPC   H6R 2742   6.236   5.454   9.824 -0.5087 -1.1467 -1.3598
   21SAPC   C27 2743   6.054   5.394   9.733  0.2212 -0.2711  0.0179
   21SAPC   H7R 2744   5.958   5.339   9.748 -0.8984  0.1603 -4.2419
   21SAPC   H7S 2745   6.114   5.323   9.672 -1.0630 -1.0821 -0.3516
   21SAPC   C28 2746   6.038   5.517   9.652  0.1586  0.3296 -0.0164
   21SAPC   H8R 2747   6.048   5.613   9.705  2.5370 -1.1222  2.3997
   21SAPC   C29 2748   6.010   5.516   9.520  0.1615  0.2694 -0.6768
   21SAPC   H9R 2749   5.983   5.610   9.469 -0.3211  0.0482 -0.8299
   21SAPC  C210 2750   5.976   5.397   9.428 -0.0617 -0.4255 -0.0587
   21SAPC  H10R 2751   5.899   5.429   9.354  2.0873  1.0271 -1.7801
   21SAPC  H10S 2752   5.919   5.323   9.489  0.3440  0.2272  1.1614
   21SAPC  C211 2753   6.093   5.332   9.361 -0.0187 -0.0187 -0.3356
   21SAPC  H11R 2754   6.143   5.246   9.408  0.4766 -0.2801 -1.3084
   21SAPC  C212 2755   6.138   5.368   9.243  0.7859 -0.7119 -0.3424
   21SAPC  H12R 2756   6.227   5.325   9.195 -0.8939 -0.6144 -3.8756
   21SAPC  C213 2757   6.068   5.476   9.166  0.3877 -0.5182  0.0531
   21SAPC  H13R 2758   6.149   5.531   9.114 -0.3857 -0.6783 -1.3651
   21SAPC  H13S 2759   6.026   5.555   9.232 -0.1923 -2.4683  2.1595
   21SAPC  C214 2760   5.960   5.429   9.075  0.4536  0.2002  0.4372
   21SAPC  H14R 2761   5.892   5.360   9.127  0.1373  0.4614  0.3729
   21SAPC  C215 2762   5.934   5.487   8.957  0.1024  0.1314  0.3527
   21SAPC  H15R 2763   5.858   5.445   8.890  1.5763  1.2006 -2.1540
   21SAPC  C216 2764   6.006   5.606   8.895  0.4773  0.4149  0.1951
   21SAPC  H16R 2765   6.059   5.664   8.974  0.5961 -1.8876  1.9283
   21SAPC  H16S 2766   5.922   5.669   8.861  0.5052 -0.4961 -1.6681
   21SAPC  C217 2767   6.113   5.572   8.790  0.2144  0.9110  0.3180
   21SAPC  H17R 2768   6.184   5.501   8.836 -0.2872  0.4803  0.4460
   21SAPC  H17S 2769   6.169   5.666   8.771  1.6691 -0.2692 -1.6579
   21SAPC  C218 2770   6.055   5.514   8.659  0.2418 -0.0002  0.2836
   21SAPC  H18R 2771   5.969   5.576   8.625  0.7194 -0.2912 -1.5087
   21SAPC  H18S 2772   6.003   5.419   8.683 -1.6541  1.1235  0.8353
   21SAPC  C219 2773   6.171   5.486   8.557  0.5358 -0.1936 -0.5221
   21SAPC  H19R 2774   6.235   5.410   8.608 -1.1122 -0.2294  1.6642
   21SAPC  H19S 2775   6.229   5.579   8.540 -1.9792  1.3410 -1.1766
   21SAPC  C220 2776   6.128   5.431   8.415 -0.2367  0.5006  0.1817
   21SAPC  H20R 2777   6.052   5.354   8.436  0.5862 -0.9193 -1.7751
   21SAPC  H20S 2778   6.210   5.393   8.351 -0.2687 -1.7170  1.3820
   21SAPC  H20T 2779   6.074   5.513   8.363 -1.1808 -0.1425  0.1343
   21SAPC   C33 2780   5.991   6.006  10.113 -0.9067  0.5204  0.1455
   21SAPC   H3X 2781   6.022   6.083  10.188  0.5997 -0.5980  0.7242
   21SAPC   H3Y 2782   5.882   6.021  10.096 -1.0928 -1.9072 -1.1135
   21SAPC   C34 2783   6.066   6.033   9.981  0.2318 -0.3147 -0.2149
   21SAPC   H4X 2784   6.174   6.046  10.004  0.3426 -2.1035  0.3889
   21SAPC   H4Y 2785   6.022   6.130   9.948 -1.5784 -0.8310  0.5985
   21SAPC   C35 2786   6.040   5.940   9.869  0.6674  0.4695  1.1148
   21SAPC   H5X 2787   5.933   5.920   9.846  1.5474 -1.8606 -1.4726
   21SAPC   H5Y 2788   6.076   5.840   9.900 -1.4621 -1.1878 -1.2621
   21SAPC   C36 2789   6.106   5.976   9.735  0.1607  0.2886  0.7295
   21SAPC   H6X 2790   6.212   6.004   9.756  0.4660 -0.1054 -0.2383
   21SAPC   H6Y 2791   6.065   6.070   9.692  0.8841 -0.7664 -2.5673
   21SAPC   C37 2792   6.095   5.876   9.625  0.5732  0.2760  0.0469
   21SAPC   H7X 2793   5.987   5.861   9.605  0.1446  2.3466  0.5950
   21SAPC   H7Y 2794   6.135   5.776   9.652 -1.4989 -0.7007 -0.2656
   21SAPC   C38 2795   6.171   5.924   9.499 -0.6956  0.6007  0.6942
   21SAPC   H8X 2796   6.266   5.968   9.535 -0.6049  0.4858  0.5961
   21SAPC   H8Y 2797   6.113   6.001   9.444 -1.2356 -1.2762 -1.5254
   21SAPC   C39 2798   6.196   5.803   9.404 -0.0599 -0.1354 -0.3290
   21SAPC   H9X 2799   6.097   5.770   9.365 -0.9692  0.4272  1.3769
   21SAPC   H9Y 2800   6.234   5.724   9.473  1.0302 -0.0103 -0.7766
   21SAPC  C310 2801   6.282   5.822   9.286 -0.3414  0.4704  0.0830
   21SAPC  H10X 2802   6.306   5.727   9.234  0.1909  1.4983 -1.6386
   21SAPC  H10Y 2803   6.371   5.883   9.312 -1.1749  1.9933 -0.4775
   21SAPC  C311 2804   6.208   5.900   9.175  0.7302 -0.5989  0.4313
   21SAPC  H11X 2805   6.171   6.000   9.206 -2.6768 -1.8568  0.8760
   21SAPC  H11Y 2806   6.119   5.837   9.153  0.8043 -0.8551  0.8504
   21SAPC  C312 2807   6.291   5.910   9.050 -0.3865  0.3365 -0.3723
   21SAPC  H12X 2808   6.341   5.810   9.047 -0.5468  0.2431  0.0588
   21SAPC  H12Y 2809   6.365   5.992   9.063 -0.9530  0.5942  1.4567
   21SAPC  C313 2810   6.215   5.938   8.917 -0.2229  0.5833 -0.9100
   21SAPC  H13X 2811   6.128   5.869   8.908  1.9097 -2.5299  0.5973
   21SAPC  H13Y 2812   6.284   5.917   8.833  1.8117 -1.0670  1.0568
   21SAPC  C314 2813   6.148   6.073   8.908 -0.0813 -0.2531 -0.0317
   21SAPC  H14X 2814   6.230   6.148   8.904 -0.1990 -0.0945  0.4619
   21SAPC  H14Y 2815   6.102   6.094   9.007 -1.3404 -1.6078 -0.3012
   21SAPC  C315 2816   6.037   6.081   8.801 -0.3405 -0.0619 -0.7568
   21SAPC  H15X 2817   5.963   6.158   8.830 -1.4117 -1.3401 -0.0024
   21SAPC  H15Y 2818   5.985   5.984   8.815  1.1807 -0.7465  0.3549
   21SAPC  C316 2819   6.068   6.105   8.653 -0.2845 -0.1314 -0.5195
   21SAPC  H16X 2820   5.981   6.063   8.597 -0.7774 -3.4837  2.4087
   21SAPC  H16Y 2821   6.159   6.050   8.622  0.9219  1.8274 -0.5819
   21SAPC  C317 2822   6.099   6.253   8.628  0.4318 -0.0357  0.0626
   21SAPC  H17X 2823   6.196   6.281   8.675  1.1557 -3.1589  0.6599
   21SAPC  H17Y 2824   6.010   6.308   8.665 -0.3086 -0.2402 -1.3311
   21SAPC  C318 2825   6.105   6.288   8.475  0.5456  0.2448  0.0873
   21SAPC  H18X 2826   6.037   6.221   8.418 -0.6733  1.8849 -0.4432
   21SAPC  H18Y 2827   6.208   6.278   8.436 -0.0182 -1.6128 -1.0466
   21SAPC  H18Z 2828   6.074   6.393   8.457  1.8437  0.7277  0.5572
   22SAPC     N 2829   0.122   2.357  10.894 -0.5446 -0.7944  0.1204
   22SAPC   C12 2830   0.021   2.361  10.774  0.4182 -0.3654  0.0902
   22SAPC  H12A 2831   0.050   2.449  10.719  1.7076 -1.1253 -0.4808
   22SAPC  H12B 2832  -0.079   2.365  10.814  0.4755  1.2274  0.1137
   22SAPC   C13 2833   0.260   2.361  10.852  0.0762 -0.0350 -0.0266
   22SAPC  H13A 2834   0.282   2.428  10.770  0.1913 -1.5952 -1.3188
   22SAPC  H13B 2835   0.324   2.373  10.938 -0.9141  1.3497  0.5552
   22SAPC  H13C 2836   0.295   2.268  10.809  3.8052  1.4382 -0.5587
   22SAPC   C14 2837   0.112   2.486  10.972  0.2587  0.2900  0.4921
   22SAPC  H14A 2838   0.133   2.576  10.916  0.3220  1.4666  2.3112
   22SAPC  H14B 2839   0.014   2.509  11.011  0.2748 -0.1436  0.7927
   22SAPC  H14C 2840   0.185   2.485  11.052  0.6443  2.9558  0.2684
   22SAPC   C15 2841   0.101   2.238  10.975  0.7821 -0.3510 -0.1761
   22SAPC  H15A 2842   0.101   2.143  10.924 -2.9852 -0.2429 -0.6657
   22SAPC  H15B 2843   0.182   2.223  11.046 -0.1792 -2.2292  0.5820
   22SAPC  H15C 2844   0.002   2.238  11.019  1.2949  1.6579  1.1246
   22SAPC   C11 2845   0.018   2.240  10.673 -0.2692 -1.0783 -0.0015
   22SAPC  H11A 2846   0.123   2.220  10.643 -0.4403 -1.0906 -0.6086
   22SAPC  H11B 2847  -0.031   2.273  10.578  2.9042  0.2969 -1.3041
   22SAPC     P 2848  -0.204   2.119  10.737  0.0726  0.0879 -0.0205
   22SAPC   O13 2849  -0.237   1.971  10.761 -0.0382 -0.6781  0.1311
   22SAPC   O14 2850  -0.262   2.218  10.835 -0.3772  0.2232 -0.1876
   22SAPC   O12 2851  -0.049   2.133  10.735  0.5800  0.3715 -0.2817
   22SAPC   O11 2852  -0.245   2.162  10.597 -0.0516  0.3318  0.1194
   22SAPC    C1 2853  -0.208   2.083  10.480  0.6569  0.0343  0.5728
   22SAPC    HA 2854  -0.118   2.019  10.493  1.2234  0.6565 -0.1420
   22SAPC    HB 2855  -0.291   2.016  10.449  1.6681 -2.7160  3.3433
   22SAPC    C2 2856  -0.177   2.182  10.365  0.3072 -0.0784 -0.0255
   22SAPC    HS 2857  -0.140   2.275  10.412  1.4192  0.2126 -1.4041
   22SAPC   O21 2858  -0.305   2.203  10.304  0.3706  0.3049  0.4339
   22SAPC   C21 2859  -0.310   2.314  10.227  0.1535  0.8865  0.1829
   22SAPC   O22 2860  -0.220   2.397  10.218 -0.1154  0.0146  0.3581
   22SAPC   C22 2861  -0.456   2.320  10.168 -0.6926 -0.1072  0.1488
   22SAPC   H2R 2862  -0.504   2.220  10.171  0.0711 -0.4719  0.7224
   22SAPC   H2S 2863  -0.520   2.389  10.228 -0.3572  1.8277 -1.6317
   22SAPC    C3 2864  -0.060   2.138  10.266 -0.0656  0.5004  0.6623
   22SAPC    HX 2865   0.031   2.128  10.328 -0.1592 -0.6926  0.6152
   22SAPC    HY 2866  -0.041   2.219  10.191  0.7656 -2.4718 -2.5977
   22SAPC   O31 2867  -0.092   2.014  10.200 -0.6428 -0.2495 -0.4791
   22SAPC   C31 2868  -0.000   1.975  10.108  0.3925 -0.3869 -0.3220
   22SAPC   O32 2869   0.107   2.024  10.098 -0.6171 -0.1866  0.4644
   22SAPC   C32 2870  -0.062   1.864  10.022  0.2506  0.3145  0.0770
   22SAPC   H2X 2871  -0.165   1.894   9.996  0.0863 -0.0356  0.3166
   22SAPC   H2Y 2872  -0.061   1.765  10.072 -0.2180  0.1710 -0.1912
   22SAPC   C23 2873  -0.451   2.362  10.022 -0.1213  0.9118  0.0334
   22SAPC   H3R 2874  -0.423   2.469  10.016 -2.6119  1.5356 -2.1437
   22SAPC   H3S 2875  -0.555   2.360   9.983 -0.6881 -2.1876  1.3680
   22SAPC   C24 2876  -0.370   2.265   9.928 -0.2858 -0.4819  0.5604
   22SAPC   H4R 2877  -0.270   2.240   9.969  0.4133  0.9808 -0.1744
   22SAPC   H4S 2878  -0.353   2.322   9.835 -1.5845 -2.5356 -1.0450
   22SAPC   C25 2879  -0.434   2.141   9.895  1.0170 -0.0738  0.5489
   22SAPC   H5R 2880  -0.464   2.083   9.984 -1.4091 -0.9023 -0.7077
   22SAPC   C26 2881  -0.459   2.095   9.775  0.2573  0.1254  0.2077
   22SAPC   H6R 2882  -0.504   1.995   9.784  1.7858 -0.5031  1.3185
   22SAPC   C27 2883  -0.427   2.149   9.638  0.2777 -0.3349 -0.0338
   22SAPC   H7R 2884  -0.468   2.250   9.619  3.6520  0.6945 -2.9258
   22SAPC   H7S 2885  -0.486   2.085   9.568  0.1843  0.8062 -1.0320
   22SAPC   C28 2886  -0.286   2.169   9.602 -0.2292  0.8861 -0.7609
   22SAPC   H8R 2887  -0.217   2.123   9.674 -0.4489 -0.9849 -1.7002
   22SAPC   C29 2888  -0.238   2.212   9.489  0.6844 -0.4298 -0.3065
   22SAPC   H9R 2889  -0.130   2.213   9.468  0.8809  1.1714  0.5857
   22SAPC  C210 2890  -0.333   2.267   9.376 -0.1964  0.1174 -0.2159
   22SAPC  H10R 2891  -0.412   2.332   9.419 -1.4915 -1.1435 -0.6353
   22SAPC  H10S 2892  -0.384   2.180   9.330 -0.3082 -0.4061  0.8781
   22SAPC  C211 2893  -0.251   2.347   9.274 -0.2301  0.1466  0.7374
   22SAPC  H11R 2894  -0.167   2.409   9.309 -0.8488  2.2052 -1.2050
   22SAPC  C212 2895  -0.275   2.341   9.138  0.6197 -0.0767 -0.2290
   22SAPC  H12R 2896  -0.212   2.391   9.063 -1.3636  0.6706 -1.4715
   22SAPC  C213 2897  -0.390   2.272   9.073  0.4169 -0.0076 -0.5028
   22SAPC  H13R 2898  -0.427   2.336   8.990  2.3459  1.9033  0.0040
   22SAPC  H13S 2899  -0.477   2.256   9.140  0.6698 -1.1899 -0.4280
   22SAPC  C214 2900  -0.344   2.147   9.011  0.1730 -0.6314  0.0700
   22SAPC  H14R 2901  -0.245   2.120   9.049  1.1362  4.1606  1.6373
   22SAPC  C215 2902  -0.418   2.066   8.924  0.4162  0.0035 -0.4468
   22SAPC  H15R 2903  -0.370   1.970   8.898  0.0495 -1.2573  3.0924
   22SAPC  C216 2904  -0.561   2.097   8.891 -0.2473  0.1789  0.1656
   22SAPC  H16R 2905  -0.587   2.205   8.878  0.3909  0.3014 -0.1259
   22SAPC  H16S 2906  -0.631   2.066   8.971 -0.1765  2.1565  1.0712
   22SAPC  C217 2907  -0.602   2.029   8.757 -0.3134 -0.0426 -0.9836
   22SAPC  H17R 2908  -0.708   2.058   8.741 -0.8804 -0.3066  1.7664
   22SAPC  H17S 2909  -0.594   1.919   8.770  2.5960  0.2635  0.7064
   22SAPC  C218 2910  -0.532   2.090   8.628  0.7880 -0.2069  0.0570
   22SAPC  H18R 2911  -0.590   2.063   8.537 -2.2553  1.1205  1.5003
   22SAPC  H18S 2912  -0.433   2.041   8.611  0.6470 -0.0959 -1.1731
   22SAPC  C219 2913  -0.516   2.243   8.615  0.4856 -0.1538  0.8377
   22SAPC  H19R 2914  -0.430   2.267   8.548 -0.0955 -0.5708 -0.0790
   22SAPC  H19S 2915  -0.485   2.279   8.715  2.0109 -0.9041  0.6739
   22SAPC  C220 2916  -0.643   2.315   8.559  0.6533 -0.0885 -0.3372
   22SAPC  H20R 2917  -0.727   2.320   8.632 -0.9797 -0.9520 -2.0483
   22SAPC  H20S 2918  -0.686   2.278   8.463 -0.5741  0.7306 -0.1239
   22SAPC  H20T 2919  -0.618   2.423   8.554 -1.0942  0.3867  0.2512
   22SAPC   C33 2920   0.020   1.846   9.889 -0.6749  0.1079 -0.5772
   22SAPC   H3X 2921  -0.012   1.747   9.849 -1.9956 -0.4864  1.7950
   22SAPC   H3Y 2922   0.128   1.828   9.908 -0.4690  0.2225 -1.5398
   22SAPC   C34 2923   0.007   1.964   9.789  0.2403 -0.0527 -0.4194
   22SAPC   H4X 2924   0.023   2.058   9.846  3.8658 -1.4336  1.1291
   22SAPC   H4Y 2925  -0.097   1.960   9.749 -0.8339 -2.0654  2.3382
   22SAPC   C35 2926   0.100   1.944   9.673  0.1098 -0.1660  0.1095
   22SAPC   H5X 2927   0.083   1.844   9.628  1.2238  0.1830 -1.1683
   22SAPC   H5Y 2928   0.207   1.944   9.704 -0.1388 -1.4127  1.0349
   22SAPC   C36 2929   0.072   2.042   9.562  0.1281  0.0243  0.6965
   22SAPC   H6X 2930   0.093   2.149   9.585  1.1743  0.3722 -1.6211
   22SAPC   H6Y 2931  -0.034   2.029   9.533  0.3333 -1.2893  0.4870
   22SAPC   C37 2932   0.143   2.002   9.436 -0.4890  0.6409  0.2884
   22SAPC   H7X 2933   0.110   1.903   9.398  0.7515  0.3748 -0.1304
   22SAPC   H7Y 2934   0.254   2.008   9.446 -0.2124 -0.4620 -1.6162
   22SAPC   C38 2935   0.116   2.105   9.321 -0.0735 -0.4818  0.0882
   22SAPC   H8X 2936   0.167   2.198   9.352 -0.5301 -0.2105  0.0339
   22SAPC   H8Y 2937   0.008   2.129   9.313 -0.1144 -0.2188  1.3493
   22SAPC   C39 2938   0.164   2.074   9.185 -0.1006 -0.4267 -0.1213
   22SAPC   H9X 2939   0.121   1.976   9.153 -0.8482 -0.4372  0.8674
   22SAPC   H9Y 2940   0.275   2.070   9.181  0.0525  2.0281  0.3576
   22SAPC  C310 2941   0.140   2.194   9.084  0.1463  0.8200 -0.5052
   22SAPC  H10X 2942   0.189   2.282   9.129 -0.4979  0.7458  0.3613
   22SAPC  H10Y 2943   0.031   2.214   9.089 -0.1059 -0.7039  0.8130
   22SAPC  C311 2944   0.190   2.155   8.951  0.8679 -0.0964 -0.0154
   22SAPC  H11X 2945   0.140   2.062   8.917 -0.1482  1.1371 -2.1710
   22SAPC  H11Y 2946   0.300   2.145   8.958  1.1879  1.8949 -1.3171
   22SAPC  C312 2947   0.166   2.265   8.847  0.5725 -0.0882 -0.4315
   22SAPC  H12X 2948   0.256   2.252   8.783  0.2769  0.2646 -0.9203
   22SAPC  H12Y 2949   0.180   2.370   8.882  1.3974 -1.1964  2.9830
   22SAPC  C313 2950   0.038   2.255   8.767  0.4420  1.1600  0.0234
   22SAPC  H13X 2951   0.031   2.345   8.702 -0.6994 -0.1884 -1.8400
   22SAPC  H13Y 2952  -0.048   2.267   8.836 -1.3358 -1.9824 -1.4533
   22SAPC  C314 2953   0.025   2.133   8.673  0.1522  0.2747 -0.2554
   22SAPC  H14X 2954   0.007   2.040   8.731 -2.7009  0.3975 -0.7803
   22SAPC  H14Y 2955   0.119   2.126   8.614 -0.3325  0.0947 -1.0309
   22SAPC  C315 2956  -0.102   2.146   8.587  0.3516  0.3909 -0.3237
   22SAPC  H15X 2957  -0.098   2.232   8.516 -1.3258 -1.1839 -2.4824
   22SAPC  H15Y 2958  -0.183   2.154   8.663 -1.2614 -0.9550 -1.8088
   22SAPC  C316 2959  -0.118   2.022   8.495 -0.3304 -0.3773 -0.6899
   22SAPC  H16X 2960  -0.212   2.031   8.436  1.4331 -1.0994 -3.8411
   22SAPC  H16Y 2961  -0.112   1.925   8.549  0.6404  0.3974  0.6341
   22SAPC  C317 2962  -0.022   2.032   8.372 -0.2291  0.1320  0.1643
   22SAPC  H17X 2963   0.084   2.043   8.402  0.4206  2.8132 -2.5917
   22SAPC  H17Y 2964  -0.046   2.120   8.309  0.3207 -0.0304 -0.2815
   22SAPC  C318 2965  -0.034   1.910   8.278  0.5287  0.0215 -0.0416
   22SAPC  H18X 2966  -0.140   1.879   8.292 -0.4224  3.2233  0.6964
   22SAPC  H18Y 2967   0.034   1.834   8.322 -0.0670  0.4041  1.6185
   22SAPC  H18Z 2968  -0.004   1.933   8.174 -0.4960 -0.6252 -0.4925
   23SAPC     N 2969   6.640   3.881  10.863  0.0807 -0.6909  0.8134
   23SAPC   C12 2970   6.560   3.972  10.768  0.4687  0.1864 -0.4292
   23SAPC  H12A 2971   6.534   4.061  10.824  1.4958 -0.9753  2.0389
   23SAPC  H12B 2972   6.468   3.922  10.740  0.6311  0.5092 -1.6023
   23SAPC   C13 2973   6.678   3.761  10.785  0.4638  0.1498  0.1969
   23SAPC  H13A 2974   6.594   3.710  10.742  0.4235 -2.4117  2.9402
   23SAPC  H13B 2975   6.748   3.800  10.712 -0.5873  2.3147  0.2637
   23SAPC  H13C 2976   6.723   3.684  10.846  1.1764  2.8411  3.3856
   23SAPC   C14 2977   6.767   3.944  10.908 -0.6640  0.3208  0.3320
   23SAPC  H14A 2978   6.822   3.962  10.817 -1.4565  1.5547  0.0743
   23SAPC  H14B 2979   6.749   4.040  10.954 -1.9892 -0.0484  0.6127
   23SAPC  H14C 2980   6.816   3.880  10.980 -0.1997 -0.6009 -0.7634
   23SAPC   C15 2981   6.557   3.840  10.978  1.0297  0.9656  0.3207
   23SAPC  H15A 2982   6.460   3.803  10.948  1.5766  0.7689 -1.2691
   23SAPC  H15B 2983   6.602   3.752  11.023 -0.8679  0.0009  0.4490
   23SAPC  H15C 2984   6.549   3.922  11.048  1.3519  0.6789  0.7031
   23SAPC   C11 2985   6.633   4.026  10.641 -0.6854  0.0789 -0.0087
   23SAPC  H11A 2986   6.559   4.068  10.569 -0.0471 -0.0595 -0.7491
   23SAPC  H11B 2987   6.670   3.935  10.590 -1.6083 -0.2300 -0.1516
   23SAPC     P 2988   6.720   4.267  10.707  0.2322  0.1490 -0.4705
   23SAPC   O13 2989   6.587   4.274  10.773  0.5721 -0.0802 -0.0839
   23SAPC   O14 2990   6.837   4.320  10.783  0.0819  0.6390  0.3516
   23SAPC   O12 2991   6.744   4.116  10.672  0.1562  0.0820  0.2099
   23SAPC   O11 2992   6.705   4.332  10.562  0.2756  0.1154 -0.2179
   23SAPC    C1 2993   6.780   4.290  10.447  0.8753  0.1406 -0.3028
   23SAPC    HA 2994   6.838   4.380  10.419 -0.2024  1.2028  0.7407
   23SAPC    HB 2995   6.857   4.214  10.467  0.9621  0.0725 -0.8704
   23SAPC    C2 2996   6.693   4.235  10.327  0.9490  0.0078 -0.0946
   23SAPC    HS 2997   6.684   4.125  10.340 -0.7909 -0.1911 -2.2155
   23SAPC   O21 2998   6.766   4.260  10.205 -0.2930 -0.3396  0.0656
   23SAPC   C21 2999   6.879   4.193  10.193 -0.1526 -0.3789 -0.1084
   23SAPC   O22 3000   6.915   4.098  10.264 -0.0516 -0.0540 -0.0539
   23SAPC   C22 3001   6.958   4.248  10.072  0.2047 -0.3095 -0.4833
   23SAPC   H2R 3002   6.952   4.187   9.980  1.9554 -0.3300 -0.6082
   23SAPC   H2S 3003   6.925   4.352  10.052  0.2760 -0.1864  0.0272
   23SAPC    C3 3004   6.551   4.285  10.317  1.1154 -0.1208  0.3549
   23SAPC    HX 3005   6.500   4.255  10.412 -0.6255 -0.0280 -0.5179
   23SAPC    HY 3006   6.480   4.241  10.244 -0.1877  0.3468  1.2843
   23SAPC   O31 3007   6.545   4.429  10.315  0.1323  0.0511  0.2818
   23SAPC   C31 3008   6.551   4.478  10.193 -0.7438 -0.5325 -0.2567
   23SAPC   O32 3009   6.543   4.410  10.092  0.2013 -0.0919 -0.1000
   23SAPC   C32 3010   6.579   4.635  10.200 -0.1001  0.2759  0.4562
   23SAPC   H2X 3011   6.689   4.623  10.207  0.2033  2.3316 -0.0374
   23SAPC   H2Y 3012   6.547   4.685  10.294 -1.6019  0.3724 -0.0758
   23SAPC   C23 3013   7.107   4.253  10.111  0.4320  0.0802 -0.0952
   23SAPC   H3R 3014   7.169   4.264  10.020  1.1418 -1.0924  0.2232
   23SAPC   H3S 3015   7.156   4.163  10.154  0.6045 -0.3969 -1.2487
   23SAPC   C24 3016   7.140   4.379  10.194  0.0843 -1.0191 -0.8285
   23SAPC   H4R 3017   7.091   4.372  10.294  1.2087 -0.4121 -0.2103
   23SAPC   H4S 3018   7.082   4.465  10.153 -1.0962 -0.8706  1.0196
   23SAPC   C25 3019   7.283   4.405  10.199 -0.6889  0.5788 -0.2163
   23SAPC   H5R 3020   7.337   4.340  10.269  0.0145  0.7809 -0.5586
   23SAPC   C26 3021   7.350   4.480  10.118 -0.2774 -0.5024  0.2695
   23SAPC   H6R 3022   7.458   4.491  10.131 -0.3201  3.3408 -1.0728
   23SAPC   C27 3023   7.303   4.563  10.005 -0.9451  0.5863 -0.8142
   23SAPC   H7R 3024   7.201   4.601  10.029 -0.2396  1.9274  0.2505
   23SAPC   H7S 3025   7.282   4.484   9.930 -2.7367  0.1993  0.0598
   23SAPC   C28 3026   7.387   4.675   9.955 -0.0827 -0.2940  0.9323
   23SAPC   H8R 3027   7.367   4.773  10.001 -1.0238 -0.5716  1.1379
   23SAPC   C29 3028   7.494   4.667   9.867 -0.0427 -0.1683 -0.4837
   23SAPC   H9R 3029   7.535   4.763   9.834 -4.3179  1.1731 -2.5922
   23SAPC  C210 3030   7.541   4.532   9.802 -0.2350  0.0779 -0.1290
   23SAPC  H10R 3031   7.455   4.487   9.749 -1.6630  0.3858  1.7987
   23SAPC  H10S 3032   7.565   4.462   9.886 -0.2088  1.9667  1.5089
   23SAPC  C211 3033   7.658   4.557   9.705 -0.0191 -0.1222  0.3917
   23SAPC  H11R 3034   7.752   4.526   9.754  0.4156  1.0386  0.3128
   23SAPC  C212 3035   7.651   4.593   9.578 -0.3027 -0.0392 -0.4334
   23SAPC  H12R 3036   7.745   4.600   9.521 -0.1553  2.4758  0.0071
   23SAPC  C213 3037   7.523   4.626   9.501  0.1512 -0.1420  0.3169
   23SAPC  H13R 3038   7.541   4.710   9.431 -0.4012 -0.2184  0.0832
   23SAPC  H13S 3039   7.433   4.657   9.558 -0.0243  0.4490 -0.2698
   23SAPC  C214 3040   7.510   4.493   9.430  0.1889  0.7365 -1.4430
   23SAPC  H14R 3041   7.487   4.410   9.498  3.6475 -0.8149 -1.9608
   23SAPC  C215 3042   7.495   4.476   9.303 -0.4625  0.9522  0.1535
   23SAPC  H15R 3043   7.491   4.374   9.263 -1.8088  1.2669 -0.5911
   23SAPC  C216 3044   7.488   4.578   9.186 -0.9875  0.6542 -0.9283
   23SAPC  H16R 3045   7.549   4.666   9.215  2.4830 -1.3807 -1.4921
   23SAPC  H16S 3046   7.383   4.604   9.160 -0.8533  0.0157 -2.2135
   23SAPC  C217 3047   7.550   4.506   9.060 -0.3739 -0.2240 -0.3233
   23SAPC  H17R 3048   7.472   4.434   9.024 -1.1381 -0.8741  2.4038
   23SAPC  H17S 3049   7.646   4.453   9.075 -0.2793 -0.1950 -0.8235
   23SAPC  C218 3050   7.576   4.600   8.938 -0.2555 -0.2746 -0.5607
   23SAPC  H18R 3051   7.521   4.695   8.952  3.1300  2.2432 -2.7095
   23SAPC  H18S 3052   7.540   4.543   8.850 -0.7317 -1.7481  0.5264
   23SAPC  C219 3053   7.728   4.637   8.919 -0.8435 -0.8743 -0.4567
   23SAPC  H19R 3054   7.778   4.655   9.017  2.4135  0.5233 -2.2217
   23SAPC  H19S 3055   7.719   4.735   8.866 -0.1198 -0.6956 -0.2688
   23SAPC  C220 3056   7.807   4.550   8.819  0.6360  0.0038 -0.4207
   23SAPC  H20R 3057   7.841   4.462   8.879  1.1195 -0.6838 -1.6720
   23SAPC  H20S 3058   7.895   4.608   8.783  0.4622  1.6582  1.6438
   23SAPC  H20T 3059   7.754   4.514   8.729  0.4748 -1.2773  0.1560
   23SAPC   C33 3060   6.517   4.720  10.083  0.6130 -0.5366  0.3901
   23SAPC   H3X 3061   6.531   4.684   9.979  2.4879  1.5912 -0.1684
   23SAPC   H3Y 3062   6.564   4.820  10.092  2.2624 -1.2374 -0.0022
   23SAPC   C34 3063   6.367   4.742  10.109 -0.4809 -0.6131  0.7283
   23SAPC   H4X 3064   6.352   4.786  10.210  1.1099  0.4502  0.5347
   23SAPC   H4Y 3065   6.322   4.642  10.093  0.7418 -0.9199 -1.0560
   23SAPC   C35 3066   6.303   4.832  10.009  0.8097 -0.1662  0.5767
   23SAPC   H5X 3067   6.306   4.779   9.912 -1.9563  0.4758  0.0514
   23SAPC   H5Y 3068   6.364   4.923   9.995  0.8222 -0.3044 -0.2979
   23SAPC   C36 3069   6.160   4.889  10.047 -0.4402  0.7026  0.8001
   23SAPC   H6X 3070   6.170   4.958  10.133 -1.0173  0.4635  1.0607
   23SAPC   H6Y 3071   6.088   4.809  10.074 -1.2126  0.8055 -0.8295
   23SAPC   C37 3072   6.102   4.963   9.928 -0.6469 -0.2645  0.4046
   23SAPC   H7X 3073   6.170   5.047   9.903 -0.3946 -1.1067 -1.9906
   23SAPC   H7Y 3074   6.010   5.012   9.967 -0.6394 -1.3259  1.8542
   23SAPC   C38 3075   6.073   4.874   9.801 -0.2056  0.9006  0.2929
   23SAPC   H8X 3076   5.995   4.800   9.829 -1.2380  1.1226 -1.8361
   23SAPC   H8Y 3077   6.156   4.807   9.771 -0.8681 -0.8146  2.0614
   23SAPC   C39 3078   6.015   4.965   9.694 -0.1567  0.4878 -0.0786
   23SAPC   H9X 3079   6.105   5.027   9.671  0.8836 -0.7068  0.6427
   23SAPC   H9Y 3080   5.933   5.028   9.734 -1.5080 -0.4757 -1.2119
   23SAPC  C310 3081   5.974   4.919   9.558  0.2101  0.6627  0.0771
   23SAPC  H10X 3082   6.067   4.867   9.528  0.6459  0.4027  1.7506
   23SAPC  H10Y 3083   5.956   4.998   9.483  1.5843  0.4568 -0.5017
   23SAPC  C311 3084   5.843   4.836   9.561 -0.5906  0.3320  0.8050
   23SAPC  H11X 3085   5.761   4.908   9.579  0.8135  2.0733  0.4737
   23SAPC  H11Y 3086   5.854   4.769   9.650 -1.8681 -1.9787 -0.6779
   23SAPC  C312 3087   5.811   4.748   9.438  0.5037 -0.9389 -0.2167
   23SAPC  H12X 3088   5.726   4.688   9.477 -0.5769  1.2231  0.9053
   23SAPC  H12Y 3089   5.901   4.683   9.430  1.7437  0.7926 -1.1833
   23SAPC  C313 3090   5.783   4.824   9.307 -0.7344 -0.0409 -0.4866
   23SAPC  H13X 3091   5.830   4.924   9.322 -3.0206  0.8690  1.0081
   23SAPC  H13Y 3092   5.676   4.841   9.284 -0.5871  1.5686 -0.1422
   23SAPC  C314 3093   5.842   4.744   9.189  0.2167  0.1702 -0.0659
   23SAPC  H14X 3094   5.798   4.642   9.192 -1.1537  0.7478  0.2050
   23SAPC  H14Y 3095   5.951   4.731   9.204  0.5763  0.2890 -2.2847
   23SAPC  C315 3096   5.815   4.803   9.048  0.2129  0.4239 -0.9193
   23SAPC  H15X 3097   5.836   4.912   9.037  0.1188  0.3064 -2.6543
   23SAPC  H15Y 3098   5.706   4.794   9.027  0.3056 -3.1448 -0.3747
   23SAPC  C316 3099   5.878   4.720   8.943 -0.6058 -0.4581 -0.0977
   23SAPC  H16X 3100   5.875   4.617   8.983 -1.9147 -1.1580 -1.8593
   23SAPC  H16Y 3101   5.985   4.747   8.939 -0.7444  0.0353 -0.6151
   23SAPC  C317 3102   5.821   4.715   8.807  0.3402  0.4752 -0.0388
   23SAPC  H17X 3103   5.860   4.809   8.762 -0.1806  0.2706 -0.9409
   23SAPC  H17Y 3104   5.710   4.712   8.803  0.2082  1.5747  1.8675
   23SAPC  C318 3105   5.871   4.594   8.721 -0.2443 -0.0289 -0.2036
   23SAPC  H18X 3106   5.804   4.601   8.633 -0.7735  0.3190  0.2132
   23SAPC  H18Y 3107   5.832   4.501   8.768  1.7417 -0.2019  1.2094
   23SAPC  H18Z 3108   5.980   4.599   8.700 -0.3621  1.0498 -0.6410
   24SAPC     N 3109   3.897   2.688  10.871  0.2794 -0.3935 -0.0435
   24SAPC   C12 3110   3.887   2.827  10.805 -0.4618  0.0609 -1.0486
   24SAPC  H12A 3111   3.955   2.845  10.723  1.2262 -2.4873 -0.3307
   24SAPC  H12B 3112   3.930   2.901  10.871  4.9374 -2.5373 -1.0977
   24SAPC   C13 3113   3.822   2.580  10.799 -0.4932 -0.0175  0.2607
   24SAPC  H13A 3114   3.720   2.608  10.776  0.0171  1.1139 -0.7972
   24SAPC  H13B 3115   3.874   2.580  10.704 -0.3068  2.7816  0.2576
   24SAPC  H13C 3116   3.823   2.482  10.843  1.4062 -0.2116 -0.1155
   24SAPC   C14 3117   4.045   2.653  10.881  0.4189  0.1038 -0.5110
   24SAPC  H14A 3118   4.092   2.642  10.784 -0.2629  2.3122 -1.1555
   24SAPC  H14B 3119   4.103   2.718  10.944  2.7331 -1.4493 -0.9273
   24SAPC  H14C 3120   4.053   2.554  10.923 -1.8024 -1.6908 -3.8207
   24SAPC   C15 3121   3.829   2.694  11.002  0.3341  0.2612  0.8658
   24SAPC  H15A 3122   3.725   2.721  10.999  0.1848 -0.1178  2.1018
   24SAPC  H15B 3123   3.832   2.595  11.046 -0.2535  0.0798  0.5082
   24SAPC  H15C 3124   3.869   2.754  11.082  1.8808 -0.4051  0.6359
   24SAPC   C11 3125   3.753   2.868  10.756  0.5068 -0.1553 -0.7203
   24SAPC  H11A 3126   3.732   2.809  10.664  1.1482  0.3367 -1.1943
   24SAPC  H11B 3127   3.769   2.970  10.716  1.9131  0.4622  1.2623
   24SAPC     P 3128   3.489   2.844  10.819  0.1067  0.0671 -0.2056
   24SAPC   O13 3129   3.449   2.705  10.839 -0.3531  0.0727 -0.0144
   24SAPC   O14 3130   3.405   2.950  10.886  0.7649  0.0442  0.2164
   24SAPC   O12 3131   3.644   2.866  10.854  0.3983  0.1568 -0.1156
   24SAPC   O11 3132   3.488   2.873  10.656 -0.4455  0.8990 -0.1539
   24SAPC    C1 3133   3.438   2.993  10.600 -1.0871  0.3774 -0.5285
   24SAPC    HA 3134   3.328   2.995  10.611 -0.8473  0.7800  2.7700
   24SAPC    HB 3135   3.484   3.081  10.650 -0.5278 -0.2547  0.0989
   24SAPC    C2 3136   3.489   3.018  10.454  0.0163  0.0529  0.6554
   24SAPC    HS 3137   3.438   3.106  10.409  1.5624 -0.6771 -2.9079
   24SAPC   O21 3138   3.470   2.893  10.385  0.4212 -0.3281 -0.5187
   24SAPC   C21 3139   3.356   2.877  10.330  0.2160 -0.2856 -0.5532
   24SAPC   O22 3140   3.261   2.952  10.326  0.8294 -0.2231 -0.3487
   24SAPC   C22 3141   3.362   2.752  10.241 -0.3164  0.2633 -0.3299
   24SAPC   H2R 3142   3.410   2.669  10.296 -0.2487  1.3363  1.3035
   24SAPC   H2S 3143   3.257   2.722  10.219  0.1027 -0.9979 -0.7076
   24SAPC    C3 3144   3.644   3.052  10.441 -0.0782 -0.9636 -0.2017
   24SAPC    HX 3145   3.697   2.973  10.499  0.1009 -0.9080 -0.2889
   24SAPC    HY 3146   3.666   3.144  10.498 -0.0954 -1.4542  0.6154
   24SAPC   O31 3147   3.689   3.086  10.308  0.2750  0.5136 -0.6481
   24SAPC   C31 3148   3.773   2.998  10.259  0.3083 -0.2240 -0.1757
   24SAPC   O32 3149   3.807   2.896  10.311 -0.4881  0.9674 -0.5964
   24SAPC   C32 3150   3.833   3.052  10.123  0.3197 -0.2687 -0.8908
   24SAPC   H2X 3151   3.929   3.007  10.091  0.2540  0.7356 -2.5995
   24SAPC   H2Y 3152   3.858   3.157  10.148 -2.2543  0.3979 -0.8800
   24SAPC   C23 3153   3.445   2.776  10.119 -0.3225 -0.4170 -0.0966
   24SAPC   H3R 3154   3.444   2.676  10.070  0.7564 -0.4573 -0.0623
   24SAPC   H3S 3155   3.549   2.795  10.152 -0.9156  0.7201  1.2150
   24SAPC   C24 3156   3.399   2.885  10.024 -0.1088  0.5265 -0.5232
   24SAPC   H4R 3157   3.467   2.867   9.938 -0.6983 -1.5064 -0.6205
   24SAPC   H4S 3158   3.406   2.989  10.064 -1.6353  1.7464 -3.1075
   24SAPC   C25 3159   3.254   2.865   9.986 -0.2895 -1.0992 -0.3811
   24SAPC   H5R 3160   3.191   2.840  10.072 -1.9495  0.9023 -0.9368
   24SAPC   C26 3161   3.193   2.878   9.871  0.0148 -0.2074 -0.3060
   24SAPC   H6R 3162   3.085   2.860   9.875 -0.0199  0.1272  0.4513
   24SAPC   C27 3163   3.258   2.915   9.739  0.8332  0.1110  0.7688
   24SAPC   H7R 3164   3.347   2.982   9.743  1.8627 -1.0247 -1.4229
   24SAPC   H7S 3165   3.191   2.970   9.670 -0.1219 -0.5788  1.1290
   24SAPC   C28 3166   3.325   2.797   9.673 -0.4272  0.0071  0.2516
   24SAPC   H8R 3167   3.379   2.725   9.736  1.6428 -0.8054 -2.2756
   24SAPC   C29 3168   3.338   2.770   9.540 -0.4963 -0.1062 -0.0522
   24SAPC   H9R 3169   3.370   2.670   9.505  0.0875 -0.3611  1.1430
   24SAPC  C210 3170   3.290   2.866   9.436 -0.0805 -0.6686 -0.2891
   24SAPC  H10R 3171   3.202   2.916   9.480  1.7152  0.3976  2.3240
   24SAPC  H10S 3172   3.248   2.809   9.350  1.0897  0.2410 -1.5241
   24SAPC  C211 3173   3.380   2.975   9.384 -0.0856  0.0782  0.7834
   24SAPC  H11R 3174   3.449   3.014   9.460  0.5352  0.1801  0.1804
   24SAPC  C212 3175   3.389   3.006   9.257 -0.0389  0.4472  0.3325
   24SAPC  H12R 3176   3.454   3.089   9.228  0.4330  0.4842  1.4493
   24SAPC  C213 3177   3.320   2.957   9.133  0.4189  0.2658  0.7307
   24SAPC  H13R 3178   3.221   2.917   9.165  0.1310  1.2324  1.0679
   24SAPC  H13S 3179   3.379   2.877   9.085  0.1897  1.2767 -1.3243
   24SAPC  C214 3180   3.301   3.066   9.027 -0.1962 -0.1596  0.1078
   24SAPC  H14R 3181   3.220   3.134   9.054 -1.8940 -2.4570  1.1977
   24SAPC  C215 3182   3.365   3.078   8.903 -0.6442 -0.0075  0.0246
   24SAPC  H15R 3183   3.344   3.154   8.826  2.4341  1.3726  0.3962
   24SAPC  C216 3184   3.475   2.980   8.854 -0.3188 -0.1023  0.4479
   24SAPC  H16R 3185   3.443   2.879   8.888 -0.3572  0.4007  2.0157
   24SAPC  H16S 3186   3.571   3.001   8.905  0.1199 -0.7669 -0.0926
   24SAPC  C217 3187   3.495   2.975   8.702 -0.2435 -0.3124 -0.2412
   24SAPC  H17R 3188   3.543   3.072   8.677  0.7414 -0.7789 -0.2076
   24SAPC  H17S 3189   3.396   2.953   8.657 -0.8605 -2.7692  2.1150
   24SAPC  C218 3190   3.578   2.850   8.661  0.5473 -0.1774  0.5946
   24SAPC  H18R 3191   3.539   2.754   8.701 -0.4134  0.2222  0.6510
   24SAPC  H18S 3192   3.681   2.871   8.697  1.1057 -0.8836 -0.5686
   24SAPC  C219 3193   3.581   2.839   8.512 -0.1750  0.1573 -0.4882
   24SAPC  H19R 3194   3.475   2.849   8.482 -0.1589 -2.0893 -1.4608
   24SAPC  H19S 3195   3.622   2.742   8.477  0.6317 -0.4101  1.8582
   24SAPC  C220 3196   3.658   2.941   8.437  0.4813 -0.0016 -0.5302
   24SAPC  H20R 3197   3.670   2.901   8.334 -1.4931  0.7904 -1.1182
   24SAPC  H20S 3198   3.757   2.937   8.487 -0.3248 -1.9034  1.0893
   24SAPC  H20T 3199   3.618   3.044   8.449 -0.4547 -0.1052 -2.3644
   24SAPC   C33 3200   3.730   3.048  10.002  0.8444 -0.7957  0.0351
   24SAPC   H3X 3201   3.657   3.127  10.029  1.6435  0.1436 -0.5302
   24SAPC   H3Y 3202   3.660   2.962  10.002 -2.4552  1.6853  0.4682
   24SAPC   C34 3203   3.804   3.064   9.877  0.5259  0.0617 -0.4424
   24SAPC   H4X 3204   3.869   2.981   9.842 -1.2505 -0.4666 -2.7034
   24SAPC   H4Y 3205   3.875   3.149   9.887  0.3073  0.1720  0.2187
   24SAPC   C35 3206   3.711   3.107   9.763  0.1222  0.1698 -0.5142
   24SAPC   H5X 3207   3.645   3.181   9.814 -1.1818 -1.0569 -0.3658
   24SAPC   H5Y 3208   3.642   3.027   9.731  1.6697 -1.5447  0.2240
   24SAPC   C36 3209   3.794   3.169   9.657 -0.1402 -0.1340 -0.5029
   24SAPC   H6X 3210   3.878   3.102   9.629  1.6610  1.2286  1.3628
   24SAPC   H6Y 3211   3.848   3.260   9.692  0.9014 -0.7745 -0.4148
   24SAPC   C37 3212   3.703   3.220   9.546 -0.7894 -0.9147 -0.1432
   24SAPC   H7X 3213   3.682   3.327   9.569 -0.1195 -0.6927 -0.5363
   24SAPC   H7Y 3214   3.599   3.180   9.538 -1.3970  0.8446 -1.9679
   24SAPC   C38 3215   3.771   3.211   9.403 -0.0912  0.0906 -0.3520
   24SAPC   H8X 3216   3.872   3.256   9.407 -0.6735  1.7458 -2.4317
   24SAPC   H8Y 3217   3.705   3.270   9.337  1.7160  1.1316 -1.3050
   24SAPC   C39 3218   3.766   3.073   9.330  0.0416 -0.8386 -0.4376
   24SAPC   H9X 3219   3.666   3.028   9.347 -1.8290  3.2672  0.5841
   24SAPC   H9Y 3220   3.842   3.015   9.387  0.0120  0.4422  0.9733
   24SAPC  C310 3221   3.804   3.080   9.179 -0.6396 -0.2354  0.7834
   24SAPC  H10X 3222   3.908   3.119   9.180 -0.4235 -0.7855  0.4566
   24SAPC  H10Y 3223   3.745   3.158   9.127 -0.1487  0.9070  1.9065
   24SAPC  C311 3224   3.809   2.937   9.111  0.2363  0.0677 -0.6079
   24SAPC  H11X 3225   3.710   2.887   9.121  0.6667 -0.8276 -0.6860
   24SAPC  H11Y 3226   3.881   2.874   9.168 -0.1778 -0.8325 -1.0640
   24SAPC  C312 3227   3.852   2.957   8.967 -0.2815 -0.0564  0.8007
   24SAPC  H12X 3228   3.940   3.023   8.947  0.1974 -0.9896 -0.2997
   24SAPC  H12Y 3229   3.775   2.993   8.896 -0.3366 -0.6479  0.5556
   24SAPC  C313 3230   3.882   2.813   8.905  0.2550 -0.1671 -0.8173
   24SAPC  H13X 3231   3.789   2.754   8.897 -0.0709  0.4720 -1.9573
   24SAPC  H13Y 3232   3.957   2.764   8.971 -1.0204  1.2538  1.8932
   24SAPC  C314 3233   3.941   2.832   8.760 -0.3946  0.9403 -1.0207
   24SAPC  H14X 3234   4.041   2.877   8.776 -0.3775  0.0790  1.8210
   24SAPC  H14Y 3235   3.881   2.909   8.705 -1.1880  0.3180 -1.0504
   24SAPC  C315 3236   3.957   2.711   8.660  0.0439 -0.6436  0.3820
   24SAPC  H15X 3237   3.857   2.676   8.629 -0.0001 -1.2912  1.2258
   24SAPC  H15Y 3238   4.013   2.629   8.710  1.0895  1.6895  3.3641
   24SAPC  C316 3239   4.020   2.744   8.523 -0.4479  0.9739 -0.3300
   24SAPC  H16X 3240   3.976   2.840   8.486 -1.6752  0.9160  0.8690
   24SAPC  H16Y 3241   4.012   2.659   8.452 -0.3224 -1.0760  1.9882
   24SAPC  C317 3242   4.172   2.766   8.538 -0.4341  0.1255  0.0409
   24SAPC  H17X 3243   4.199   2.658   8.533  1.3719  0.6247 -2.0546
   24SAPC  H17Y 3244   4.203   2.823   8.629 -3.3644  0.9092  0.6564
   24SAPC  C318 3245   4.217   2.838   8.416 -0.3564  0.1470 -0.4263
   24SAPC  H18X 3246   4.185   2.801   8.316  0.5086  1.3778 -1.1797
   24SAPC  H18Y 3247   4.328   2.836   8.419 -0.3681 -2.1321  2.0209
   24SAPC  H18Z 3248   4.188   2.945   8.420 -2.2246 -0.2060 -2.4317
   25SAPC     N 3249   4.855   6.143   5.975  0.4097  0.3357  0.3648
   25SAPC   C12 3250   4.861   6.296   5.999  0.2353  0.7343 -0.3146
   25SAPC  H12A 3251   4.853   6.352   5.907  2.2881  0.2419 -0.8255
   25SAPC  H12B 3252   4.959   6.313   6.041  1.2618  0.8335 -2.6100
   25SAPC   C13 3253   4.986   6.107   5.901 -0.5658 -0.0575 -0.0940
   25SAPC  H13A 3254   5.008   6.001   5.908  1.9135  0.5136  2.1795
   25SAPC  H13B 3255   4.999   6.142   5.799  0.7726 -1.4087 -0.4287
   25SAPC  H13C 3256   5.069   6.149   5.956  0.1398 -0.4098 -0.8588
   25SAPC   C14 3257   4.859   6.068   6.100  0.6788  0.1212 -0.2580
   25SAPC  H14A 3258   4.946   6.106   6.151 -0.6549  3.4627 -0.2410
   25SAPC  H14B 3259   4.770   6.089   6.157  0.8128 -0.2885  0.1042
   25SAPC  H14C 3260   4.870   5.964   6.073 -1.4606 -0.7708  1.9698
   25SAPC   C15 3261   4.747   6.094   5.891  0.4012 -0.0689  0.0533
   25SAPC  H15A 3262   4.749   6.128   5.788 -1.3337 -0.3264 -0.0904
   25SAPC  H15B 3263   4.740   5.987   5.891 -1.3383  0.0183  0.0968
   25SAPC  H15C 3264   4.650   6.130   5.924  0.1016 -1.0445  0.2587
   25SAPC   C11 3265   4.755   6.359   6.106 -0.6405  1.0254 -0.8334
   25SAPC  H11A 3266   4.793   6.453   6.150 -0.1841 -0.5554  2.4256
   25SAPC  H11B 3267   4.748   6.286   6.189 -0.7759 -0.1761 -1.8709
   25SAPC     P 3268   4.598   6.490   5.963 -0.2903 -0.1780 -0.0756
   25SAPC   O13 3269   4.707   6.496   5.864 -0.6538  0.8599  0.0287
   25SAPC   O14 3270   4.455   6.481   5.913  0.4805 -0.3495 -0.0857
   25SAPC   O12 3271   4.625   6.369   6.055 -0.3091  0.0087 -0.7176
   25SAPC   O11 3272   4.607   6.614   6.060 -0.6256 -0.0278 -0.4083
   25SAPC    C1 3273   4.527   6.625   6.179 -0.1681  0.2460 -0.8088
   25SAPC    HA 3274   4.477   6.724   6.180 -1.8817 -0.5139 -3.0839
   25SAPC    HB 3275   4.446   6.550   6.193 -0.3933  0.7636  0.9126
   25SAPC    C2 3276   4.616   6.626   6.312 -0.2560  0.0508 -0.2476
   25SAPC    HS 3277   4.655   6.525   6.335 -0.6231  0.0963  0.6086
   25SAPC   O21 3278   4.528   6.673   6.419  0.3294  0.2557 -0.0400
   25SAPC   C21 3279   4.499   6.589   6.510 -0.4939 -0.0020  0.0090
   25SAPC   O22 3280   4.534   6.467   6.514  0.6182  0.1369  0.1975
   25SAPC   C22 3281   4.411   6.654   6.621 -0.6479 -0.4311  0.6643
   25SAPC   H2R 3282   4.399   6.762   6.598 -0.3771 -0.7535 -1.0788
   25SAPC   H2S 3283   4.312   6.603   6.619 -0.4952 -0.7011 -0.4905
   25SAPC    C3 3284   4.734   6.723   6.298 -0.2423 -0.0001  0.3706
   25SAPC    HX 3285   4.697   6.826   6.280 -0.1039  0.0318  0.2736
   25SAPC    HY 3286   4.798   6.689   6.214  0.5551  1.1690  0.4903
   25SAPC   O31 3287   4.810   6.738   6.418  0.3113  0.2751  0.0253
   25SAPC   C31 3288   4.901   6.642   6.445 -0.2796 -0.0793 -0.1022
   25SAPC   O32 3289   4.923   6.540   6.381 -0.3948 -0.3648  0.1913
   25SAPC   C32 3290   4.968   6.670   6.584  0.7243 -0.5199  0.0221
   25SAPC   H2X 3291   4.920   6.761   6.625  1.7586  0.8515 -1.6567
   25SAPC   H2Y 3292   5.074   6.694   6.562 -0.0204  1.1843 -2.0966
   25SAPC   C23 3293   4.483   6.629   6.755  0.6492  0.2939 -0.2369
   25SAPC   H3R 3294   4.570   6.695   6.777 -1.4981  2.9982  0.7096
   25SAPC   H3S 3295   4.513   6.523   6.758  1.2930  0.4854  1.1923
   25SAPC   C24 3296   4.384   6.648   6.874 -0.4550  0.3434  0.0624
   25SAPC   H4R 3297   4.438   6.613   6.964  0.0205 -1.8871 -1.0187
   25SAPC   H4S 3298   4.297   6.580   6.860 -0.2341  0.0300  0.2241
   25SAPC   C25 3299   4.364   6.798   6.880 -0.4147  0.0382  0.4032
   25SAPC   H5R 3300   4.318   6.837   6.788  0.2653  0.2665  0.1545
   25SAPC   C26 3301   4.395   6.878   6.978  0.1601 -0.4906 -0.6774
   25SAPC   H6R 3302   4.360   6.983   6.972 -1.3810 -0.7766  1.6807
   25SAPC   C27 3303   4.462   6.847   7.115  0.5771 -0.6062 -0.6527
   25SAPC   H7R 3304   4.421   6.749   7.145 -0.8554  0.1765  0.0117
   25SAPC   H7S 3305   4.429   6.912   7.199  1.0983 -0.7369 -0.3354
   25SAPC   C28 3306   4.612   6.847   7.113  0.0546  0.0627  0.4078
   25SAPC   H8R 3307   4.666   6.893   7.029  1.9917 -1.0433  0.9830
   25SAPC   C29 3308   4.687   6.775   7.200 -0.2276 -0.5663 -0.2876
   25SAPC   H9R 3309   4.796   6.780   7.190 -0.2072 -0.6411 -0.1141
   25SAPC  C210 3310   4.634   6.703   7.326 -0.1147  0.0327  0.2780
   25SAPC  H10R 3311   4.602   6.607   7.281 -0.4336  0.0638  0.4405
   25SAPC  H10S 3312   4.540   6.751   7.358 -0.8536 -1.0937 -0.1445
   25SAPC  C211 3313   4.729   6.690   7.445 -0.2114  0.3283  0.2727
   25SAPC  H11R 3314   4.833   6.665   7.420 -0.0646  1.8816 -0.8232
   25SAPC  C212 3315   4.702   6.697   7.579 -0.1570 -0.2517  0.1385
   25SAPC  H12R 3316   4.783   6.675   7.649 -0.8718  1.5447  1.6333
   25SAPC  C213 3317   4.569   6.741   7.642 -0.7468 -0.0996  0.5522
   25SAPC  H13R 3318   4.490   6.748   7.564  1.2185  0.3519 -1.5038
   25SAPC  H13S 3319   4.580   6.843   7.684 -1.4218 -0.0812  0.6932
   25SAPC  C214 3320   4.520   6.647   7.750 -0.6565 -0.5269  0.4618
   25SAPC  H14R 3321   4.550   6.543   7.730 -0.6310 -0.5763  0.7487
   25SAPC  C215 3322   4.432   6.678   7.849 -0.0306 -0.1690 -0.3407
   25SAPC  H15R 3323   4.396   6.604   7.921  0.0959  1.2540  1.2403
   25SAPC  C216 3324   4.391   6.818   7.886 -0.2799 -0.0517  0.5815
   25SAPC  H16R 3325   4.293   6.850   7.844  0.4172  0.5092 -0.6445
   25SAPC  H16S 3326   4.468   6.890   7.853 -0.4222 -0.3179 -0.3453
   25SAPC  C217 3327   4.394   6.832   8.041 -0.7282  0.5107  0.5049
   25SAPC  H17R 3328   4.389   6.938   8.074  0.6833  0.0148  2.4984
   25SAPC  H17S 3329   4.489   6.789   8.079  0.3463  2.1756 -0.1840
   25SAPC  C218 3330   4.275   6.768   8.115  1.0195 -0.0021  0.2046
   25SAPC  H18R 3331   4.251   6.665   8.082  0.8852 -0.3481  1.3270
   25SAPC  H18S 3332   4.184   6.829   8.095  1.7026  0.2594 -2.3906
   25SAPC  C219 3333   4.292   6.746   8.263  0.5425 -0.0653 -0.1635
   25SAPC  H19R 3334   4.399   6.721   8.279  0.3723 -0.6716  0.0497
   25SAPC  H19S 3335   4.220   6.676   8.309 -0.5303  2.0398  1.5651
   25SAPC  C220 3336   4.273   6.890   8.329 -0.3380  0.4231 -0.4827
   25SAPC  H20R 3337   4.177   6.934   8.295 -0.5955  1.7615  1.7847
   25SAPC  H20S 3338   4.361   6.956   8.312 -2.3349  3.2277 -0.5858
   25SAPC  H20T 3339   4.262   6.875   8.439  1.3026 -0.0346 -0.3517
   25SAPC   C33 3340   4.955   6.553   6.683  0.2199  0.0792 -0.0060
   25SAPC   H3X 3341   5.008   6.465   6.639 -0.6784 -0.1229 -0.7210
   25SAPC   H3Y 3342   4.850   6.533   6.712  0.7408  0.3920  2.2611
   25SAPC   C34 3343   5.038   6.568   6.816  0.1259  1.2957 -0.6963
   25SAPC   H4X 3344   5.147   6.550   6.805 -0.1931 -1.8388  0.3127
   25SAPC   H4Y 3345   5.016   6.478   6.878  3.1602 -0.0084 -1.3043
   25SAPC   C35 3346   5.022   6.699   6.898 -1.6609  0.3314 -0.1160
   25SAPC   H5X 3347   4.919   6.704   6.940 -1.6489  0.9351 -0.1424
   25SAPC   H5Y 3348   5.037   6.793   6.841 -1.8147  0.0336 -0.6561
   25SAPC   C36 3349   5.111   6.696   7.028  0.0637  0.3534 -0.9462
   25SAPC   H6X 3350   5.095   6.793   7.079 -0.3123 -0.8606  1.3708
   25SAPC   H6Y 3351   5.216   6.694   6.990  0.1631  1.0530 -0.7169
   25SAPC   C37 3352   5.081   6.588   7.118 -0.0621 -0.4018 -0.3040
   25SAPC   H7X 3353   5.061   6.490   7.069 -2.0491  1.4841 -3.6071
   25SAPC   H7Y 3354   4.986   6.603   7.174  1.2039  1.0941  1.5645
   25SAPC   C38 3355   5.190   6.572   7.220  0.0890 -0.6464 -0.3580
   25SAPC   H8X 3356   5.288   6.560   7.168  0.9104  1.8478  0.4512
   25SAPC   H8Y 3357   5.165   6.485   7.284 -0.9768 -0.6440 -0.7536
   25SAPC   C39 3358   5.218   6.697   7.309 -0.0277  0.1599  0.0057
   25SAPC   H9X 3359   5.123   6.724   7.359  0.3941 -0.5186  1.2126
   25SAPC   H9Y 3360   5.247   6.785   7.247  0.1905 -0.4962 -0.8359
   25SAPC  C310 3361   5.327   6.664   7.418  0.6561  0.5861 -0.6106
   25SAPC  H10X 3362   5.424   6.639   7.371  0.4398 -0.2379 -0.6402
   25SAPC  H10Y 3363   5.308   6.571   7.477 -0.1533 -0.1015 -1.9173
   25SAPC  C311 3364   5.334   6.779   7.523 -1.0882 -0.3153 -0.3339
   25SAPC  H11X 3365   5.237   6.809   7.566  0.3344  2.1158  1.4235
   25SAPC  H11Y 3366   5.379   6.865   7.468 -0.5616 -1.0396 -1.0717
   25SAPC  C312 3367   5.414   6.746   7.643 -0.4342 -0.4097 -0.4319
   25SAPC  H12X 3368   5.517   6.714   7.615 -0.2437  0.0938 -0.3147
   25SAPC  H12Y 3369   5.366   6.657   7.689 -0.7127 -0.4501 -0.8006
   25SAPC  C313 3370   5.416   6.853   7.757  0.1438 -0.3103 -0.0134
   25SAPC  H13X 3371   5.316   6.875   7.801 -0.8967 -2.7070 -0.9759
   25SAPC  H13Y 3372   5.436   6.952   7.710 -1.6253  1.0048  1.8253
   25SAPC  C314 3373   5.522   6.826   7.867 -0.3317  0.6233 -0.3171
   25SAPC  H14X 3374   5.553   6.923   7.913 -0.8469  1.3883 -1.5335
   25SAPC  H14Y 3375   5.607   6.777   7.816 -0.8763 -0.0521 -0.5914
   25SAPC  C315 3376   5.467   6.739   7.984 -0.6051  0.5258 -0.4586
   25SAPC  H15X 3377   5.412   6.654   7.936 -1.7207  1.1539 -0.3212
   25SAPC  H15Y 3378   5.394   6.793   8.048 -1.0406 -0.4395 -0.1094
   25SAPC  C316 3379   5.584   6.694   8.077  0.3473  0.6582 -0.6708
   25SAPC  H16X 3380   5.663   6.647   8.014 -0.4968 -1.1085 -0.4546
   25SAPC  H16Y 3381   5.551   6.614   8.146  2.0632 -2.4560 -3.1849
   25SAPC  C317 3382   5.662   6.795   8.156 -0.1578  0.5844  0.3552
   25SAPC  H17X 3383   5.738   6.855   8.100 -0.6982  2.2247  1.3277
   25SAPC  H17Y 3384   5.710   6.732   8.233 -1.2238 -1.2511 -0.4200
   25SAPC  C318 3385   5.559   6.889   8.224  0.2679  0.3753  0.0230
   25SAPC  H18X 3386   5.478   6.824   8.263 -0.1880  0.4435 -0.7761
   25SAPC  H18Y 3387   5.517   6.961   8.150  0.7879  0.1175 -0.5315
   25SAPC  H18Z 3388   5.616   6.946   8.301  1.1275  1.5149 -1.4093
   26SAPC     N 3389   2.229   0.847   6.128  0.6528 -0.1626 -0.0690
   26SAPC   C12 3390   2.165   0.706   6.150 -0.2836  0.4651 -0.1276
   26SAPC  H12A 3391   2.230   0.650   6.216 -1.1729  0.7447  1.0224
   26SAPC  H12B 3392   2.160   0.655   6.055  0.1505  0.0752  0.0511
   26SAPC   C13 3393   2.172   0.921   6.009 -0.1860  0.8274  0.5485
   26SAPC  H13A 3394   2.068   0.934   6.032 -0.1532 -0.2547  1.4109
   26SAPC  H13B 3395   2.218   1.019   6.000 -1.5141  1.6690  2.3515
   26SAPC  H13C 3396   2.181   0.861   5.920 -1.6648  0.8642  0.3635
   26SAPC   C14 3397   2.211   0.942   6.245 -0.5121  0.2752 -0.3008
   26SAPC  H14A 3398   2.252   0.896   6.333 -0.3613  0.0174 -0.5028
   26SAPC  H14B 3399   2.256   1.038   6.223  0.4773 -0.0060  0.4087
   26SAPC  H14C 3400   2.106   0.955   6.264 -0.6997  0.4848 -1.4012
   26SAPC   C15 3401   2.373   0.822   6.107 -0.2180  0.0166 -0.3539
   26SAPC  H15A 3402   2.422   0.908   6.063 -0.3972  0.2165 -0.1601
   26SAPC  H15B 3403   2.425   0.804   6.200 -0.4602  3.5734  0.6221
   26SAPC  H15C 3404   2.384   0.742   6.035  1.3713  1.3380 -1.6756
   26SAPC   C11 3405   2.020   0.699   6.210 -0.1097  0.2703  1.1460
   26SAPC  H11A 3406   2.040   0.751   6.305  1.0333  1.6307  0.2041
   26SAPC  H11B 3407   2.004   0.589   6.217 -1.6060  0.2796 -1.0094
   26SAPC     P 3408   1.864   0.658   6.008 -0.1317 -0.1253  0.3382
   26SAPC   O13 3409   1.812   0.750   5.901 -0.8691  0.4024 -0.8318
   26SAPC   O14 3410   1.953   0.554   5.963 -0.3501 -0.0822  0.0056
   26SAPC   O12 3411   1.927   0.760   6.115 -0.2162 -0.0594  0.5812
   26SAPC   O11 3412   1.747   0.585   6.083 -0.3006 -0.2908  0.0501
   26SAPC    C1 3413   1.648   0.649   6.158 -0.8061  0.1256 -0.6701
   26SAPC    HA 3414   1.660   0.760   6.158  0.3972  0.0122  0.1708
   26SAPC    HB 3415   1.549   0.630   6.110 -0.2774 -0.2071 -1.6510
   26SAPC    C2 3416   1.642   0.599   6.299 -0.0794 -0.3097  0.0728
   26SAPC    HS 3417   1.734   0.632   6.352  0.7417 -0.1194 -1.4117
   26SAPC   O21 3418   1.624   0.459   6.303  0.1289  0.4564 -0.1493
   26SAPC   C21 3419   1.711   0.397   6.377 -0.2727 -0.1998 -0.1245
   26SAPC   O22 3420   1.805   0.448   6.435  0.6015  0.1169 -0.1729
   26SAPC   C22 3421   1.664   0.252   6.376 -0.3360  0.4138 -0.3155
   26SAPC   H2R 3422   1.585   0.238   6.454  1.3308  0.6573  1.5036
   26SAPC   H2S 3423   1.620   0.230   6.277  1.1750 -0.3872 -0.8310
   26SAPC    C3 3424   1.527   0.664   6.379  0.3278 -0.1823  0.5844
   26SAPC    HX 3425   1.434   0.615   6.342 -1.5517  1.8592  2.3346
   26SAPC    HY 3426   1.506   0.772   6.362 -2.0356 -0.2641  2.4210
   26SAPC   O31 3427   1.536   0.635   6.523  0.7678 -0.0533 -0.1076
   26SAPC   C31 3428   1.612   0.734   6.586  1.0173  0.3462 -0.6544
   26SAPC   O32 3429   1.667   0.823   6.524 -0.2902 -0.2798 -0.2532
   26SAPC   C32 3430   1.604   0.712   6.738  0.6819 -0.3634  0.4213
   26SAPC   H2X 3431   1.555   0.616   6.765 -0.8727  0.2005 -0.2929
   26SAPC   H2Y 3432   1.541   0.794   6.778 -1.5189 -1.6902 -0.1387
   26SAPC   C23 3433   1.777   0.148   6.399  0.3791 -0.2430  0.3929
   26SAPC   H3R 3434   1.860   0.174   6.330 -2.1069  2.0638 -1.9963
   26SAPC   H3S 3435   1.740   0.048   6.368 -1.1500  0.4630 -0.1758
   26SAPC   C24 3436   1.830   0.138   6.545  0.1785  0.2659 -1.2984
   26SAPC   H4R 3437   1.856   0.238   6.585 -1.9969  0.5770 -0.4818
   26SAPC   H4S 3438   1.927   0.085   6.536  0.3387  0.3458 -0.1588
   26SAPC   C25 3439   1.746   0.061   6.646  0.3653  0.5168 -0.7087
   26SAPC   H5R 3440   1.737  -0.045   6.619 -4.5300  0.9271 -1.4486
   26SAPC   C26 3441   1.679   0.105   6.756  0.3276  0.6566 -0.5575
   26SAPC   H6R 3442   1.612   0.030   6.801 -1.3389  1.4684 -1.6086
   26SAPC   C27 3443   1.668   0.246   6.810 -0.0031  0.2663 -0.7353
   26SAPC   H7R 3444   1.771   0.287   6.808  0.0700  0.0752 -1.0115
   26SAPC   H7S 3445   1.646   0.253   6.918 -0.2757  0.5266 -0.8077
   26SAPC   C28 3446   1.577   0.327   6.725  0.0822  0.0393  0.1992
   26SAPC   H8R 3447   1.630   0.370   6.639  0.2995 -0.5077  0.0577
   26SAPC   C29 3448   1.454   0.374   6.741 -0.3838 -0.9266  0.6344
   26SAPC   H9R 3449   1.415   0.446   6.668  0.0140 -0.2543  1.0781
   26SAPC  C210 3450   1.374   0.346   6.866 -0.3896 -0.0971  0.3407
   26SAPC  H10R 3451   1.448   0.332   6.948  0.6218  0.9692 -0.3624
   26SAPC  H10S 3452   1.300   0.266   6.845 -1.9462  1.4381 -0.3198
   26SAPC  C211 3453   1.279   0.457   6.905 -0.1308 -0.5986 -0.1301
   26SAPC  H11R 3454   1.211   0.488   6.825  0.5446 -0.5922 -0.7119
   26SAPC  C212 3455   1.267   0.519   7.020  0.1898  1.1500  0.0991
   26SAPC  H12R 3456   1.191   0.598   7.023 -1.9940 -0.8377 -0.1427
   26SAPC  C213 3457   1.340   0.480   7.151 -0.5454 -0.0466 -0.3255
   26SAPC  H13R 3458   1.351   0.370   7.160  0.5241 -0.0353 -1.2567
   26SAPC  H13S 3459   1.273   0.511   7.234 -1.8124  0.0053 -1.3281
   26SAPC  C214 3460   1.476   0.554   7.151 -0.3091  0.4432  0.1126
   26SAPC  H14R 3461   1.501   0.607   7.057  0.7899 -0.1794  0.0371
   26SAPC  C215 3462   1.570   0.542   7.243  0.0851 -0.1355 -0.3255
   26SAPC  H15R 3463   1.662   0.601   7.232 -1.1655  1.5974 -2.3300
   26SAPC  C216 3464   1.549   0.474   7.378 -0.9271  0.6105 -0.2117
   26SAPC  H16R 3465   1.619   0.389   7.382 -0.5663  0.9221  0.2409
   26SAPC  H16S 3466   1.446   0.435   7.394 -0.3894 -1.8028 -2.0695
   26SAPC  C217 3467   1.578   0.574   7.497  0.0174 -0.5304 -0.3557
   26SAPC  H17R 3468   1.669   0.634   7.473  0.8352 -1.1160  1.1242
   26SAPC  H17S 3469   1.608   0.515   7.587 -1.3045 -1.2208 -0.3427
   26SAPC  C218 3470   1.452   0.659   7.535 -0.7055  0.3569  0.2856
   26SAPC  H18R 3471   1.382   0.588   7.583  0.0951 -0.6230  0.0375
   26SAPC  H18S 3472   1.393   0.706   7.454  0.1518  0.7482 -0.1356
   26SAPC  C219 3473   1.467   0.776   7.632 -0.5243 -0.2883 -0.1036
   26SAPC  H19R 3474   1.366   0.798   7.674 -1.1157 -0.7908 -1.2123
   26SAPC  H19S 3475   1.517   0.861   7.581  0.0684 -0.1547  0.6836
   26SAPC  C220 3476   1.570   0.754   7.744 -0.2119 -0.4581 -0.1712
   26SAPC  H20R 3477   1.577   0.841   7.813 -1.6134 -1.9368  1.9921
   26SAPC  H20S 3478   1.671   0.724   7.709  0.5011 -0.2499  1.6035
   26SAPC  H20T 3479   1.527   0.679   7.814 -0.6323  1.9874  2.3914
   26SAPC   C33 3480   1.753   0.708   6.786 -0.2361  0.1368  0.6228
   26SAPC   H3X 3481   1.815   0.793   6.751 -2.1839  0.5944 -2.0348
   26SAPC   H3Y 3482   1.815   0.627   6.745  0.5778  1.3298 -0.5795
   26SAPC   C34 3483   1.758   0.689   6.940  0.1474 -0.0886 -0.6098
   26SAPC   H4X 3484   1.748   0.583   6.970  0.7393  0.0728  0.2066
   26SAPC   H4Y 3485   1.669   0.743   6.979 -0.8720 -1.6835 -0.6498
   26SAPC   C35 3486   1.886   0.747   7.000 -0.9367 -0.0284 -0.2502
   26SAPC   H5X 3487   1.900   0.854   6.972  1.5223 -0.0610  0.6208
   26SAPC   H5Y 3488   1.972   0.699   6.949 -0.7000  0.4380 -0.2923
   26SAPC   C36 3489   1.908   0.726   7.150  0.5820  0.2452 -0.2963
   26SAPC   H6X 3490   1.873   0.622   7.170 -0.9006  0.6593 -0.6374
   26SAPC   H6Y 3491   1.833   0.786   7.205  0.8666  0.2934  0.0397
   26SAPC   C37 3492   2.049   0.744   7.204 -0.4528  0.0539  1.0784
   26SAPC   H7X 3493   2.087   0.847   7.190 -0.3378 -0.0691  0.4636
   26SAPC   H7Y 3494   2.113   0.691   7.131 -1.8721 -1.4679  0.8735
   26SAPC   C38 3495   2.081   0.691   7.350  1.0574  1.0174 -0.3755
   26SAPC   H8X 3496   2.186   0.675   7.380 -0.3063 -0.5920  4.4567
   26SAPC   H8Y 3497   2.031   0.592   7.353  0.7147  1.1902 -0.2619
   26SAPC   C39 3498   2.019   0.780   7.460 -0.4225  0.4568 -0.5465
   26SAPC   H9X 3499   1.909   0.772   7.466 -0.3678  0.2377  0.5625
   26SAPC   H9Y 3500   2.032   0.886   7.428 -1.5617  0.4435 -1.0703
   26SAPC  C310 3501   2.076   0.741   7.600 -0.1758  0.1539  0.8085
   26SAPC  H10X 3502   2.038   0.817   7.671 -0.5402 -0.8089  1.6576
   26SAPC  H10Y 3503   2.184   0.760   7.585 -0.5181  2.2488  0.7307
   26SAPC  C311 3504   2.050   0.598   7.644 -1.2557  0.1199 -0.0265
   26SAPC  H11X 3505   2.103   0.536   7.569 -1.6455 -0.2484 -0.0007
   26SAPC  H11Y 3506   1.940   0.584   7.640 -1.3076  0.3056  0.5390
   26SAPC  C312 3507   2.093   0.557   7.788  0.0908 -0.0084 -0.5404
   26SAPC  H12X 3508   2.075   0.450   7.811 -0.2977  0.0307 -0.6498
   26SAPC  H12Y 3509   2.017   0.613   7.847  0.3052  1.2538 -1.4174
   26SAPC  C313 3510   2.236   0.601   7.825 -0.0776 -0.2783 -0.3605
   26SAPC  H13X 3511   2.251   0.710   7.814  1.3927 -0.3085  1.0088
   26SAPC  H13Y 3512   2.306   0.554   7.752  1.6787  0.9075  0.4937
   26SAPC  C314 3513   2.283   0.568   7.965  0.7026  0.3970 -0.5051
   26SAPC  H14X 3514   2.215   0.614   8.040 -0.9722 -2.8685  0.1162
   26SAPC  H14Y 3515   2.380   0.617   7.991  2.6340 -3.4724  0.3379
   26SAPC  C315 3516   2.298   0.421   8.004  0.6195 -0.1328  0.0022
   26SAPC  H15X 3517   2.380   0.418   8.079 -1.4422 -1.1829  2.3845
   26SAPC  H15Y 3518   2.326   0.363   7.913  2.9124  1.8217 -0.6298
   26SAPC  C316 3519   2.181   0.364   8.092 -1.0341 -0.0319 -0.5556
   26SAPC  H16X 3520   2.203   0.255   8.096  1.4951  0.3216 -2.1047
   26SAPC  H16Y 3521   2.080   0.385   8.050 -0.3900  1.7508 -1.3083
   26SAPC  C317 3522   2.179   0.424   8.238  0.1412  0.5693 -0.0895
   26SAPC  H17X 3523   2.129   0.523   8.235 -1.0430  0.0034 -2.9198
   26SAPC  H17Y 3524   2.278   0.427   8.287 -1.9760 -1.2180  4.9433
   26SAPC  C318 3525   2.096   0.339   8.346  0.5863 -0.1020  0.6382
   26SAPC  H18X 3526   2.010   0.290   8.294  0.6167  1.6255 -1.1426
   26SAPC  H18Y 3527   2.062   0.410   8.425 -0.6852 -1.7181  1.6143
   26SAPC  H18Z 3528   2.168   0.259   8.376  0.4388 -1.4753 -2.3232
   27SAPC     N 3529   5.394   2.081   6.280 -0.2033  0.6054  0.6515
   27SAPC   C12 3530   5.368   2.128   6.422  0.4590  0.4504 -0.3602
   27SAPC  H12A 3531   5.436   2.210   6.439 -0.1646  0.8923  0.0743
   27SAPC  H12B 3532   5.404   2.056   6.494  1.2800  0.7726 -0.4413
   27SAPC   C13 3533   5.290   1.980   6.241 -0.0821  0.0188 -0.2897
   27SAPC  H13A 3534   5.270   1.909   6.320 -3.2328  0.5146 -0.5059
   27SAPC  H13B 3535   5.191   2.022   6.227 -0.5035 -0.1851  1.8167
   27SAPC  H13C 3536   5.324   1.923   6.156 -0.3352 -0.9559  0.2508
   27SAPC   C14 3537   5.372   2.191   6.187  0.4648 -0.0174  0.3503
   27SAPC  H14A 3538   5.275   2.235   6.208  0.6091 -0.6428  2.6654
   27SAPC  H14B 3539   5.437   2.277   6.200 -0.3117  0.6812 -0.2630
   27SAPC  H14C 3540   5.382   2.162   6.084  1.3178  0.7407  0.2032
   27SAPC   C15 3541   5.538   2.027   6.261  0.4890  0.0562 -1.0468
   27SAPC  H15A 3542   5.560   2.002   6.158 -2.0700 -1.4246 -1.3338
   27SAPC  H15B 3543   5.602   2.100   6.308  0.1842 -0.1018 -0.3767
   27SAPC  H15C 3544   5.546   1.936   6.318  0.9876  1.5272  1.3954
   27SAPC   C11 3545   5.233   2.182   6.468  0.2530  0.3756 -0.0381
   27SAPC  H11A 3546   5.223   2.164   6.577 -1.5053 -1.4638 -0.4451
   27SAPC  H11B 3547   5.161   2.109   6.425 -0.3576  0.4015  0.9121
   27SAPC     P 3548   5.270   2.445   6.463 -0.0817 -0.0725  0.2672
   27SAPC   O13 3549   5.395   2.446   6.382 -0.9225 -0.1631 -0.5519
   27SAPC   O14 3550   5.179   2.561   6.451 -0.2806 -0.1670  0.7670
   27SAPC   O12 3551   5.193   2.309   6.420 -0.1258 -0.0928  0.7777
   27SAPC   O11 3552   5.301   2.435   6.614  0.3704  0.1896 -0.1936
   27SAPC    C1 3553   5.434   2.482   6.661  0.0283 -0.7702 -0.2558
   27SAPC    HA 3554   5.517   2.417   6.625  1.3791  0.4112  0.5861
   27SAPC    HB 3555   5.447   2.583   6.617 -1.8113 -0.0985  0.6508
   27SAPC    C2 3556   5.426   2.494   6.813 -0.1463 -0.2653 -0.4837
   27SAPC    HS 3557   5.524   2.537   6.842 -1.3658  2.2603  0.2209
   27SAPC   O21 3558   5.402   2.369   6.883  0.0460 -0.0104  0.6128
   27SAPC   C21 3559   5.488   2.280   6.866 -0.9242 -0.0950  0.1488
   27SAPC   O22 3560   5.597   2.297   6.812 -0.4768  0.5020 -0.1029
   27SAPC   C22 3561   5.427   2.137   6.898  0.2979 -0.7232  0.1849
   27SAPC   H2R 3562   5.323   2.148   6.935 -0.2406 -0.4661 -1.3437
   27SAPC   H2S 3563   5.409   2.085   6.802 -1.3130  0.5950 -0.2788
   27SAPC    C3 3564   5.326   2.595   6.868  0.9037  0.7043 -0.1825
   27SAPC    HX 3565   5.228   2.544   6.860 -0.1359  2.1763  2.0602
   27SAPC    HY 3566   5.334   2.687   6.806 -0.4633  0.5286 -0.6679
   27SAPC   O31 3567   5.355   2.624   7.012 -0.5790  0.3363  0.2396
   27SAPC   C31 3568   5.263   2.699   7.070 -0.2684 -0.3245 -0.5491
   27SAPC   O32 3569   5.160   2.740   7.020 -0.5491 -0.2064  0.5401
   27SAPC   C32 3570   5.300   2.721   7.223 -0.5479 -0.3937 -0.4445
   27SAPC   H2X 3571   5.351   2.631   7.262 -0.8241 -0.2395  0.2826
   27SAPC   H2Y 3572   5.202   2.727   7.275 -0.6932  0.0620 -0.7579
   27SAPC   C23 3573   5.518   2.039   6.980  0.9096 -0.4830 -0.1944
   27SAPC   H3R 3574   5.616   2.024   6.929  1.1667 -0.2864  0.2421
   27SAPC   H3S 3575   5.471   1.939   6.988  0.8084 -0.4561 -0.4272
   27SAPC   C24 3576   5.541   2.098   7.119 -0.6986 -0.1220  0.5152
   27SAPC   H4R 3577   5.578   2.200   7.096  0.0786 -0.4553  0.2686
   27SAPC   H4S 3578   5.619   2.042   7.174  0.2310 -0.5581 -1.1762
   27SAPC   C25 3579   5.422   2.102   7.209  0.0019 -0.2292  0.2914
   27SAPC   H5R 3580   5.326   2.095   7.156 -0.0034 -0.3078  0.3105
   27SAPC   C26 3581   5.419   2.118   7.345  0.0027  1.0411 -0.1763
   27SAPC   H6R 3582   5.323   2.104   7.396  1.0487 -1.9502  1.2271
   27SAPC   C27 3583   5.535   2.114   7.434  0.6400 -0.5627 -0.0972
   27SAPC   H7R 3584   5.621   2.057   7.394  0.1506 -2.5090  1.4650
   27SAPC   H7S 3585   5.508   2.053   7.523 -0.7251  0.5964  0.3109
   27SAPC   C28 3586   5.569   2.255   7.468  0.5235  0.2383 -0.0099
   27SAPC   H8R 3587   5.594   2.309   7.375  1.6740 -0.6762 -0.2588
   27SAPC   C29 3588   5.553   2.327   7.582 -0.4071 -0.3335 -0.1370
   27SAPC   H9R 3589   5.564   2.437   7.586  1.4587 -0.5161  0.1832
   27SAPC  C210 3590   5.506   2.273   7.713  0.0914  0.1422  0.0947
   27SAPC  H10R 3591   5.521   2.163   7.713 -0.0805  0.1050 -1.2031
   27SAPC  H10S 3592   5.396   2.284   7.721 -0.2125 -1.3759 -1.4947
   27SAPC  C211 3593   5.568   2.328   7.837 -0.1924 -0.3208  0.0922
   27SAPC  H11R 3594   5.678   2.323   7.837 -0.1511  0.2901  0.9561
   27SAPC  C212 3595   5.509   2.373   7.951  0.1105  0.1084 -0.0965
   27SAPC  H12R 3596   5.576   2.395   8.035  2.4305 -0.8432 -1.6119
   27SAPC  C213 3597   5.359   2.380   7.969 -0.7115 -0.3326 -0.8139
   27SAPC  H13R 3598   5.315   2.410   7.872 -1.5305  2.6991  0.3634
   27SAPC  H13S 3599   5.349   2.461   8.045  0.1724 -0.4404 -0.5669
   27SAPC  C214 3600   5.294   2.253   8.006 -0.5120 -0.0216 -0.9555
   27SAPC  H14R 3601   5.331   2.167   7.947 -0.7942  1.0851 -2.8324
   27SAPC  C215 3602   5.215   2.231   8.107 -0.0814 -0.3560  0.0231
   27SAPC  H15R 3603   5.174   2.130   8.107 -1.7409  0.2822  1.0769
   27SAPC  C216 3604   5.173   2.329   8.216 -0.2717 -0.0699  0.4155
   27SAPC  H16R 3605   5.064   2.310   8.221 -0.1105 -1.0423  0.4556
   27SAPC  H16S 3606   5.174   2.435   8.183 -3.0337 -0.7770 -2.3211
   27SAPC  C217 3607   5.256   2.321   8.346 -0.3524  0.7228  0.0287
   27SAPC  H17R 3608   5.354   2.360   8.312 -0.0315 -0.1536 -0.0847
   27SAPC  H17S 3609   5.264   2.218   8.386 -1.5817  0.9638  0.9833
   27SAPC  C218 3610   5.197   2.417   8.450 -0.8931  0.5624 -1.1434
   27SAPC  H18R 3611   5.204   2.524   8.424 -0.4793  1.2663  1.5147
   27SAPC  H18S 3612   5.265   2.403   8.538 -0.4316  1.3596 -1.3660
   27SAPC  C219 3613   5.046   2.395   8.492 -0.3962 -0.1816  0.4070
   27SAPC  H19R 3614   5.046   2.290   8.528  1.4435 -0.6328 -0.7374
   27SAPC  H19S 3615   4.989   2.398   8.397 -2.3241 -0.6742  1.5107
   27SAPC  C220 3616   4.986   2.492   8.589 -0.6842  0.2846 -0.2866
   27SAPC  H20R 3617   4.995   2.597   8.556 -2.2658  1.4496  2.5498
   27SAPC  H20S 3618   5.052   2.477   8.677 -0.2600  1.2968 -0.4278
   27SAPC  H20T 3619   4.880   2.475   8.618  0.4351 -3.7362  2.4213
   27SAPC   C33 3620   5.389   2.847   7.235 -0.2147 -0.3887  0.2483
   27SAPC   H3X 3621   5.356   2.942   7.186  1.1880  0.4503  0.8649
   27SAPC   H3Y 3622   5.477   2.826   7.172 -0.0157 -1.7342  0.9445
   27SAPC   C34 3623   5.429   2.871   7.373  0.6020  0.3646 -0.4012
   27SAPC   H4X 3624   5.457   2.774   7.418 -0.2658  0.0044 -0.6203
   27SAPC   H4Y 3625   5.338   2.913   7.422  1.6180  2.1794  0.0358
   27SAPC   C35 3626   5.536   2.978   7.385 -0.1297 -0.1063  0.2480
   27SAPC   H5X 3627   5.491   3.063   7.330 -1.2824 -1.1429 -0.4636
   27SAPC   H5Y 3628   5.632   2.956   7.333  0.6100  1.2050  0.9944
   27SAPC   C36 3629   5.552   3.025   7.528  0.3088 -0.1165  0.0735
   27SAPC   H6X 3630   5.618   2.954   7.582  2.3074  1.7610  0.1891
   27SAPC   H6Y 3631   5.452   3.035   7.576  0.7304 -0.3571  1.0328
   27SAPC   C37 3632   5.624   3.162   7.525  0.2445 -0.3220  0.3241
   27SAPC   H7X 3633   5.561   3.240   7.476  0.2990 -1.3855 -1.5434
   27SAPC   H7Y 3634   5.716   3.145   7.465 -0.8929 -4.2828 -0.5719
   27SAPC   C38 3635   5.680   3.193   7.669 -0.6144 -1.0350  0.1564
   27SAPC   H8X 3636   5.716   3.297   7.680 -1.3461 -0.8974  1.4150
   27SAPC   H8Y 3637   5.768   3.125   7.679  0.7801  0.7684  0.5550
   27SAPC   C39 3638   5.583   3.146   7.777 -0.3231  0.0975 -0.2013
   27SAPC   H9X 3639   5.593   3.035   7.772 -1.6011 -0.0240 -0.4542
   27SAPC   H9Y 3640   5.479   3.182   7.765 -1.0666 -2.4252 -2.4484
   27SAPC  C310 3641   5.626   3.184   7.922  0.4930  0.7072 -0.5575
   27SAPC  H10X 3642   5.543   3.137   7.978  2.0857 -1.8545 -0.1803
   27SAPC  H10Y 3643   5.653   3.292   7.925 -0.1669  0.9899 -2.8405
   27SAPC  C311 3644   5.761   3.114   7.970  0.4682 -0.2220  0.1641
   27SAPC  H11X 3645   5.845   3.160   7.913 -0.0013  1.2486  0.6196
   27SAPC  H11Y 3646   5.742   3.009   7.939 -0.4387 -0.0550  0.1279
   27SAPC  C312 3647   5.775   3.116   8.122 -0.1692 -0.1815 -0.0004
   27SAPC  H12X 3648   5.762   3.224   8.147  0.9017  0.0608 -0.4199
   27SAPC  H12Y 3649   5.879   3.087   8.148 -0.3230 -0.6074  0.1357
   27SAPC  C313 3650   5.680   3.027   8.195 -0.5470  0.0796  0.0540
   27SAPC  H13X 3651   5.677   2.940   8.127  0.7729 -1.3158  1.6945
   27SAPC  H13Y 3652   5.577   3.069   8.200 -0.8434 -0.4441 -1.2669
   27SAPC  C314 3653   5.731   2.991   8.333 -0.2674  0.1626 -0.4374
   27SAPC  H14X 3654   5.839   2.969   8.323 -0.1487 -0.5705  1.7932
   27SAPC  H14Y 3655   5.680   2.900   8.372 -0.6261  0.6554  0.2669
   27SAPC  C315 3656   5.714   3.102   8.441 -0.2799 -0.2722 -0.8193
   27SAPC  H15X 3657   5.607   3.133   8.443 -0.5131 -1.0823  0.2252
   27SAPC  H15Y 3658   5.781   3.189   8.421  0.9236 -0.7281  1.0262
   27SAPC  C316 3659   5.759   3.046   8.580 -0.2092  0.0044  0.5112
   27SAPC  H16X 3660   5.770   3.137   8.641  0.8184  0.1705  0.0975
   27SAPC  H16Y 3661   5.860   3.000   8.571 -0.4475 -1.3858  3.6378
   27SAPC  C317 3662   5.666   2.943   8.646  0.1783 -0.0106 -0.4110
   27SAPC  H17X 3663   5.703   2.927   8.749  0.6925  0.5325 -0.5082
   27SAPC  H17Y 3664   5.680   2.847   8.591 -1.0417 -0.2018 -0.4303
   27SAPC  C318 3665   5.515   2.978   8.647 -0.8249 -0.1352 -0.8785
   27SAPC  H18X 3666   5.470   2.881   8.677 -1.3767  0.9798  2.2884
   27SAPC  H18Y 3667   5.473   3.021   8.554 -0.7543  1.8349 -0.0635
   27SAPC  H18Z 3668   5.488   3.050   8.727 -0.2627 -0.2906 -0.5421
   28SAPC     N 3669   2.432   4.343   6.197 -0.0039 -0.2385 -0.6954
   28SAPC   C12 3670   2.470   4.257   6.318  0.0799 -1.0377  0.4728
   28SAPC  H12A 3671   2.528   4.327   6.377  1.2293 -0.5960 -1.0873
   28SAPC  H12B 3672   2.535   4.177   6.286 -0.4568 -1.9664  1.6240
   28SAPC   C13 3673   2.555   4.391   6.124 -0.2589 -0.3526 -0.1215
   28SAPC  H13A 3674   2.614   4.313   6.079 -1.1814 -1.3805  0.4030
   28SAPC  H13B 3675   2.518   4.462   6.051 -2.0110  0.1349  1.1702
   28SAPC  H13C 3676   2.607   4.459   6.191 -0.6569 -0.9852  0.8617
   28SAPC   C14 3677   2.362   4.263   6.097 -0.4214  0.0697  0.8948
   28SAPC  H14A 3678   2.276   4.205   6.129 -0.0207 -1.9233 -1.3125
   28SAPC  H14B 3679   2.338   4.312   6.004  1.4886 -2.4467 -1.0760
   28SAPC  H14C 3680   2.431   4.187   6.065  0.1553  0.8201  0.3219
   28SAPC   C15 3681   2.345   4.462   6.235 -0.1920  0.0338 -0.0267
   28SAPC  H15A 3682   2.321   4.518   6.146 -0.5840  0.5536  0.4024
   28SAPC  H15B 3683   2.255   4.423   6.280 -1.1125  0.0376 -1.7955
   28SAPC  H15C 3684   2.409   4.535   6.281  0.5888  0.0879 -1.1477
   28SAPC   C11 3685   2.359   4.196   6.411 -0.1302 -0.2096  0.1268
   28SAPC  H11A 3686   2.296   4.281   6.445 -1.1112 -0.1279 -1.7639
   28SAPC  H11B 3687   2.419   4.157   6.496  0.8830 -0.1507 -0.5475
   28SAPC     P 3688   2.138   4.097   6.338  0.4259 -0.2124 -0.0893
   28SAPC   O13 3689   2.082   4.219   6.285 -0.2686  0.3726  0.4411
   28SAPC   O14 3690   2.098   3.971   6.275 -0.0819 -0.1330 -0.1896
   28SAPC   O12 3691   2.293   4.097   6.344 -0.1076  0.2045  0.5955
   28SAPC   O11 3692   2.106   4.091   6.489  0.5682 -0.1822 -0.6500
   28SAPC    C1 3693   2.019   3.997   6.549 -0.0045  0.4512 -0.0843
   28SAPC    HA 3694   1.936   4.058   6.591  1.4891  0.7896  2.6480
   28SAPC    HB 3695   1.985   3.912   6.486  0.7793  0.5133 -0.6116
   28SAPC    C2 3696   2.084   3.930   6.678 -0.4608 -0.3099 -0.4396
   28SAPC    HS 3697   2.003   3.868   6.723 -0.4162  0.5761  0.9238
   28SAPC   O21 3698   2.137   4.023   6.778  0.1769  0.5164 -0.6329
   28SAPC   C21 3699   2.047   4.082   6.853  0.0323  0.4663  0.5138
   28SAPC   O22 3700   1.929   4.057   6.846 -0.2017  0.1091  0.5327
   28SAPC   C22 3701   2.098   4.178   6.955  0.2912  0.7232  0.2268
   28SAPC   H2R 3702   2.209   4.172   6.956  0.3181  0.9461 -0.5981
   28SAPC   H2S 3703   2.057   4.279   6.933 -0.0348  0.6806  0.6340
   28SAPC    C3 3704   2.201   3.840   6.636 -0.5760  0.1837 -0.0113
   28SAPC    HX 3705   2.285   3.905   6.603 -0.3049 -1.4193 -2.8071
   28SAPC    HY 3706   2.163   3.786   6.546 -0.4932  0.0184  0.0539
   28SAPC   O31 3707   2.228   3.747   6.745 -0.0551 -0.2708 -0.1091
   28SAPC   C31 3708   2.321   3.655   6.725  0.2910 -0.1260 -0.4775
   28SAPC   O32 3709   2.398   3.644   6.633  0.4658 -0.1157  0.3602
   28SAPC   C32 3710   2.323   3.565   6.846 -0.5020 -0.1759  0.6670
   28SAPC   H2X 3711   2.262   3.482   6.804  2.3800 -2.1655  0.1295
   28SAPC   H2Y 3712   2.267   3.611   6.930 -1.4388  0.9512 -0.5294
   28SAPC   C23 3713   2.043   4.132   7.095 -0.5387  0.0149 -0.1440
   28SAPC   H3R 3714   2.079   4.030   7.123  1.9598  0.7569 -0.3563
   28SAPC   H3S 3715   1.933   4.134   7.083 -0.3309  1.2877 -2.2898
   28SAPC   C24 3716   2.104   4.219   7.201  0.9273  0.2382  0.2684
   28SAPC   H4R 3717   2.084   4.165   7.296 -0.3205  0.5965  0.2188
   28SAPC   H4S 3718   2.213   4.231   7.180  0.5790  0.1658 -1.8486
   28SAPC   C25 3719   2.042   4.360   7.197 -0.1717 -0.6400  0.3377
   28SAPC   H5R 3720   2.027   4.407   7.099  0.4147 -2.4531 -0.6774
   28SAPC   C26 3721   2.020   4.431   7.312 -0.3164  0.2512 -0.0033
   28SAPC   H6R 3722   1.989   4.534   7.291  0.4774  0.5554  0.2945
   28SAPC   C27 3723   2.048   4.395   7.459 -0.2727  0.7734 -0.0338
   28SAPC   H7R 3724   2.123   4.469   7.493  0.6355 -0.4285  0.6466
   28SAPC   H7S 3725   2.098   4.296   7.468  1.1294  1.3173 -1.4522
   28SAPC   C28 3726   1.930   4.384   7.554 -0.4166 -1.5343 -0.4160
   28SAPC   H8R 3727   1.853   4.315   7.517 -2.3642  0.0739  0.5016
   28SAPC   C29 3728   1.906   4.450   7.672  0.6849  0.1792  0.3140
   28SAPC   H9R 3729   1.804   4.441   7.713  0.7468 -0.7296  0.2959
   28SAPC  C210 3730   1.990   4.552   7.740 -0.1716  0.5819  0.4216
   28SAPC  H10R 3731   1.944   4.603   7.827  0.3363 -2.0680  2.3646
   28SAPC  H10S 3732   2.012   4.637   7.671  1.9603 -0.0625  0.2214
   28SAPC  C211 3733   2.126   4.495   7.776 -0.2287 -0.4499 -0.4999
   28SAPC  H11R 3734   2.205   4.505   7.699  0.2433 -0.9258 -0.0816
   28SAPC  C212 3735   2.151   4.414   7.887  0.5967 -0.2278 -0.6437
   28SAPC  H12R 3736   2.250   4.367   7.897  0.6275 -0.6351 -2.6215
   28SAPC  C213 3737   2.049   4.372   7.993  0.1227  0.1579  0.0549
   28SAPC  H13R 3738   1.992   4.281   7.965  0.6573  0.1017 -0.8951
   28SAPC  H13S 3739   1.976   4.454   8.010 -1.8679 -1.3411 -0.8374
   28SAPC  C214 3740   2.107   4.349   8.131 -0.3606 -0.3606  0.7142
   28SAPC  H14R 3741   2.146   4.444   8.172 -1.0943  1.0748 -1.7661
   28SAPC  C215 3742   2.109   4.241   8.215  1.1759  0.2443 -0.0902
   28SAPC  H15R 3743   2.144   4.259   8.318 -0.6289  2.7708  0.1923
   28SAPC  C216 3744   2.071   4.102   8.187 -0.3452 -0.1136 -0.2715
   28SAPC  H16R 3745   1.982   4.089   8.121 -2.0496  0.5553  1.8035
   28SAPC  H16S 3746   2.034   4.064   8.284 -0.2592 -2.4008 -1.0782
   28SAPC  C217 3747   2.185   3.997   8.137 -0.1263  0.0753  0.1517
   28SAPC  H17R 3748   2.276   4.011   8.200 -0.6633  1.1546  0.7089
   28SAPC  H17S 3749   2.204   4.016   8.029 -1.0265  0.9402  0.1312
   28SAPC  C218 3750   2.124   3.856   8.149 -0.7936  0.4377  0.3704
   28SAPC  H18R 3751   2.051   3.825   8.072  1.2545 -0.9171 -1.1524
   28SAPC  H18S 3752   2.081   3.839   8.250 -0.2447 -1.5124  0.3255
   28SAPC  C219 3753   2.230   3.746   8.142  0.1082 -0.2673 -0.3863
   28SAPC  H19R 3754   2.191   3.650   8.181 -5.1545  1.7387  0.0874
   28SAPC  H19S 3755   2.316   3.761   8.211 -0.4330  0.6318  0.1254
   28SAPC  C220 3756   2.290   3.741   8.003  0.1066 -0.2358  0.0654
   28SAPC  H20R 3757   2.205   3.730   7.932  0.0462 -0.2506  0.1394
   28SAPC  H20S 3758   2.382   3.681   7.986 -1.2102 -2.1031 -0.8089
   28SAPC  H20T 3759   2.332   3.843   7.996  1.9784 -0.9523  0.0812
   28SAPC   C33 3760   2.463   3.506   6.889 -0.2899  0.1913  0.3650
   28SAPC   H3X 3761   2.539   3.588   6.896  2.5885 -2.2210 -0.4815
   28SAPC   H3Y 3762   2.496   3.432   6.814 -0.9454 -0.0371  0.3013
   28SAPC   C34 3763   2.463   3.443   7.029 -0.0548  0.3004 -0.0616
   28SAPC   H4X 3764   2.445   3.523   7.104 -1.0222  0.3287 -0.3056
   28SAPC   H4Y 3765   2.568   3.421   7.056  0.1993  0.1504 -1.1128
   28SAPC   C35 3766   2.354   3.330   7.048  0.1207  0.1306  0.5237
   28SAPC   H5X 3767   2.364   3.259   6.963 -0.6073  2.2404 -1.4107
   28SAPC   H5Y 3768   2.254   3.376   7.037  0.5333  0.9713  0.1453
   28SAPC   C36 3769   2.358   3.265   7.189 -0.4301 -0.0206 -0.6131
   28SAPC   H6X 3770   2.435   3.186   7.196 -1.5109 -1.0242  0.8886
   28SAPC   H6Y 3771   2.271   3.198   7.212 -1.1026  1.4418  1.4302
   28SAPC   C37 3772   2.362   3.362   7.309  0.3483 -0.2458 -0.2617
   28SAPC   H7X 3773   2.290   3.443   7.286  1.2963  0.2084 -1.7627
   28SAPC   H7Y 3774   2.460   3.413   7.314  0.3286 -0.1794 -0.5629
   28SAPC   C38 3775   2.325   3.293   7.439 -0.9917  0.5082  0.2738
   28SAPC   H8X 3776   2.412   3.224   7.454  0.2684  1.6046 -1.6029
   28SAPC   H8Y 3777   2.235   3.231   7.422 -0.7289  0.1630  0.1164
   28SAPC   C39 3778   2.316   3.388   7.560 -0.3942  0.1124 -0.7849
   28SAPC   H9X 3779   2.217   3.438   7.556 -0.4732  0.0731  0.3299
   28SAPC   H9Y 3780   2.402   3.459   7.564 -2.2747  2.4522  1.9981
   28SAPC  C310 3781   2.324   3.308   7.686 -0.2039  0.4293 -0.1581
   28SAPC  H10X 3782   2.428   3.269   7.696 -1.1423 -2.2573 -0.0485
   28SAPC  H10Y 3783   2.258   3.220   7.672  0.2652  0.0574 -0.0632
   28SAPC  C311 3784   2.301   3.382   7.823 -0.0642 -0.2513  0.7529
   28SAPC  H11X 3785   2.204   3.436   7.820  0.8743  1.5325  1.2535
   28SAPC  H11Y 3786   2.369   3.470   7.826 -1.2600  0.7899 -0.8250
   28SAPC  C312 3787   2.306   3.290   7.941  0.4007  0.2483  0.0568
   28SAPC  H12X 3788   2.393   3.220   7.936 -0.0874 -0.3114 -0.7509
   28SAPC  H12Y 3789   2.220   3.221   7.931  1.8500 -1.8000  1.0246
   28SAPC  C313 3790   2.313   3.357   8.083  0.6528 -0.2532  0.5196
   28SAPC  H13X 3791   2.236   3.437   8.084 -2.4087 -2.7797 -3.0647
   28SAPC  H13Y 3792   2.409   3.412   8.075  0.2500  0.4072  0.0891
   28SAPC  C314 3793   2.301   3.268   8.202 -0.4548 -0.0727 -0.8316
   28SAPC  H14X 3794   2.329   3.166   8.168  0.2482  0.0951 -0.7790
   28SAPC  H14Y 3795   2.199   3.264   8.246  0.7488  0.3797  2.2495
   28SAPC  C315 3796   2.390   3.311   8.321 -0.0847  0.1114 -0.1363
   28SAPC  H15X 3797   2.497   3.301   8.294  0.6494  3.3466  1.1278
   28SAPC  H15Y 3798   2.362   3.235   8.397  0.1191  0.5760  0.4096
   28SAPC  C316 3799   2.363   3.454   8.374 -0.4906  0.4057  0.7259
   28SAPC  H16X 3800   2.255   3.471   8.355  0.1337  3.0361 -1.2045
   28SAPC  H16Y 3801   2.418   3.531   8.315 -1.2443  0.3082 -0.1265
   28SAPC  C317 3802   2.406   3.459   8.518 -0.0090 -0.3135 -0.4097
   28SAPC  H17X 3803   2.365   3.557   8.550  1.5521  0.1783  0.1487
   28SAPC  H17Y 3804   2.517   3.463   8.517  0.0936 -1.6060  1.2958
   28SAPC  C318 3805   2.356   3.348   8.611 -0.0896  0.4777 -0.0284
   28SAPC  H18X 3806   2.418   3.257   8.601 -0.2849  0.4014 -0.5931
   28SAPC  H18Y 3807   2.251   3.318   8.590  0.2449  0.0091 -1.1000
   28SAPC  H18Z 3808   2.372   3.381   8.716 -0.0707 -0.0827  0.1464
   29SAPC     N 3809   5.945   3.877   6.277  0.3384 -0.2920 -0.0741
   29SAPC   C12 3810   5.814   3.843   6.191  0.0777 -0.1158 -0.2561
   29SAPC  H12A 3811   5.784   3.744   6.223  0.1659 -0.3752 -0.9454
   29SAPC  H12B 3812   5.825   3.844   6.084 -3.3174 -2.1191 -0.7682
   29SAPC   C13 3813   5.992   4.017   6.240 -0.7483  0.2309 -0.0137
   29SAPC  H13A 3814   6.029   4.016   6.139  1.5791  1.0330  0.7552
   29SAPC  H13B 3815   5.910   4.087   6.255 -0.3801  0.7120 -0.2164
   29SAPC  H13C 3816   6.070   4.051   6.306 -0.1300  0.4196 -0.8351
   29SAPC   C14 3817   5.906   3.865   6.425 -0.2439  0.1718 -0.4199
   29SAPC  H14A 3818   5.822   3.928   6.449 -1.3761 -1.2582 -0.5169
   29SAPC  H14B 3819   5.880   3.764   6.453  1.0926  0.2000  1.0344
   29SAPC  H14C 3820   5.988   3.898   6.487 -1.7324 -0.8346  2.2616
   29SAPC   C15 3821   6.063   3.786   6.256 -0.0014  0.0129 -0.1466
   29SAPC  H15A 3822   6.112   3.795   6.160 -2.2409  0.0185 -1.3604
   29SAPC  H15B 3823   6.138   3.817   6.328  1.0588 -2.3429 -0.1375
   29SAPC  H15C 3824   6.051   3.685   6.294  4.0833 -0.3805  0.5762
   29SAPC   C11 3825   5.684   3.923   6.213 -0.2099 -0.2511  0.4092
   29SAPC  H11A 3826   5.617   3.903   6.126 -0.3195  1.0081  0.1909
   29SAPC  H11B 3827   5.693   4.034   6.213 -0.6246 -0.2098  1.4059
   29SAPC     P 3828   5.553   3.735   6.335 -0.0027  0.1824 -0.2214
   29SAPC   O13 3829   5.428   3.731   6.260 -0.4608 -0.3884  0.2342
   29SAPC   O14 3830   5.651   3.626   6.309  0.3114  0.3854 -0.1842
   29SAPC   O12 3831   5.615   3.877   6.326 -1.0149  0.6241 -0.0275
   29SAPC   O11 3832   5.509   3.719   6.486  0.0291 -0.4153  0.7358
   29SAPC    C1 3833   5.587   3.779   6.590 -0.1820 -0.0364  1.1073
   29SAPC    HA 3834   5.692   3.749   6.574 -1.6001 -3.7474 -3.6819
   29SAPC    HB 3835   5.575   3.889   6.592  1.4572  0.1561  2.2493
   29SAPC    C2 3836   5.543   3.736   6.731 -0.2587  0.4450  0.6525
   29SAPC    HS 3837   5.591   3.803   6.805  1.7058 -0.2520  0.0592
   29SAPC   O21 3838   5.593   3.601   6.742  0.5809  0.4846  0.6114
   29SAPC   C21 3839   5.705   3.581   6.799 -0.6329 -0.5114  0.0388
   29SAPC   O22 3840   5.788   3.664   6.825 -0.6569  0.5373 -0.4117
   29SAPC   C22 3841   5.718   3.429   6.822 -0.3987  0.0322  0.3046
   29SAPC   H2R 3842   5.629   3.386   6.872 -0.0839 -0.8745  0.1109
   29SAPC   H2S 3843   5.722   3.378   6.723  1.2050 -1.0958  0.8968
   29SAPC    C3 3844   5.393   3.744   6.745 -0.6393  0.3454  0.1691
   29SAPC    HX 3845   5.347   3.691   6.660  1.3475 -0.5386 -0.4059
   29SAPC    HY 3846   5.363   3.851   6.746  0.3690  0.6649  2.1773
   29SAPC   O31 3847   5.351   3.686   6.870 -0.4701  0.2481 -0.4836
   29SAPC   C31 3848   5.378   3.763   6.977 -0.7422 -0.5789 -0.4741
   29SAPC   O32 3849   5.428   3.874   6.980  0.1184  0.2618  0.7472
   29SAPC   C32 3850   5.352   3.678   7.100  0.0810  0.2575  0.0570
   29SAPC   H2X 3851   5.393   3.576   7.084  0.8779  0.5220  0.3437
   29SAPC   H2Y 3852   5.243   3.670   7.121 -0.0503 -3.2146 -1.3538
   29SAPC   C23 3853   5.849   3.378   6.896  0.0891 -0.0557 -0.4380
   29SAPC   H3R 3854   5.932   3.429   6.843 -1.9825  2.1555 -1.7585
   29SAPC   H3S 3855   5.858   3.268   6.887  0.3703 -0.0523 -0.2201
   29SAPC   C24 3856   5.870   3.414   7.040 -0.3110  0.3452  0.7839
   29SAPC   H4R 3857   5.878   3.524   7.053  1.5324 -0.0167  3.5913
   29SAPC   H4S 3858   5.970   3.379   7.075 -0.1272 -2.7263 -2.2185
   29SAPC   C25 3859   5.761   3.365   7.125 -0.0385  0.4193 -0.5120
   29SAPC   H5R 3860   5.694   3.290   7.079 -1.2330  0.4794  1.0821
   29SAPC   C26 3861   5.743   3.403   7.256 -0.8683 -0.7818 -0.1953
   29SAPC   H6R 3862   5.668   3.361   7.325  0.6238 -0.9953  1.3627
   29SAPC   C27 3863   5.832   3.499   7.336 -0.2129  0.4359  0.3487
   29SAPC   H7R 3864   5.764   3.582   7.366  0.6860  0.7524  1.5383
   29SAPC   H7S 3865   5.914   3.545   7.276 -0.1053  3.4341  2.5893
   29SAPC   C28 3866   5.897   3.420   7.448 -0.0068 -0.3010 -0.4448
   29SAPC   H8R 3867   5.948   3.328   7.416 -0.5140 -1.1214  1.0234
   29SAPC   C29 3868   5.918   3.454   7.580 -0.1571  0.2032  0.4762
   29SAPC   H9R 3869   5.964   3.377   7.644  0.2345  0.0344 -0.0078
   29SAPC  C210 3870   5.877   3.574   7.657 -0.0595  0.6558  0.6604
   29SAPC  H10R 3871   5.825   3.545   7.752 -0.9908  0.2253  0.0344
   29SAPC  H10S 3872   5.794   3.630   7.611 -0.1558  0.0530  0.0868
   29SAPC  C211 3873   5.989   3.670   7.679 -0.7752  0.2775 -0.3465
   29SAPC  H11R 3874   6.087   3.620   7.670  0.0053  2.0448 -2.9647
   29SAPC  C212 3875   5.992   3.797   7.706  0.2723 -0.5766  0.5318
   29SAPC  H12R 3876   6.091   3.846   7.717  0.9582 -0.9490 -2.7255
   29SAPC  C213 3877   5.867   3.887   7.718 -0.3767  0.2100 -0.4248
   29SAPC  H13R 3878   5.787   3.856   7.789  0.6579 -2.6279 -0.3635
   29SAPC  H13S 3879   5.809   3.880   7.623 -2.8966  1.1308  0.9354
   29SAPC  C214 3880   5.904   4.027   7.741 -0.1446 -0.1867 -0.1201
   29SAPC  H14R 3881   5.896   4.063   7.845  0.8036  0.0021 -0.0997
   29SAPC  C215 3882   5.949   4.120   7.652  0.1388  0.2433 -0.3820
   29SAPC  H15R 3883   5.975   4.225   7.674  1.3603  0.4658 -2.6311
   29SAPC  C216 3884   5.986   4.101   7.507  0.7337  0.2381 -0.0164
   29SAPC  H16R 3885   5.991   3.997   7.469 -2.5320  0.5461 -1.6557
   29SAPC  H16S 3886   6.079   4.154   7.480 -0.0207  2.2352  1.0004
   29SAPC  C217 3887   5.886   4.175   7.418  0.2338  0.4368 -0.2138
   29SAPC  H17R 3888   5.902   4.282   7.442 -0.0403  0.0192  2.0625
   29SAPC  H17S 3889   5.782   4.149   7.446  0.6755 -0.3129  0.7840
   29SAPC  C218 3890   5.890   4.147   7.269  0.1465  0.0967 -0.0491
   29SAPC  H18R 3891   5.994   4.124   7.235  0.2613  0.2389  0.2086
   29SAPC  H18S 3892   5.858   4.239   7.217 -0.7219  0.5978  1.3470
   29SAPC  C219 3893   5.801   4.034   7.210 -0.0063  0.4701 -0.2385
   29SAPC  H19R 3894   5.836   4.017   7.106  1.7607  3.0706 -0.1905
   29SAPC  H19S 3895   5.693   4.058   7.216 -0.1192  0.0155 -0.4933
   29SAPC  C220 3896   5.813   3.897   7.283 -0.0126 -0.3051 -0.7629
   29SAPC  H20R 3897   5.919   3.867   7.298 -0.3934 -1.6821 -0.6569
   29SAPC  H20S 3898   5.770   3.819   7.218  0.5959  0.2148 -1.8101
   29SAPC  H20T 3899   5.766   3.904   7.384 -0.0596 -2.6100 -0.5696
   29SAPC   C33 3900   5.422   3.736   7.222  0.4808 -0.2702  0.2719
   29SAPC   H3X 3901   5.370   3.830   7.251 -1.2939 -1.0465 -0.2566
   29SAPC   H3Y 3902   5.524   3.764   7.189 -0.2298  0.9781 -0.9639
   29SAPC   C34 3903   5.430   3.650   7.339 -0.2419  0.0405 -0.5095
   29SAPC   H4X 3904   5.490   3.557   7.326 -0.9259 -0.3753 -0.8114
   29SAPC   H4Y 3905   5.325   3.622   7.365  0.0211 -0.5213 -0.0376
   29SAPC   C35 3906   5.480   3.722   7.462  0.0858 -0.3244  0.5587
   29SAPC   H5X 3907   5.423   3.815   7.484 -0.8585 -0.5299 -0.8655
   29SAPC   H5Y 3908   5.585   3.748   7.436  0.1870  0.5476  1.7492
   29SAPC   C36 3909   5.479   3.630   7.586  0.2557 -0.4226 -0.1848
   29SAPC   H6X 3910   5.550   3.546   7.569  1.4731 -0.0120  2.4560
   29SAPC   H6Y 3911   5.378   3.583   7.587  1.3135 -2.8037  0.5215
   29SAPC   C37 3912   5.514   3.693   7.726 -0.4088 -0.4631  0.1576
   29SAPC   H7X 3913   5.447   3.778   7.750  2.6995  2.6642 -1.3824
   29SAPC   H7Y 3914   5.610   3.741   7.698 -1.1489  1.7346  1.2064
   29SAPC   C38 3915   5.532   3.593   7.839  0.0856  0.2133 -0.6008
   29SAPC   H8X 3916   5.621   3.530   7.819 -0.2571 -0.2353 -0.7416
   29SAPC   H8Y 3917   5.442   3.529   7.856  0.2981 -0.4961 -1.9854
   29SAPC   C39 3918   5.572   3.653   7.981 -0.1256 -0.0641  0.5471
   29SAPC   H9X 3919   5.480   3.698   8.025 -3.4171 -3.2726 -2.4012
   29SAPC   H9Y 3920   5.645   3.736   7.966 -0.6313  0.9415  3.1101
   29SAPC  C310 3921   5.614   3.550   8.087  0.3072 -0.3350  0.1553
   29SAPC  H10X 3922   5.707   3.499   8.052 -0.4816 -1.1796 -0.7424
   29SAPC  H10Y 3923   5.531   3.477   8.090 -1.5461  1.6444 -0.5456
   29SAPC  C311 3924   5.642   3.606   8.234 -0.0488  0.0204 -0.3001
   29SAPC  H11X 3925   5.541   3.646   8.255 -0.3205 -0.5217 -0.5454
   29SAPC  H11Y 3926   5.696   3.702   8.217 -0.3011  0.3549  0.7606
   29SAPC  C312 3927   5.680   3.497   8.335  0.6289 -0.2860 -0.2530
   29SAPC  H12X 3928   5.773   3.456   8.291  1.0862  1.0375 -0.5856
   29SAPC  H12Y 3929   5.605   3.415   8.332  0.8852 -0.5340  0.0760
   29SAPC  C313 3930   5.685   3.541   8.484 -0.3730 -0.7222  0.4024
   29SAPC  H13X 3931   5.603   3.616   8.494 -0.2702  0.0942 -3.3992
   29SAPC  H13Y 3932   5.780   3.596   8.499 -2.4061  3.9549 -2.0193
   29SAPC  C314 3933   5.672   3.420   8.579 -0.1882 -0.1081  0.2260
   29SAPC  H14X 3934   5.762   3.356   8.591 -0.6607 -0.4539  2.3152
   29SAPC  H14Y 3935   5.591   3.360   8.531 -0.6808  0.2704  0.5837
   29SAPC  C315 3936   5.620   3.469   8.713  0.6234  0.7907  0.5169
   29SAPC  H15X 3937   5.543   3.548   8.698  0.9387  0.8658 -0.8261
   29SAPC  H15Y 3938   5.704   3.513   8.771  1.6201  1.5104 -1.4051
   29SAPC  C316 3939   5.551   3.358   8.789  0.1555  0.2017 -0.5372
   29SAPC  H16X 3940   5.611   3.265   8.783 -1.8222 -1.2836  1.1996
   29SAPC  H16Y 3941   5.452   3.341   8.743 -0.1845 -1.9842  0.8615
   29SAPC  C317 3942   5.526   3.376   8.943 -0.2465  0.6830 -0.0736
   29SAPC  H17X 3943   5.616   3.417   8.993 -1.0020  0.9200  1.1184
   29SAPC  H17Y 3944   5.511   3.280   8.997  0.1395  0.6248 -0.0669
   29SAPC  C318 3945   5.407   3.476   8.974  1.1793  0.3226 -0.0223
   29SAPC  H18X 3946   5.394   3.484   9.084  1.4728  1.1458 -0.0354
   29SAPC  H18Y 3947   5.317   3.440   8.919  1.1951  0.0087  0.1558
   29SAPC  H18Z 3948   5.432   3.575   8.930  0.2760  1.3562  1.6431
   30SAPC     N 3949   1.031   2.197   6.121  0.3244 -0.2547 -0.7837
   30SAPC   C12 3950   1.094   2.071   6.084  0.2283 -0.3443  0.4941
   30SAPC  H12A 3951   1.094   2.054   5.977 -2.6108  1.0078  0.1794
   30SAPC  H12B 3952   1.029   1.989   6.112 -0.1976 -0.4884 -0.8597
   30SAPC   C13 3953   1.101   2.321   6.074  0.7845 -0.5239 -0.5143
   30SAPC  H13A 3954   1.092   2.334   5.967 -0.2755 -0.8609 -0.4722
   30SAPC  H13B 3955   1.061   2.407   6.125  1.4153  0.1180 -1.0829
   30SAPC  H13C 3956   1.205   2.321   6.104  0.2416 -1.9342  1.6099
   30SAPC   C14 3957   0.894   2.194   6.063 -0.1873 -0.8011  1.3355
   30SAPC  H14A 3958   0.887   2.177   5.957 -0.6972 -2.3221  1.5871
   30SAPC  H14B 3959   0.835   2.113   6.103 -1.5582 -1.4308 -1.6959
   30SAPC  H14C 3960   0.835   2.284   6.079 -2.7585 -1.6234 -2.2350
   30SAPC   C15 3961   1.015   2.209   6.272 -0.1924  0.6080 -0.6813
   30SAPC  H15A 3962   0.958   2.298   6.293 -1.4141 -0.0442 -1.1418
   30SAPC  H15B 3963   0.964   2.118   6.303 -0.0771  1.3306  1.8415
   30SAPC  H15C 3964   1.112   2.219   6.317 -0.6196  0.7634  0.2158
   30SAPC   C11 3965   1.242   2.056   6.130  0.0973 -0.4702  0.1746
   30SAPC  H11A 3966   1.267   1.948   6.124  0.6043 -0.3622  0.3283
   30SAPC  H11B 3967   1.252   2.073   6.239  0.3291 -1.7338  0.3583
   30SAPC     P 3968   1.486   2.145   6.088  0.5074 -0.3578 -0.0244
   30SAPC   O13 3969   1.553   2.023   6.037 -0.3191 -0.0430  0.0739
   30SAPC   O14 3970   1.544   2.271   6.039 -0.2238 -0.0294 -0.0497
   30SAPC   O12 3971   1.330   2.135   6.052  0.2457  1.0512  0.0670
   30SAPC   O11 3972   1.492   2.144   6.244 -0.0107  0.4349  0.4250
   30SAPC    C1 3973   1.459   2.267   6.302 -0.5373 -0.3210  0.0080
   30SAPC    HA 3974   1.556   2.322   6.304 -2.0318  2.4815  1.6031
   30SAPC    HB 3975   1.374   2.322   6.257 -1.3331 -0.3492  1.4091
   30SAPC    C2 3976   1.423   2.245   6.449 -0.6719 -1.0098 -0.2576
   30SAPC    HS 3977   1.511   2.194   6.493 -0.6106 -0.4098  0.3227
   30SAPC   O21 3978   1.295   2.179   6.461 -0.3584  0.5836  0.3980
   30SAPC   C21 3979   1.289   2.097   6.565  0.0474  0.1237 -0.4465
   30SAPC   O22 3980   1.379   2.085   6.646 -0.1492  0.9652 -0.5306
   30SAPC   C22 3981   1.161   2.012   6.565  0.8503 -0.3283  0.9311
   30SAPC   H2R 3982   1.073   2.069   6.528  2.7673  1.3911 -1.2882
   30SAPC   H2S 3983   1.173   1.926   6.496 -1.5179  0.1433 -0.1615
   30SAPC    C3 3984   1.415   2.392   6.516  0.2960  0.2878 -0.1086
   30SAPC    HX 3985   1.333   2.444   6.462 -0.3408 -2.0868 -1.5614
   30SAPC    HY 3986   1.510   2.444   6.490  0.6982  0.2910  1.3207
   30SAPC   O31 3987   1.383   2.390   6.657 -0.1030  0.0720 -0.3809
   30SAPC   C31 3988   1.486   2.382   6.744 -0.5809 -0.5868  0.7864
   30SAPC   O32 3989   1.606   2.381   6.709 -0.1828  0.3646  0.4309
   30SAPC   C32 3990   1.429   2.386   6.886 -0.0296  0.1784  0.2131
   30SAPC   H2X 3991   1.459   2.290   6.933 -0.9916 -0.8206 -1.1244
   30SAPC   H2Y 3992   1.318   2.392   6.881 -0.1271 -0.9013  0.7768
   30SAPC   C23 3993   1.123   1.937   6.704 -0.8499  0.2301  0.4746
   30SAPC   H3R 3994   1.199   1.860   6.729  0.4260  1.4210  0.3307
   30SAPC   H3S 3995   1.042   1.864   6.681  0.9320 -1.6683 -0.1317
   30SAPC   C24 3996   1.101   2.027   6.824  0.3665  0.2551 -0.8795
   30SAPC   H4R 3997   1.015   2.092   6.797  0.7761  0.9919 -0.4559
   30SAPC   H4S 3998   1.198   2.077   6.844  0.0017  0.3636  0.7581
   30SAPC   C25 3999   1.072   1.940   6.940 -0.5361  0.0470  0.4211
   30SAPC   H5R 4000   0.988   1.873   6.916  0.9974 -1.7487 -0.1911
   30SAPC   C26 4001   1.133   1.923   7.058 -0.0887  0.5231  0.2535
   30SAPC   H6R 4002   1.084   1.857   7.131 -0.1283  0.3759  0.0952
   30SAPC   C27 4003   1.240   2.017   7.102  0.4134 -0.0319 -0.0304
   30SAPC   H7R 4004   1.311   2.044   7.021 -0.8214  1.0081 -0.8119
   30SAPC   H7S 4005   1.307   1.971   7.178 -0.3584  2.7957  2.5473
   30SAPC   C28 4006   1.190   2.137   7.170 -0.8306 -0.0958 -0.2253
   30SAPC   H8R 4007   1.119   2.204   7.119  0.2575  3.3217  2.3280
   30SAPC   C29 4008   1.223   2.179   7.296 -0.0755  0.0966 -0.4189
   30SAPC   H9R 4009   1.181   2.278   7.318  0.2900  0.6247 -1.9274
   30SAPC  C210 4010   1.313   2.118   7.407 -0.1977  0.1701 -0.0731
   30SAPC  H10R 4011   1.362   2.198   7.465 -0.6467  0.4335 -0.0500
   30SAPC  H10S 4012   1.395   2.056   7.365 -0.1033  0.3660 -0.1782
   30SAPC  C211 4013   1.218   2.048   7.498 -0.4175  0.7987  0.2295
   30SAPC  H11R 4014   1.175   1.951   7.467  0.1656  0.1002  1.5293
   30SAPC  C212 4015   1.181   2.096   7.616 -0.2873  0.7167  0.0517
   30SAPC  H12R 4016   1.123   2.027   7.680 -0.4975  0.0709 -0.8190
   30SAPC  C213 4017   1.224   2.227   7.672 -0.4614 -0.0177 -0.4440
   30SAPC  H13R 4018   1.145   2.256   7.745  1.6219  3.5772  0.6708
   30SAPC  H13S 4019   1.224   2.304   7.592  0.3799 -0.1356 -0.5687
   30SAPC  C214 4020   1.351   2.225   7.743 -0.2671 -0.7049  0.1239
   30SAPC  H14R 4021   1.436   2.262   7.685  2.1907 -2.5791  2.3174
   30SAPC  C215 4022   1.371   2.187   7.871 -0.5609  0.8396 -0.2979
   30SAPC  H15R 4023   1.475   2.196   7.906  0.1367 -2.0454 -1.3830
   30SAPC  C216 4024   1.268   2.129   7.965 -0.1062 -0.5590  0.0304
   30SAPC  H16R 4025   1.307   2.040   8.018 -0.8746 -0.5881  0.5718
   30SAPC  H16S 4026   1.184   2.097   7.899  0.4419 -1.6242 -0.1747
   30SAPC  C217 4027   1.219   2.231   8.070  0.1556 -0.6925 -0.5113
   30SAPC  H17R 4028   1.190   2.326   8.019 -0.0071 -1.4873 -1.9328
   30SAPC  H17S 4029   1.309   2.261   8.129 -0.3640  1.8431 -0.8965
   30SAPC  C218 4030   1.092   2.175   8.146 -0.5452  0.7017 -0.4827
   30SAPC  H18R 4031   1.060   2.245   8.226  0.0086  0.6698 -0.2272
   30SAPC  H18S 4032   1.118   2.084   8.205  0.2189  2.0762  1.4136
   30SAPC  C219 4033   0.962   2.148   8.059  1.0133 -0.0258  0.5447
   30SAPC  H19R 4034   0.965   2.056   7.998 -0.2697 -0.6187  1.3153
   30SAPC  H19S 4035   0.954   2.240   7.998 -1.4232  1.2022  2.5150
   30SAPC  C220 4036   0.834   2.150   8.150  0.2242  0.3434  0.2352
   30SAPC  H20R 4037   0.746   2.143   8.083  0.3724  0.6762  0.0007
   30SAPC  H20S 4038   0.825   2.250   8.198  2.7938  1.6492 -1.7503
   30SAPC  H20T 4039   0.826   2.070   8.226  1.5421 -0.7387 -0.7245
   30SAPC   C33 4040   1.486   2.503   6.971 -0.1454 -0.2934  0.4349
   30SAPC   H3X 4041   1.476   2.601   6.919 -0.4284  0.2742  1.5320
   30SAPC   H3Y 4042   1.590   2.475   7.000  0.2471 -0.4102 -1.0338
   30SAPC   C34 4043   1.412   2.521   7.106  0.3216 -0.6148 -0.3205
   30SAPC   H4X 4044   1.397   2.418   7.143  1.0358 -0.9011 -0.8075
   30SAPC   H4Y 4045   1.321   2.586   7.100  0.9936  0.7765  2.5993
   30SAPC   C35 4046   1.501   2.594   7.209 -0.1128  0.1668  0.1780
   30SAPC   H5X 4047   1.501   2.705   7.201 -0.5220  0.0421 -2.0422
   30SAPC   H5Y 4048   1.607   2.570   7.187 -0.7982 -0.7114 -2.5250
   30SAPC   C36 4049   1.449   2.564   7.350 -0.1882 -0.1279  0.3986
   30SAPC   H6X 4050   1.446   2.456   7.374  1.3724 -0.1767  0.4560
   30SAPC   H6Y 4051   1.349   2.601   7.381  0.7350 -0.0862  3.6388
   30SAPC   C37 4052   1.545   2.632   7.458 -0.3239 -1.0742 -0.0500
   30SAPC   H7X 4053   1.554   2.742   7.448 -0.4682 -0.7620  2.5430
   30SAPC   H7Y 4054   1.639   2.580   7.428 -0.3164  0.2305 -2.5008
   30SAPC   C38 4055   1.507   2.591   7.600 -0.0759  0.1297  0.3237
   30SAPC   H8X 4056   1.494   2.481   7.601  1.0920 -0.0988 -2.2750
   30SAPC   H8Y 4057   1.406   2.634   7.621 -0.5813 -0.0493 -1.5499
   30SAPC   C39 4058   1.619   2.634   7.695 -0.8352  0.5319  0.6869
   30SAPC   H9X 4059   1.656   2.739   7.690 -0.0443  0.1909 -2.2594
   30SAPC   H9Y 4060   1.712   2.578   7.672 -1.1548  0.0793  0.4866
   30SAPC  C310 4061   1.582   2.596   7.838 -0.1555  0.2260 -0.2715
   30SAPC  H10X 4062   1.542   2.492   7.837 -0.7701  0.4450  0.4706
   30SAPC  H10Y 4063   1.505   2.672   7.864  0.8510  1.1100  0.1985
   30SAPC  C311 4064   1.695   2.620   7.940  0.9972 -0.4118  0.1045
   30SAPC  H11X 4065   1.720   2.727   7.951 -1.1589 -0.0286  2.0119
   30SAPC  H11Y 4066   1.791   2.577   7.903  1.8135  1.4609 -0.0426
   30SAPC  C312 4067   1.648   2.585   8.079  0.2180  0.2636 -0.1402
   30SAPC  H12X 4068   1.638   2.474   8.077  1.7741  0.0654  0.8682
   30SAPC  H12Y 4069   1.551   2.633   8.104 -0.5179 -1.2046 -0.0707
   30SAPC  C313 4070   1.759   2.632   8.176  0.2037 -0.5128  0.3780
   30SAPC  H13X 4071   1.762   2.743   8.169  1.0100 -0.4757  1.0996
   30SAPC  H13Y 4072   1.861   2.597   8.149 -0.1609 -1.6122  0.3736
   30SAPC  C314 4073   1.730   2.599   8.325 -0.3096 -0.4772  0.3817
   30SAPC  H14X 4074   1.655   2.672   8.363  0.3247 -0.1843  1.1143
   30SAPC  H14Y 4075   1.820   2.611   8.390 -1.2572 -4.3832  2.7704
   30SAPC  C315 4076   1.677   2.453   8.352  0.4583 -0.1433  0.1331
   30SAPC  H15X 4077   1.746   2.373   8.317  0.7239  0.1291  0.0344
   30SAPC  H15Y 4078   1.579   2.436   8.302  0.4928 -3.4358  0.9508
   30SAPC  C316 4079   1.662   2.426   8.496 -0.2880  0.1940 -0.3927
   30SAPC  H16X 4080   1.744   2.469   8.558 -1.5267  3.7291 -1.0161
   30SAPC  H16Y 4081   1.664   2.316   8.510  0.0253  0.3638  1.0438
   30SAPC  C317 4082   1.533   2.493   8.549  0.4866  0.4787  0.1281
   30SAPC  H17X 4083   1.451   2.444   8.493  0.1126  0.8491  0.3529
   30SAPC  H17Y 4084   1.522   2.602   8.530 -2.3206 -0.0913 -2.1379
   30SAPC  C318 4085   1.519   2.469   8.700 -0.3852 -0.2516  0.1344
   30SAPC  H18X 4086   1.438   2.528   8.747 -0.5632 -1.3095  1.1945
   30SAPC  H18Y 4087   1.606   2.512   8.754 -1.7015  1.8815  0.6605
   30SAPC  H18Z 4088   1.515   2.362   8.730  3.2549 -0.1668  1.4169
   31SAPC     N 4089   2.316   1.680   5.981 -0.3796  0.3930 -0.7908
   31SAPC   C12 4090   2.171   1.675   5.980  0.1389 -0.2370 -0.7075
   31SAPC  H12A 4091   2.129   1.602   5.913 -3.1439 -2.9140  3.7375
   31SAPC  H12B 4092   2.138   1.770   5.942 -0.7985 -0.1425  0.3033
   31SAPC   C13 4093   2.360   1.736   5.849  0.0024  0.7804  0.3387
   31SAPC  H13A 4094   2.460   1.698   5.834 -1.2635 -3.6751  1.6550
   31SAPC  H13B 4095   2.296   1.685   5.778 -0.5467 -0.5414  1.7408
   31SAPC  H13C 4096   2.348   1.844   5.843 -0.2442  0.6831 -1.3438
   31SAPC   C14 4097   2.387   1.758   6.087  0.8074 -0.4998 -0.4812
   31SAPC  H14A 4098   2.487   1.720   6.105  1.5979  1.7940  0.4591
   31SAPC  H14B 4099   2.392   1.859   6.049  0.7214  0.0699  0.9588
   31SAPC  H14C 4100   2.341   1.760   6.185 -0.2130  0.0611 -0.9575
   31SAPC   C15 4101   2.365   1.542   5.992  0.1141 -0.3612  0.0272
   31SAPC  H15A 4102   2.471   1.527   5.979 -0.2716 -2.3029 -1.4306
   31SAPC  H15B 4103   2.337   1.490   6.082  4.9703 -2.4480  0.6424
   31SAPC  H15C 4104   2.312   1.491   5.913  0.2432  1.0463 -1.0155
   31SAPC   C11 4105   2.092   1.641   6.112 -0.7670 -0.5994  0.4067
   31SAPC  H11A 4106   2.126   1.543   6.152  1.4935  0.0322  0.1748
   31SAPC  H11B 4107   1.984   1.630   6.091 -0.4575 -1.2520 -0.9037
   31SAPC     P 4108   2.064   1.889   6.190 -0.0863  0.4979 -0.3714
   31SAPC   O13 4109   2.119   1.948   6.062 -0.3233 -0.6439 -0.2293
   31SAPC   O14 4110   1.916   1.884   6.207 -0.2249  0.5323 -0.1095
   31SAPC   O12 4111   2.121   1.741   6.213  0.2599 -0.3273  0.4574
   31SAPC   O11 4112   2.127   1.975   6.311 -0.5508 -0.3746 -0.4057
   31SAPC    C1 4113   2.143   1.904   6.433 -0.1170 -0.2394 -0.1215
   31SAPC    HA 4114   2.044   1.864   6.467 -1.3589  3.7585  1.5173
   31SAPC    HB 4115   2.230   1.834   6.434  1.5145  1.6393  2.3049
   31SAPC    C2 4116   2.181   2.008   6.545  0.2279  0.3155  0.2257
   31SAPC    HS 4117   2.232   1.950   6.624 -0.1862  0.4261  0.5772
   31SAPC   O21 4118   2.059   2.073   6.591 -0.4288  0.0702  0.2958
   31SAPC   C21 4119   2.058   2.096   6.721  0.8573 -0.2781  0.0134
   31SAPC   O22 4120   2.141   2.059   6.798 -0.0531  0.3250 -0.1809
   31SAPC   C22 4121   1.930   2.178   6.754 -0.2072 -0.6291  0.9068
   31SAPC   H2R 4122   1.959   2.281   6.725 -2.2076 -0.4031 -0.5338
   31SAPC   H2S 4123   1.850   2.130   6.693  0.8128 -0.6817 -0.4110
   31SAPC    C3 4124   2.274   2.119   6.492  0.3836  0.0355 -0.2303
   31SAPC    HX 4125   2.215   2.165   6.410  0.2246 -0.3057 -0.3097
   31SAPC    HY 4126   2.362   2.085   6.433  1.5438  2.3789  0.0627
   31SAPC   O31 4127   2.295   2.223   6.600 -0.7699  0.3828  0.4965
   31SAPC   C31 4128   2.417   2.217   6.645 -0.7507  0.3129  0.3555
   31SAPC   O32 4129   2.515   2.165   6.598 -0.7530 -0.2078 -0.3407
   31SAPC   C32 4130   2.421   2.281   6.790 -0.0699  0.3220  0.1691
   31SAPC   H2X 4131   2.319   2.294   6.831 -1.4376  1.5030 -3.2625
   31SAPC   H2Y 4132   2.467   2.381   6.779  1.7500 -0.6228 -1.6923
   31SAPC   C23 4133   1.891   2.179   6.904 -0.5720  0.0475  0.1706
   31SAPC   H3R 4134   1.812   2.256   6.921 -1.3100 -0.7489  0.3793
   31SAPC   H3S 4135   1.986   2.204   6.956 -1.5465  0.4846  1.8157
   31SAPC   C24 4136   1.846   2.047   6.957  0.8256  0.4237 -0.2865
   31SAPC   H4R 4137   1.862   2.044   7.067 -0.7260 -0.3402 -0.0604
   31SAPC   H4S 4138   1.908   1.959   6.931 -2.0629 -1.4307 -1.4236
   31SAPC   C25 4139   1.704   2.014   6.923  0.4428  0.1632  0.5533
   31SAPC   H5R 4140   1.691   1.974   6.821 -1.6812  2.2404 -0.0531
   31SAPC   C26 4141   1.596   2.059   6.984 -0.2210 -0.1017 -0.3676
   31SAPC   H6R 4142   1.500   2.042   6.934 -1.6737  1.6111  1.6484
   31SAPC   C27 4143   1.589   2.141   7.115  0.1739 -0.1958  0.6814
   31SAPC   H7R 4144   1.482   2.159   7.140  0.6062 -0.7098  3.1394
   31SAPC   H7S 4145   1.630   2.243   7.100 -0.5955  0.3853  2.2831
   31SAPC   C28 4146   1.653   2.069   7.238  0.2624 -0.1526  0.9043
   31SAPC   H8R 4147   1.634   1.961   7.235 -0.5250 -0.0076 -1.1933
   31SAPC   C29 4148   1.726   2.126   7.339  0.3963  0.8416  0.8104
   31SAPC   H9R 4149   1.766   2.062   7.419 -3.1673 -2.8071  0.0082
   31SAPC  C210 4150   1.753   2.279   7.358  0.6194  0.5783  0.5036
   31SAPC  H10R 4151   1.708   2.312   7.454 -0.4316 -1.1274  0.6515
   31SAPC  H10S 4152   1.688   2.337   7.289  1.7916  1.8777  0.4373
   31SAPC  C211 4153   1.894   2.325   7.344 -0.0384  0.6275 -0.6782
   31SAPC  H11R 4154   1.925   2.355   7.243 -0.9216  0.0031 -1.1533
   31SAPC  C212 4155   1.989   2.336   7.440  0.6690  0.1531 -0.4235
   31SAPC  H12R 4156   2.084   2.383   7.412 -0.6381  2.6697 -0.9885
   31SAPC  C213 4157   1.985   2.304   7.589  0.7749  0.4049 -0.0999
   31SAPC  H13R 4158   2.082   2.252   7.602  0.3207 -0.3938  0.1076
   31SAPC  H13S 4159   1.907   2.231   7.615  1.5423  0.3656  2.2703
   31SAPC  C214 4160   1.980   2.431   7.668  0.6814 -0.0449 -0.0565
   31SAPC  H14R 4161   1.940   2.518   7.615  1.3316  1.7369  2.2318
   31SAPC  C215 4162   2.015   2.451   7.796 -0.0460 -0.1682 -0.7164
   31SAPC  H15R 4163   2.007   2.550   7.843 -0.1932 -1.5232  2.3681
   31SAPC  C216 4164   2.081   2.345   7.887  0.6177  0.2778 -0.0996
   31SAPC  H16R 4165   2.115   2.390   7.983 -0.6360 -0.1523  0.5748
   31SAPC  H16S 4166   2.175   2.312   7.839  1.6011  1.9052  0.6390
   31SAPC  C217 4167   1.986   2.235   7.934  0.2844 -0.2162 -0.1243
   31SAPC  H17R 4168   2.041   2.148   7.976  1.4066  0.9020  0.7980
   31SAPC  H17S 4169   1.937   2.197   7.842  1.1213 -2.5575  0.3300
   31SAPC  C218 4170   1.870   2.288   8.013  0.4442  0.6290  0.0274
   31SAPC  H18R 4171   1.811   2.365   7.959  0.2191 -0.0459 -0.7157
   31SAPC  H18S 4172   1.895   2.345   8.104  0.3923  2.1456 -0.8702
   31SAPC  C219 4173   1.765   2.181   8.045  0.7246 -0.4677 -0.7542
   31SAPC  H19R 4174   1.721   2.142   7.950  0.8860 -1.9669 -0.2515
   31SAPC  H19S 4175   1.679   2.234   8.092  0.7579 -0.2274 -0.9636
   31SAPC  C220 4176   1.811   2.064   8.135  0.2216 -0.7398  0.2578
   31SAPC  H20R 4177   1.853   2.095   8.233 -2.8475 -2.5667  2.3292
   31SAPC  H20S 4178   1.885   2.012   8.071 -1.6941 -0.4080 -2.4207
   31SAPC  H20T 4179   1.726   1.996   8.159 -1.1601 -0.0241 -2.2219
   31SAPC   C33 4180   2.504   2.193   6.890  0.1973  0.6325  0.8577
   31SAPC   H3X 4181   2.482   2.090   6.855 -1.2338 -0.0801  3.5360
   31SAPC   H3Y 4182   2.465   2.224   6.989  1.2592  2.4888  0.7544
   31SAPC   C34 4183   2.655   2.226   6.890 -0.1823 -0.2844 -0.1396
   31SAPC   H4X 4184   2.655   2.333   6.920 -0.4028 -0.6685  1.3443
   31SAPC   H4Y 4185   2.691   2.211   6.786 -1.8482  0.4400 -0.8589
   31SAPC   C35 4186   2.736   2.144   6.991 -0.0516 -0.0405 -0.1873
   31SAPC   H5X 4187   2.844   2.168   6.986 -0.2090  0.4861 -1.7048
   31SAPC   H5Y 4188   2.731   2.037   6.963  0.7710  0.2439 -1.4772
   31SAPC   C36 4189   2.694   2.145   7.144  0.3376 -0.4939  0.4408
   31SAPC   H6X 4190   2.585   2.128   7.138  0.1781  0.0458  1.6213
   31SAPC   H6Y 4191   2.718   2.245   7.184 -1.0867  0.5608 -1.1871
   31SAPC   C37 4192   2.752   2.027   7.220  0.2011 -0.2730  0.0992
   31SAPC   H7X 4193   2.863   2.037   7.217  0.6399 -3.0466  2.4414
   31SAPC   H7Y 4194   2.732   1.934   7.164  0.8413  0.5876 -1.6380
   31SAPC   C38 4195   2.706   2.037   7.369 -0.2444 -0.8208  0.6065
   31SAPC   H8X 4196   2.596   2.024   7.368 -0.5668  1.4017 -1.6172
   31SAPC   H8Y 4197   2.719   2.142   7.402 -0.4101 -0.9917  1.2310
   31SAPC   C39 4198   2.787   1.949   7.459  0.4764  0.1453 -0.1662
   31SAPC   H9X 4199   2.894   1.965   7.436  0.2397  2.9714  0.3334
   31SAPC   H9Y 4200   2.761   1.844   7.431 -1.3827  0.8754 -1.3782
   31SAPC  C310 4201   2.756   1.969   7.606 -0.0843  0.3192 -0.8439
   31SAPC  H10X 4202   2.647   1.964   7.623  0.3790  0.0981  3.2573
   31SAPC  H10Y 4203   2.785   2.073   7.629 -2.0924  0.6732  0.3170
   31SAPC  C311 4204   2.838   1.884   7.694 -0.0209  0.4500  0.0271
   31SAPC  H11X 4205   2.943   1.873   7.659 -0.3698  1.1962 -1.3033
   31SAPC  H11Y 4206   2.805   1.779   7.677 -1.3398  0.5270  1.8487
   31SAPC  C312 4207   2.839   1.920   7.844  0.6142 -0.4055 -0.8599
   31SAPC  H12X 4208   2.844   2.029   7.865  1.4550 -0.4262 -0.9527
   31SAPC  H12Y 4209   2.920   1.868   7.897 -0.1338 -0.7807 -0.0652
   31SAPC  C313 4210   2.708   1.873   7.915  0.4574 -0.3615 -0.5549
   31SAPC  H13X 4211   2.697   1.763   7.905 -1.2767 -0.1462 -1.5435
   31SAPC  H13Y 4212   2.624   1.916   7.856  1.6371  3.5276  0.2903
   31SAPC  C314 4213   2.706   1.915   8.064 -0.2015 -0.0151  0.3878
   31SAPC  H14X 4214   2.710   2.025   8.074 -2.4724  0.0745  1.1044
   31SAPC  H14Y 4215   2.798   1.869   8.104 -0.1226  0.0935  0.3304
   31SAPC  C315 4216   2.585   1.872   8.148 -0.0980 -0.0702  0.8281
   31SAPC  H15X 4217   2.574   1.762   8.154  1.3414 -0.3451 -0.7208
   31SAPC  H15Y 4218   2.492   1.894   8.092 -0.0064 -1.9369 -0.1325
   31SAPC  C316 4219   2.595   1.924   8.290  0.4627  0.2642 -0.4540
   31SAPC  H16X 4220   2.494   1.902   8.330  0.4668  1.6316  0.3367
   31SAPC  H16Y 4221   2.609   2.034   8.292 -1.8127  0.5938  0.3615
   31SAPC  C317 4222   2.709   1.856   8.372 -0.6086  0.5050 -0.2961
   31SAPC  H17X 4223   2.807   1.899   8.341 -0.1101 -1.4023 -1.5581
   31SAPC  H17Y 4224   2.713   1.746   8.355 -0.2227  0.5672 -0.6062
   31SAPC  C318 4225   2.697   1.867   8.525 -0.1118 -0.0739 -0.3392
   31SAPC  H18X 4226   2.703   1.972   8.561 -0.1081 -0.5273  1.0745
   31SAPC  H18Y 4227   2.778   1.813   8.579 -3.0899 -3.3501  1.2281
   31SAPC  H18Z 4228   2.608   1.815   8.567  0.0250 -0.8315 -0.9718
   32SAPC     N 4229   1.669   3.304   6.063  0.0109 -1.0175  0.2044
   32SAPC   C12 4230   1.665   3.432   6.147  0.1487  0.3325  0.2681
   32SAPC  H12A 4231   1.562   3.459   6.169 -0.1938  2.5841 -3.2635
   32SAPC  H12B 4232   1.697   3.521   6.094 -1.6792  1.0142  0.2024
   32SAPC   C13 4233   1.573   3.316   5.947 -0.4187  0.4358 -0.5124
   32SAPC  H13A 4234   1.468   3.317   5.970 -0.9428  3.6307 -2.4379
   32SAPC  H13B 4235   1.583   3.406   5.887  0.1232  1.1030  0.5481
   32SAPC  H13C 4236   1.579   3.223   5.892 -1.3339  0.0919 -0.0494
   32SAPC   C14 4237   1.803   3.291   5.995  0.0197  0.6848  0.1154
   32SAPC  H14A 4238   1.815   3.209   5.926 -0.2874  0.6256  0.1319
   32SAPC  H14B 4239   1.812   3.371   5.923  1.3494 -0.1203 -0.6438
   32SAPC  H14C 4240   1.890   3.298   6.058 -1.4456  0.1871  2.3017
   32SAPC   C15 4241   1.643   3.183   6.135  1.4550 -0.2650  0.0962
   32SAPC  H15A 4242   1.560   3.207   6.200  0.4231  1.5347 -1.7615
   32SAPC  H15B 4243   1.614   3.102   6.069 -0.4454 -0.7204  1.4188
   32SAPC  H15C 4244   1.731   3.166   6.194  0.3290  0.2802  2.0184
   32SAPC   C11 4245   1.735   3.420   6.285  0.1387  0.2076 -0.0555
   32SAPC  H11A 4246   1.678   3.352   6.352 -2.3183  3.0149  0.9684
   32SAPC  H11B 4247   1.723   3.521   6.330 -1.1055 -0.4947  1.2775
   32SAPC     P 4248   1.988   3.476   6.282 -0.5906  0.0659 -0.1023
   32SAPC   O13 4249   2.115   3.412   6.234  0.3799  0.6047  0.1693
   32SAPC   O14 4250   1.956   3.611   6.230 -0.1279  0.2446 -0.0083
   32SAPC   O12 4251   1.866   3.377   6.262 -0.0791  0.1064  0.0149
   32SAPC   O11 4252   1.997   3.488   6.441 -0.3358  0.0520 -0.0514
   32SAPC    C1 4253   2.069   3.383   6.511 -0.2810  0.6254  0.3418
   32SAPC    HA 4254   2.069   3.286   6.456 -1.1832  1.3176 -0.9386
   32SAPC    HB 4255   2.175   3.413   6.524  0.2993 -1.0735 -0.2345
   32SAPC    C2 4256   2.006   3.351   6.655 -0.4845 -0.1962  0.4775
   32SAPC    HS 4257   1.898   3.328   6.647 -0.7202  0.4507  1.5604
   32SAPC   O21 4258   2.004   3.481   6.735  0.0916 -0.1302  0.4587
   32SAPC   C21 4259   1.908   3.489   6.827 -0.5812 -0.3882  0.2320
   32SAPC   O22 4260   1.821   3.409   6.849 -0.0867  0.1476 -0.1998
   32SAPC   C22 4261   1.931   3.614   6.910  0.4414  0.0217  0.1303
   32SAPC   H2R 4262   2.002   3.683   6.861  0.8830 -1.8179 -2.0190
   32SAPC   H2S 4263   1.835   3.668   6.926  0.5490  0.9226 -1.9100
   32SAPC    C3 4264   2.087   3.231   6.717 -0.2285  0.1974  0.2538
   32SAPC    HX 4265   2.190   3.270   6.717 -0.6338  1.3104  1.2707
   32SAPC    HY 4266   2.068   3.138   6.658  2.1489 -2.3779  3.1866
   32SAPC   O31 4267   2.063   3.210   6.859  0.1295 -0.5846 -0.4061
   32SAPC   C31 4268   1.955   3.145   6.886 -0.3447 -0.3226  0.0546
   32SAPC   O32 4269   1.872   3.100   6.806  0.3996  0.2655 -0.0323
   32SAPC   C32 4270   1.935   3.129   7.036 -0.0534  0.3946 -0.4921
   32SAPC   H2X 4271   1.991   3.037   7.063 -1.9412 -0.2186  1.5857
   32SAPC   H2Y 4272   1.827   3.109   7.052  0.2006 -0.6217  0.0506
   32SAPC   C23 4273   1.984   3.589   7.055 -0.5752  0.1926  0.0312
   32SAPC   H3R 4274   2.074   3.524   7.048 -1.5290 -1.2545  0.6899
   32SAPC   H3S 4275   1.918   3.522   7.114  1.0445 -2.2695 -0.8149
   32SAPC   C24 4276   2.024   3.718   7.121  0.4934  1.0292  0.1304
   32SAPC   H4R 4277   1.931   3.766   7.159 -0.2060 -0.4620  0.3697
   32SAPC   H4S 4278   2.072   3.792   7.053 -0.3305 -0.7155 -2.5016
   32SAPC   C25 4279   2.121   3.703   7.237 -0.5420  0.7133  0.2055
   32SAPC   H5R 4280   2.223   3.685   7.199 -0.4455 -1.1780  1.2392
   32SAPC   C26 4281   2.088   3.704   7.367  0.0936  0.1625 -0.9965
   32SAPC   H6R 4282   2.163   3.697   7.448  0.6018  0.1291 -1.4597
   32SAPC   C27 4283   1.952   3.706   7.430  0.2652  0.0463  0.7988
   32SAPC   H7R 4284   1.956   3.665   7.533  1.9265 -2.4917 -0.1973
   32SAPC   H7S 4285   1.886   3.650   7.360 -0.4377  2.6716 -0.8145
   32SAPC   C28 4286   1.901   3.849   7.439  0.3090  0.9419 -0.1125
   32SAPC   H8R 4287   1.867   3.892   7.344 -2.3725 -0.1503  0.2647
   32SAPC   C29 4288   1.882   3.916   7.556  1.1322 -0.6670  0.0140
   32SAPC   H9R 4289   1.856   4.023   7.554 -2.1388 -1.1958  3.0358
   32SAPC  C210 4290   1.907   3.865   7.698 -0.7833  0.5225  0.0049
   32SAPC  H10R 4291   2.004   3.811   7.706  0.8890  3.0916 -1.6987
   32SAPC  H10S 4292   1.837   3.780   7.712  1.2066 -1.2175 -0.0033
   32SAPC  C211 4293   1.908   3.973   7.802 -0.2796 -0.7650 -0.5142
   32SAPC  H11R 4294   1.968   4.064   7.785  1.0695 -1.2399  1.3731
   32SAPC  C212 4295   1.828   3.982   7.912 -0.5905 -0.1144  0.0221
   32SAPC  H12R 4296   1.831   4.075   7.971  0.3449  0.4769 -0.9332
   32SAPC  C213 4297   1.712   3.886   7.949 -0.3115  0.5419 -0.3083
   32SAPC  H13R 4298   1.757   3.809   8.016  1.5033  1.5191 -0.3286
   32SAPC  H13S 4299   1.691   3.832   7.855  2.2392  0.1907 -0.7584
   32SAPC  C214 4300   1.583   3.926   8.016  1.2788 -0.1384  0.9323
   32SAPC  H14R 4301   1.503   3.949   7.943  0.6335 -2.7633  0.7063
   32SAPC  C215 4302   1.552   3.921   8.145  0.9852  0.3825 -0.2332
   32SAPC  H15R 4303   1.453   3.951   8.181  0.4315  0.4149 -1.7177
   32SAPC  C216 4304   1.632   3.852   8.250 -0.2982 -0.2082  0.0484
   32SAPC  H16R 4305   1.707   3.777   8.216 -1.0681 -1.0446  0.1542
   32SAPC  H16S 4306   1.562   3.786   8.305 -2.0318 -1.3541 -3.2292
   32SAPC  C217 4307   1.706   3.956   8.330 -0.4720 -0.3399 -0.3158
   32SAPC  H17R 4308   1.634   4.031   8.370  3.1345  2.9543  0.5758
   32SAPC  H17S 4309   1.770   4.020   8.266 -1.0622  1.8318  1.1497
   32SAPC  C218 4310   1.772   3.908   8.456 -0.0108  0.2146 -0.6620
   32SAPC  H18R 4311   1.861   3.846   8.431  0.3328  0.1495  0.6128
   32SAPC  H18S 4312   1.704   3.855   8.525  0.7745  0.7005  0.5200
   32SAPC  C219 4313   1.834   4.018   8.540 -0.6266 -0.4827  0.2245
   32SAPC  H19R 4314   1.768   4.107   8.550 -0.9904 -0.6552 -0.5609
   32SAPC  H19S 4315   1.923   4.056   8.487 -0.5715 -1.0780 -0.1200
   32SAPC  C220 4316   1.881   3.969   8.679 -0.7214 -0.6443 -0.5677
   32SAPC  H20R 4317   1.946   3.880   8.665 -0.5765 -0.4281 -1.3051
   32SAPC  H20S 4318   1.794   3.937   8.740 -0.3683 -2.3991 -0.9315
   32SAPC  H20T 4319   1.928   4.061   8.720 -1.2112 -0.1898 -1.0231
   32SAPC   C33 4320   1.973   3.244   7.123  0.1794 -0.5287  0.5631
   32SAPC   H3X 4321   1.912   3.335   7.105  2.9406  1.0715 -1.5687
   32SAPC   H3Y 4322   2.083   3.264   7.120  0.6439 -2.7676  1.2036
   32SAPC   C34 4323   1.936   3.209   7.262  0.6847 -0.6387 -0.0927
   32SAPC   H4X 4324   2.009   3.138   7.305 -0.9846 -0.7961  2.7679
   32SAPC   H4Y 4325   1.836   3.161   7.274  1.3237 -1.8430  0.5551
   32SAPC   C35 4326   1.937   3.331   7.367  0.0330  1.1649  0.0438
   32SAPC   H5X 4327   1.863   3.408   7.338 -0.6292  0.6581  0.3689
   32SAPC   H5Y 4328   2.042   3.366   7.352  0.6954 -1.0676 -1.0647
   32SAPC   C36 4329   1.915   3.286   7.510  0.2896  0.1865  0.5324
   32SAPC   H6X 4330   1.993   3.213   7.540  0.5123  0.2292  0.0551
   32SAPC   H6Y 4331   1.820   3.229   7.517  0.7005 -0.4801  0.7089
   32SAPC   C37 4332   1.924   3.407   7.615  0.5189  0.0445 -0.5480
   32SAPC   H7X 4333   1.831   3.467   7.602 -0.4195  0.3668  5.1073
   32SAPC   H7Y 4334   2.011   3.468   7.582  0.1098  0.6295 -0.5724
   32SAPC   C38 4335   1.920   3.362   7.760 -0.7691 -0.0443 -0.3370
   32SAPC   H8X 4336   2.013   3.304   7.781 -0.1574  0.8976 -0.3955
   32SAPC   H8Y 4337   1.837   3.289   7.774 -0.9650 -0.3055 -2.5045
   32SAPC   C39 4338   1.910   3.476   7.860 -0.4815  0.2592  0.1617
   32SAPC   H9X 4339   1.818   3.537   7.846 -1.9680 -2.0113 -0.5086
   32SAPC   H9Y 4340   1.991   3.551   7.854  2.8434 -3.2130 -2.8096
   32SAPC  C310 4341   1.912   3.431   8.011 -0.0472  0.1000 -0.5427
   32SAPC  H10X 4342   1.990   3.353   8.024 -1.4540 -1.6179 -2.0130
   32SAPC  H10Y 4343   1.813   3.386   8.033 -1.4457  2.4064 -1.6671
   32SAPC  C311 4344   1.942   3.540   8.110 -0.2303  0.2384  0.5226
   32SAPC  H11X 4345   1.849   3.601   8.107 -1.5923 -1.7503 -1.6237
   32SAPC  H11Y 4346   2.027   3.601   8.073 -0.1868  0.8753  1.6523
   32SAPC  C312 4347   1.972   3.480   8.249  0.4510  0.1942 -0.1539
   32SAPC  H12X 4348   2.064   3.418   8.242 -0.2912 -0.9032 -0.3655
   32SAPC  H12Y 4349   1.877   3.424   8.264  0.1777  0.2068 -1.6855
   32SAPC  C313 4350   1.990   3.577   8.362  0.1848  0.1077  0.3208
   32SAPC  H13X 4351   1.909   3.654   8.369 -1.0491 -1.2653  2.0564
   32SAPC  H13Y 4352   2.081   3.641   8.355  0.2766 -0.2227 -1.9672
   32SAPC  C314 4353   1.980   3.512   8.503 -0.2417  0.1448  0.5212
   32SAPC  H14X 4354   2.058   3.433   8.507 -1.1324 -0.9500 -1.9769
   32SAPC  H14Y 4355   1.884   3.457   8.515  0.2463 -0.9057 -0.2242
   32SAPC  C315 4356   2.010   3.612   8.622 -0.0916  0.2719 -0.6295
   32SAPC  H15X 4357   1.930   3.689   8.616  0.1566  0.8636  2.2996
   32SAPC  H15Y 4358   2.109   3.661   8.613  1.9137 -3.5054 -0.9647
   32SAPC  C316 4359   1.990   3.551   8.764  0.1377 -0.4805 -0.0661
   32SAPC  H16X 4360   2.049   3.461   8.789 -1.8356 -2.0482 -0.7953
   32SAPC  H16Y 4361   1.885   3.515   8.776  0.2079 -0.1528  1.8319
   32SAPC  C317 4362   2.019   3.655   8.870 -0.0728 -0.2076  0.1387
   32SAPC  H17X 4363   1.957   3.746   8.853  0.9106  0.1753 -1.7185
   32SAPC  H17Y 4364   2.119   3.701   8.855 -0.3999  0.4906  0.0376
   32SAPC  C318 4365   1.987   3.603   9.009 -0.4343  0.3349 -0.4807
   32SAPC  H18X 4366   2.001   3.683   9.085 -1.4729 -0.5890  0.7351
   32SAPC  H18Y 4367   2.066   3.530   9.037 -0.3330  1.0251  1.1308
   32SAPC  H18Z 4368   1.889   3.555   9.033  0.4148 -0.6288  1.2803
   33POPC     N 4369   6.020   1.640  10.704 -0.4391 -0.1954  0.1486
   33POPC   C12 4370   5.992   1.708  10.574 -0.4789 -0.3971 -0.2263
   33POPC  H12A 4371   6.037   1.806  10.564  1.5731 -1.4225 -1.9965
   33POPC  H12B 4372   5.885   1.716  10.558 -0.5206 -1.8107 -0.8205
   33POPC   C13 4373   6.169   1.619  10.722 -0.5533  0.2507 -0.2547
   33POPC  H13A 4374   6.190   1.584  10.822  0.7806  0.1995 -0.5344
   33POPC  H13B 4375   6.207   1.549  10.649 -0.6381 -0.7834  0.6792
   33POPC  H13C 4376   6.230   1.708  10.726  0.4138 -0.4570  1.6855
   33POPC   C14 4377   5.965   1.726  10.811  0.2032 -0.5770 -0.2981
   33POPC  H14A 4378   6.016   1.821  10.815 -2.1393  0.7241  0.3404
   33POPC  H14B 4379   5.864   1.753  10.786 -0.0665  0.6361  1.8216
   33POPC  H14C 4380   5.965   1.675  10.906  3.4667  0.3366  0.3222
   33POPC   C15 4381   5.944   1.512  10.710 -0.5304  0.2563  0.3563
   33POPC  H15A 4382   5.983   1.438  10.641  0.0020  0.1070  0.8112
   33POPC  H15B 4383   5.843   1.538  10.683 -0.7275  1.8589  2.3958
   33POPC  H15C 4384   5.939   1.469  10.809  0.0104  1.2006  0.8036
   33POPC   C11 4385   6.041   1.635  10.447 -0.6157  0.1486  0.2638
   33POPC  H11A 4386   6.008   1.694  10.359  1.3884  4.0040  1.8584
   33POPC  H11B 4387   5.995   1.534  10.448 -1.0631  0.3102 -1.5728
   33POPC     P 4388   6.268   1.748  10.410 -0.1036 -0.0950 -0.0684
   33POPC   O13 4389   6.412   1.716  10.458  0.2247 -0.1251  0.6309
   33POPC   O14 4390   6.205   1.872  10.468  0.0504 -0.0859  0.1740
   33POPC   O12 4391   6.179   1.623  10.444  0.2479 -0.1238  0.0894
   33POPC   O11 4392   6.265   1.744  10.251 -0.0825  0.2894  0.1583
   33POPC    C1 4393   6.276   1.603  10.205 -0.1028  0.6015 -0.3484
   33POPC    HA 4394   6.348   1.537  10.258 -0.0398 -0.6758 -1.9579
   33POPC    HB 4395   6.176   1.557  10.220  0.5853 -0.6679  0.5763
   33POPC    C2 4396   6.299   1.597  10.050 -0.8918 -0.3345  0.1202
   33POPC    HS 4397   6.209   1.633   9.995 -0.9439 -1.0756 -0.2821
   33POPC   O21 4398   6.327   1.469  10.002  0.5791  0.4157 -0.2886
   33POPC   C21 4399   6.265   1.360  10.037  0.9042  0.5951  0.3286
   33POPC   O22 4400   6.164   1.358  10.103  0.4789 -0.5410 -0.3415
   33POPC   C22 4401   6.333   1.232   9.978 -0.0654  0.2675  0.5625
   33POPC   H2R 4402   6.399   1.186  10.055  1.7470  2.9437  0.7352
   33POPC   H2S 4403   6.394   1.273   9.894 -1.8431  2.1445  0.1077
   33POPC    C3 4404   6.412   1.696  10.013 -0.7564  0.3322  0.1247
   33POPC    HX 4405   6.501   1.657  10.068 -0.2528  2.8542  1.2181
   33POPC    HY 4406   6.388   1.800  10.045  0.6328  1.3583 -1.9765
   33POPC   O31 4407   6.436   1.707   9.875  0.5142  0.0016 -0.1864
   33POPC   C31 4408   6.520   1.623   9.827  0.2431 -0.2383  0.3907
   33POPC   O32 4409   6.585   1.537   9.884 -0.1098 -0.1094 -0.2571
   33POPC   C32 4410   6.538   1.642   9.673  0.6438  0.8188 -0.5017
   33POPC   H2X 4411   6.560   1.750   9.658  0.4583  1.0072  0.5368
   33POPC   H2Y 4412   6.439   1.617   9.629  0.3687 -1.6456  1.3309
   33POPC   C23 4413   6.231   1.121   9.932 -0.2877 -0.1349 -0.1529
   33POPC   H3R 4414   6.194   1.064  10.020  0.7580 -1.1560 -0.3397
   33POPC   H3S 4415   6.292   1.047   9.875  2.8927  1.6354  0.7138
   33POPC   C24 4416   6.103   1.154   9.853  0.2337  0.7404 -0.3619
   33POPC   H4R 4417   6.024   1.181   9.926 -0.5924 -1.9081 -0.1660
   33POPC   H4S 4418   6.056   1.060   9.817  0.2030 -0.3859  2.3634
   33POPC   C25 4419   6.116   1.262   9.747  0.8944 -0.5602 -0.6579
   33POPC   H5R 4420   6.161   1.355   9.788  1.6379 -1.3505  0.3681
   33POPC   H5S 4421   6.017   1.295   9.708  1.6809 -1.1527 -3.3559
   33POPC   C26 4422   6.201   1.222   9.631  0.0141  0.2809 -0.2906
   33POPC   H6R 4423   6.150   1.141   9.576  1.7601 -0.8869 -0.2596
   33POPC   H6S 4424   6.302   1.186   9.662 -0.1946  0.4742  0.6461
   33POPC   C27 4425   6.223   1.335   9.533  0.2558  0.8412 -0.2866
   33POPC   H7R 4426   6.295   1.416   9.558  0.0285  1.1908 -0.7591
   33POPC   H7S 4427   6.132   1.396   9.514 -0.6253 -0.8341 -1.7166
   33POPC   C28 4428   6.244   1.278   9.391 -0.3588  0.1923 -0.5155
   33POPC   H8R 4429   6.143   1.248   9.355 -1.0146 -0.8028  1.9234
   33POPC   H8S 4430   6.301   1.183   9.389 -1.9730 -0.9037  1.2249
   33POPC   C29 4431   6.304   1.372   9.291  0.3990 -0.1692  0.0524
   33POPC   H91 4432   6.254   1.469   9.300  0.1715 -0.3781  1.1162
   33POPC  C210 4433   6.400   1.347   9.201  0.3793  0.2916  0.7348
   33POPC  H101 4434   6.438   1.438   9.152  0.9989  0.1725  0.9880
   33POPC  C211 4435   6.481   1.220   9.190 -0.5384  0.5152  0.8896
   33POPC  H11R 4436   6.419   1.133   9.221  0.6371 -0.8785 -0.4983
   33POPC  H11S 4437   6.567   1.223   9.260  2.3709  2.7681 -2.4125
   33POPC  C212 4438   6.542   1.185   9.047  0.4986  0.1242 -0.5214
   33POPC  H12R 4439   6.618   1.259   9.014 -0.2587  1.1940  0.0972
   33POPC  H12S 4440   6.468   1.196   8.965 -0.1978  1.6315  0.2767
   33POPC  C213 4441   6.616   1.042   9.054  0.3506  0.2888  0.5806
   33POPC  H13R 4442   6.687   1.035   9.139  1.3923 -0.8245 -0.3644
   33POPC  H13S 4443   6.677   1.015   8.965 -1.1680  0.4875 -0.5623
   33POPC  C214 4444   6.507   0.928   9.064 -0.8563 -0.6430 -1.0739
   33POPC  H14R 4445   6.427   0.963   8.996 -0.2918  0.0665 -1.3950
   33POPC  H14S 4446   6.466   0.927   9.167 -2.1015 -1.0790 -1.5642
   33POPC  C215 4447   6.557   0.790   9.018  0.5872 -0.1341  0.1634
   33POPC  H15R 4448   6.599   0.801   8.916  0.8170  0.9568  0.3608
   33POPC  H15S 4449   6.475   0.719   8.995  0.0081  0.5407  0.0990
   33POPC  C216 4450   6.649   0.725   9.124  0.0708  0.3229 -0.0767
   33POPC  H16R 4451   6.742   0.784   9.135  0.9997 -0.7418 -1.8382
   33POPC  H16S 4452   6.686   0.641   9.061  1.1071 -0.3049  1.2920
   33POPC  C217 4453   6.586   0.678   9.255 -0.3524 -0.7230 -0.3570
   33POPC  H17R 4454   6.540   0.581   9.226 -0.2263 -1.0027  0.3578
   33POPC  H17S 4455   6.512   0.753   9.290  0.0324 -0.0113 -1.0341
   33POPC  C218 4456   6.670   0.641   9.375  0.6656 -0.5129 -1.1408
   33POPC  H18R 4457   6.615   0.569   9.439  2.6669 -1.6320 -0.5977
   33POPC  H18S 4458   6.673   0.728   9.444  1.6149 -1.1695 -0.3230
   33POPC  H18T 4459   6.771   0.601   9.352  0.5393 -0.8293 -1.1503
   33POPC   C33 4460   6.663   1.571   9.607 -0.4085 -0.0322 -0.0677
   33POPC   H3X 4461   6.666   1.463   9.631 -0.8606  0.0841  0.5458
   33POPC   H3Y 4462   6.758   1.609   9.652  1.2153 -3.2159 -0.5557
   33POPC   C34 4463   6.668   1.590   9.448  0.3032 -0.9731 -0.5790
   33POPC   H4X 4464   6.582   1.537   9.402  1.5787 -3.7519 -0.0297
   33POPC   H4Y 4465   6.758   1.535   9.412  0.6190 -1.2023  0.5235
   33POPC   C35 4466   6.656   1.736   9.404 -0.4273 -0.2849  0.1173
   33POPC   H5X 4467   6.753   1.778   9.438 -0.3998 -0.9613  0.9277
   33POPC   H5Y 4468   6.590   1.799   9.467  1.4198 -1.2478  3.2967
   33POPC   C36 4469   6.631   1.750   9.255  0.2956 -0.7017 -0.1363
   33POPC   H6X 4470   6.571   1.841   9.235 -0.1389 -1.2948 -1.6326
   33POPC   H6Y 4471   6.563   1.674   9.212 -0.7416 -0.2182  0.5928
   33POPC   C37 4472   6.763   1.756   9.181  0.9152  0.5587 -0.4436
   33POPC   H7X 4473   6.805   1.653   9.187  0.3359  0.3272 -0.1890
   33POPC   H7Y 4474   6.833   1.825   9.233 -0.3097  0.9799  0.7057
   33POPC   C38 4475   6.747   1.777   9.029 -0.1331  0.2004 -0.0462
   33POPC   H8X 4476   6.842   1.747   8.980 -0.1006  1.1813 -0.6068
   33POPC   H8Y 4477   6.733   1.885   9.009 -1.5045 -0.1867 -1.3580
   33POPC   C39 4478   6.642   1.693   8.956  0.4232  0.1368  0.3517
   33POPC   H9X 4479   6.546   1.694   9.011  1.1903  0.3744  1.7176
   33POPC   H9Y 4480   6.684   1.591   8.965 -1.7321 -1.1019 -2.2737
   33POPC  C310 4481   6.634   1.735   8.808  0.8199  0.5052 -0.3409
   33POPC  H10X 4482   6.734   1.720   8.763  1.6542 -1.7144  1.9690
   33POPC  H10Y 4483   6.610   1.843   8.798  3.1224  0.9058 -2.2750
   33POPC  C311 4484   6.525   1.657   8.739 -0.0866  0.2068 -0.3963
   33POPC  H11X 4485   6.500   1.677   8.633 -2.9928 -1.6206 -0.1783
   33POPC  H11Y 4486   6.430   1.685   8.789  1.1552 -0.4184  2.6006
   33POPC  C312 4487   6.539   1.501   8.752  0.5519 -0.3247  0.1543
   33POPC  H12X 4488   6.483   1.465   8.841  1.6139 -2.4762  0.0288
   33POPC  H12Y 4489   6.639   1.455   8.768  0.6732 -0.9061 -2.0497
   33POPC  C313 4490   6.476   1.430   8.638 -0.1031  0.0352  0.6223
   33POPC  H13X 4491   6.526   1.472   8.548 -1.3569  1.7822  0.6830
   33POPC  H13Y 4492   6.374   1.472   8.630  0.2642  1.1123  1.5121
   33POPC  C314 4493   6.450   1.280   8.653 -0.9448 -0.0821 -0.4455
   33POPC  H14X 4494   6.400   1.243   8.561  1.3145 -1.6228 -1.1559
   33POPC  H14Y 4495   6.388   1.275   8.744  1.4045  1.3974  1.3610
   33POPC  C315 4496   6.576   1.195   8.666 -0.4403 -0.0230 -0.3238
   33POPC  H15X 4497   6.632   1.227   8.756 -3.0825 -0.0761  1.4298
   33POPC  H15Y 4498   6.648   1.217   8.584 -2.6246  0.6640 -2.1608
   33POPC  C316 4499   6.546   1.045   8.671  0.3091  0.0219 -0.2357
   33POPC  H16X 4500   6.502   1.016   8.574 -0.3623  0.7409 -0.1617
   33POPC  H16Y 4501   6.473   1.037   8.755  1.7755  2.3396  1.4118
   33POPC  H16Z 4502   6.632   0.983   8.705  2.9188  2.8838 -1.1225
   34POPC     N 4503   4.343   1.907  10.971  0.1456  0.5317 -0.1533
   34POPC   C12 4504   4.322   1.930  10.824  0.3188  0.6277  0.3623
   34POPC  H12A 4505   4.222   1.902  10.797 -0.1883  2.4446  0.2152
   34POPC  H12B 4506   4.376   1.859  10.764  0.1622 -0.1010  1.0629
   34POPC   C13 4507   4.488   1.911  11.014  0.2752 -0.7119 -0.0694
   34POPC  H13A 4508   4.527   2.011  11.000 -1.2558  0.0002  0.5797
   34POPC  H13B 4509   4.501   1.903  11.121 -0.5453  0.9365  0.1868
   34POPC  H13C 4510   4.540   1.838  10.953  1.1746  0.6990 -1.0652
   34POPC   C14 4511   4.276   2.012  11.058  0.0090 -0.1634 -0.8770
   34POPC  H14A 4512   4.301   2.009  11.163  1.5624  1.0559 -1.1683
   34POPC  H14B 4513   4.307   2.112  11.031  0.1268 -0.2316 -0.9926
   34POPC  H14C 4514   4.168   2.011  11.050 -0.3398  1.7174  1.9612
   34POPC   C15 4515   4.289   1.774  11.014 -0.3775  0.2399  0.4098
   34POPC  H15A 4516   4.302   1.762  11.121  0.6817  0.0130  0.2682
   34POPC  H15B 4517   4.340   1.690  10.970 -0.5804 -0.3723  1.3187
   34POPC  H15C 4518   4.184   1.766  10.989  0.2328 -1.8260 -1.8043
   34POPC   C11 4519   4.355   2.070  10.772 -0.4511  0.1108  0.9136
   34POPC  H11A 4520   4.302   2.147  10.833  0.8728  1.2247  0.7053
   34POPC  H11B 4521   4.316   2.080  10.669  1.9823 -1.6688 -0.2677
   34POPC     P 4522   4.556   2.235  10.809 -0.0967  0.1121  0.2281
   34POPC   O13 4523   4.702   2.223  10.830 -0.1969  0.5313  0.1390
   34POPC   O14 4524   4.475   2.287  10.925 -0.6658  0.2270  0.2676
   34POPC   O12 4525   4.496   2.094  10.760 -0.0056 -0.2722  0.0298
   34POPC   O11 4526   4.540   2.324  10.681 -0.7137  0.5378 -0.0030
   34POPC    C1 4527   4.557   2.274  10.550  0.2394 -0.6760 -0.2736
   34POPC    HA 4528   4.573   2.164  10.554  2.1748 -0.4119 -0.1614
   34POPC    HB 4529   4.651   2.311  10.504  0.9870 -1.8253  0.2847
   34POPC    C2 4530   4.418   2.297  10.470  1.2906 -0.4318 -0.5120
   34POPC    HS 4531   4.334   2.272  10.538  0.9844 -0.3859 -0.8710
   34POPC   O21 4532   4.418   2.216  10.357  0.2011  0.3949 -0.5290
   34POPC   C21 4533   4.300   2.200  10.302  0.4710 -0.8713  0.3299
   34POPC   O22 4534   4.193   2.226  10.357 -0.2162 -0.5966  0.2092
   34POPC   C22 4535   4.306   2.124  10.175 -0.2088  0.6603  0.3559
   34POPC   H2R 4536   4.370   2.038  10.202  0.1665  0.6788 -0.4480
   34POPC   H2S 4537   4.355   2.192  10.102  1.7406 -0.2367  0.7738
   34POPC    C3 4538   4.386   2.445  10.436  0.5655 -0.6489  0.3594
   34POPC    HX 4539   4.373   2.494  10.535 -0.1194  1.5572 -0.7507
   34POPC    HY 4540   4.288   2.445  10.384  2.2525 -0.2781 -3.1329
   34POPC   O31 4541   4.495   2.501  10.366 -0.5839  0.0067  0.5973
   34POPC   C31 4542   4.500   2.482  10.235  0.4012 -0.9391  0.1851
   34POPC   O32 4543   4.416   2.426  10.162 -0.4520 -0.3709  0.5162
   34POPC   C32 4544   4.639   2.527  10.193  0.0536 -0.2556  0.7319
   34POPC   H2X 4545   4.708   2.458  10.245 -1.1447 -2.5242 -0.5701
   34POPC   H2Y 4546   4.648   2.635  10.220 -2.3427  0.7462 -1.8820
   34POPC   C23 4547   4.167   2.085  10.111 -0.0648  0.5201 -0.2883
   34POPC   H3R 4548   4.109   2.179  10.094 -0.8206  0.3741  1.2656
   34POPC   H3S 4549   4.118   2.026  10.191  0.4356  1.5966  0.8485
   34POPC   C24 4550   4.178   1.997   9.987  0.8034 -1.3138 -0.5195
   34POPC   H4R 4551   4.080   1.945   9.981  0.7887 -1.6451  1.7850
   34POPC   H4S 4552   4.250   1.913  10.000  0.8777 -0.8779  2.4986
   34POPC   C25 4553   4.212   2.074   9.862  0.2580  0.4941  0.4688
   34POPC   H5R 4554   4.298   2.143   9.880 -0.6493  1.4278  1.3630
   34POPC   H5S 4555   4.126   2.134   9.826  0.6673 -0.1489 -1.7384
   34POPC   C26 4556   4.248   1.972   9.755 -0.1347 -0.9904 -0.4529
   34POPC   H6R 4557   4.303   1.890   9.806 -1.7163 -1.6887  0.2176
   34POPC   H6S 4558   4.310   2.015   9.673  1.0120 -0.1464  0.8083
   34POPC   C27 4559   4.132   1.908   9.680  0.3011 -0.2313  0.2613
   34POPC   H7R 4560   4.078   1.988   9.626 -1.1100 -1.7955 -0.7547
   34POPC   H7S 4561   4.066   1.858   9.754 -0.6399  2.4490  1.3618
   34POPC   C28 4562   4.173   1.805   9.571  0.1135 -0.4472  0.1000
   34POPC   H8R 4563   4.208   1.706   9.608  0.6456 -0.2771  0.0555
   34POPC   H8S 4564   4.257   1.855   9.518  0.2870  0.6802  1.4074
   34POPC   C29 4565   4.054   1.786   9.474  0.4166 -0.9403  0.6807
   34POPC   H91 4566   3.994   1.699   9.506 -1.7193  1.1471  2.7048
   34POPC  C210 4567   4.031   1.859   9.368  0.6159 -0.7692 -0.7670
   34POPC  H101 4568   3.953   1.832   9.296  1.3038 -1.7131 -1.1841
   34POPC  C211 4569   4.122   1.962   9.324  0.0103  0.2024 -0.0621
   34POPC  H11R 4570   4.174   1.914   9.239  0.8365 -1.2651  1.2116
   34POPC  H11S 4571   4.206   1.989   9.392 -0.9195  0.7597  0.8843
   34POPC  C212 4572   4.067   2.104   9.283  0.7341  0.2619 -0.0870
   34POPC  H12R 4573   4.151   2.173   9.263  0.5021  0.1018 -1.7239
   34POPC  H12S 4574   4.005   2.141   9.368 -1.8692 -1.0962 -1.2596
   34POPC  C213 4575   3.972   2.114   9.161  0.0329  0.0466 -0.1706
   34POPC  H13R 4576   3.954   2.224   9.155  3.5559  0.8452  1.2253
   34POPC  H13S 4577   3.876   2.067   9.190  0.4946 -0.3396  0.7856
   34POPC  C214 4578   4.043   2.062   9.027  0.1029 -0.0639  0.1701
   34POPC  H14R 4579   4.039   1.951   9.034 -1.5847  0.0385  1.5935
   34POPC  H14S 4580   4.147   2.100   9.027  0.5515 -0.7190 -4.4778
   34POPC  C215 4581   3.970   2.114   8.902  0.7369  0.0057  1.3313
   34POPC  H15R 4582   3.985   2.224   8.902  2.1724 -0.1614  2.8142
   34POPC  H15S 4583   3.864   2.091   8.926 -0.1336  1.7381 -0.5531
   34POPC  C216 4584   4.034   2.066   8.770  0.3440 -0.5430  0.9954
   34POPC  H16R 4585   4.039   1.955   8.772  1.1671 -0.5142  2.5464
   34POPC  H16S 4586   4.136   2.111   8.768 -0.9142  2.6061  1.5971
   34POPC  C217 4587   3.967   2.117   8.642  0.1746  1.0601  0.0733
   34POPC  H17R 4588   3.860   2.089   8.653  1.0121 -2.0856  1.4704
   34POPC  H17S 4589   4.015   2.062   8.558 -1.0630  0.3433 -0.1961
   34POPC  C218 4590   3.977   2.264   8.613 -0.2682  0.1796 -0.4656
   34POPC  H18R 4591   3.974   2.278   8.503  2.3838 -1.9084 -0.9018
   34POPC  H18S 4592   4.073   2.305   8.650 -0.5988 -0.4420  1.1682
   34POPC  H18T 4593   3.895   2.323   8.658  0.0431 -0.6643  1.2818
   34POPC   C33 4594   4.665   2.514  10.037 -0.1042 -0.2806  0.4355
   34POPC   H3X 4595   4.590   2.442   9.998  1.5473 -1.1083 -1.3700
   34POPC   H3Y 4596   4.764   2.469  10.016 -0.0744 -0.1301  0.2501
   34POPC   C34 4597   4.637   2.653   9.974 -0.2154 -0.2576  0.3922
   34POPC   H4X 4598   4.705   2.736  10.005  2.4563 -1.4187 -1.9115
   34POPC   H4Y 4599   4.532   2.682   9.996 -0.1320  0.2286  0.1572
   34POPC   C35 4600   4.645   2.648   9.819 -0.0065  0.1365 -0.4794
   34POPC   H5X 4601   4.746   2.624   9.781 -0.7878 -0.2964 -2.3675
   34POPC   H5Y 4602   4.614   2.748   9.784 -6.4294 -0.8853  0.9751
   34POPC   C36 4603   4.551   2.542   9.755 -0.1799 -0.3038 -0.3892
   34POPC   H6X 4604   4.445   2.539   9.789 -0.6977 -1.5761 -2.0350
   34POPC   H6Y 4605   4.584   2.438   9.776 -3.5840 -1.5812 -0.8185
   34POPC   C37 4606   4.547   2.568   9.602 -0.3841  0.1125  0.1996
   34POPC   H7X 4607   4.644   2.545   9.552 -1.7057 -0.6347 -2.1886
   34POPC   H7Y 4608   4.525   2.675   9.578 -0.0585  0.1412  0.0184
   34POPC   C38 4609   4.445   2.481   9.530  0.1242 -0.1382 -0.3436
   34POPC   H8X 4610   4.341   2.500   9.562  0.5518  2.5219 -0.3009
   34POPC   H8Y 4611   4.468   2.373   9.545 -0.8239 -0.4756 -1.2042
   34POPC   C39 4612   4.452   2.497   9.369 -0.0640  0.4614 -0.2474
   34POPC   H9X 4613   4.548   2.455   9.331 -0.4092  0.0718 -0.6850
   34POPC   H9Y 4614   4.442   2.604   9.343  0.6489  0.2317 -1.5608
   34POPC  C310 4615   4.336   2.422   9.296 -0.0675 -0.8988 -0.4726
   34POPC  H10X 4616   4.237   2.463   9.325  0.4778 -0.1359  0.3484
   34POPC  H10Y 4617   4.338   2.320   9.342 -0.6780 -0.0707  1.4826
   34POPC  C311 4618   4.347   2.410   9.145 -0.1444 -0.7945 -0.0940
   34POPC  H11X 4619   4.299   2.319   9.103  0.3645 -1.2829  0.3733
   34POPC  H11Y 4620   4.453   2.412   9.114 -0.4423  1.2305 -1.1639
   34POPC  C312 4621   4.286   2.533   9.072  0.2689 -0.1254 -0.2103
   34POPC  H12X 4622   4.321   2.632   9.110  1.6485  0.2822 -2.3727
   34POPC  H12Y 4623   4.176   2.528   9.086  0.2512  0.3222 -0.1794
   34POPC  C313 4624   4.320   2.520   8.929 -0.9112  0.3623  0.1731
   34POPC  H13X 4625   4.252   2.583   8.867  1.6254  0.9288 -2.2836
   34POPC  H13Y 4626   4.307   2.415   8.895  1.3345 -0.8143  2.6557
   34POPC  C314 4627   4.468   2.576   8.898 -0.1887  0.3742  0.0622
   34POPC  H14X 4628   4.544   2.514   8.949 -2.2663 -0.4864  2.3212
   34POPC  H14Y 4629   4.490   2.674   8.947  1.4542  0.3019 -0.4741
   34POPC  C315 4630   4.499   2.574   8.749 -0.7740 -0.0741  0.5920
   34POPC  H15X 4631   4.409   2.623   8.708 -0.3418  0.5084  0.3250
   34POPC  H15Y 4632   4.500   2.470   8.710  1.0057 -0.5342  1.7325
   34POPC  C316 4633   4.629   2.656   8.710  0.2337  0.6249  0.4679
   34POPC  H16X 4634   4.630   2.735   8.788 -1.3152 -0.0609  1.2373
   34POPC  H16Y 4635   4.607   2.700   8.611  0.5551 -1.1324 -0.4127
   34POPC  H16Z 4636   4.719   2.591   8.715 -1.1949 -1.6181 -1.2446
   35POPC     N 4637   3.444   4.616  10.894 -0.1770 -0.2469  0.3896
   35POPC   C12 4638   3.340   4.565  10.794 -0.5149 -0.2228  0.8944
   35POPC  H12A 4639   3.300   4.652  10.744 -1.4701 -2.3242 -2.2242
   35POPC  H12B 4640   3.254   4.523  10.844 -1.4310 -1.1917 -1.3556
   35POPC   C13 4641   3.502   4.501  10.970 -0.5487  0.2760 -0.4575
   35POPC  H13A 4642   3.424   4.441  11.014  0.3674 -0.9569 -0.4538
   35POPC  H13B 4643   3.549   4.427  10.906 -0.5208 -0.6677  0.6233
   35POPC  H13C 4644   3.566   4.532  11.051 -1.6890 -0.9096  0.9561
   35POPC   C14 4645   3.545   4.705  10.828 -0.5637 -0.0549  0.3609
   35POPC  H14A 4646   3.607   4.762  10.896 -1.4269  1.6479 -0.2372
   35POPC  H14B 4647   3.598   4.653  10.750 -1.2387  0.7218 -0.6305
   35POPC  H14C 4648   3.481   4.785  10.795 -0.7253  0.7512  2.4306
   35POPC   C15 4649   3.365   4.695  10.999  0.3439  0.6902  0.3894
   35POPC  H15A 4650   3.288   4.643  11.055  0.2074 -0.6695 -1.0130
   35POPC  H15B 4651   3.321   4.780  10.949  1.0461 -0.0741 -1.6214
   35POPC  H15C 4652   3.436   4.728  11.073 -0.6827  2.0464  0.8188
   35POPC   C11 4653   3.396   4.453  10.699  0.2781 -0.6409  0.7646
   35POPC  H11A 4654   3.486   4.499  10.652 -0.3433 -1.8490 -1.7898
   35POPC  H11B 4655   3.329   4.439  10.611  1.0517  2.1708 -0.4079
   35POPC     P 4656   3.357   4.223  10.823  0.0671  0.1859 -0.3901
   35POPC   O13 4657   3.242   4.270  10.895  0.8182  0.4540 -0.1256
   35POPC   O14 4658   3.445   4.132  10.901  0.4182 -0.1987  0.0652
   35POPC   O12 4659   3.436   4.338  10.768 -0.7028 -0.4331  0.3555
   35POPC   O11 4660   3.317   4.141  10.687 -0.0869  0.4864 -0.0881
   35POPC    C1 4661   3.413   4.057  10.621  0.4037 -0.3280  0.2938
   35POPC    HA 4662   3.359   3.986  10.555  0.9004 -0.9190  0.5053
   35POPC    HB 4663   3.470   3.992  10.691 -0.7997 -2.0678 -0.2764
   35POPC    C2 4664   3.519   4.131  10.536  0.1866  0.0057  0.3482
   35POPC    HS 4665   3.569   4.211  10.594  1.4858  0.4219 -1.2777
   35POPC   O21 4666   3.446   4.198  10.424 -0.2349 -0.2423 -0.2293
   35POPC   C21 4667   3.519   4.277  10.338  0.4943  0.7985  0.9899
   35POPC   O22 4668   3.636   4.299  10.347  0.3828 -0.1462 -0.0012
   35POPC   C22 4669   3.424   4.312  10.228 -0.9319 -0.1991  0.1184
   35POPC   H2R 4670   3.321   4.273  10.245 -1.4877  1.4985  0.9316
   35POPC   H2S 4671   3.483   4.280  10.140  1.1544 -1.7029  1.9375
   35POPC    C3 4672   3.631   4.041  10.481 -0.3252 -0.3102  0.4086
   35POPC    HX 4673   3.664   3.980  10.567  1.6021  0.7978  0.5142
   35POPC    HY 4674   3.726   4.078  10.437  0.8629 -3.4411  0.1086
   35POPC   O31 4675   3.575   3.950  10.379 -0.1147  0.4295  0.0749
   35POPC   C31 4676   3.661   3.863  10.323 -0.6306  0.2040  0.4898
   35POPC   O32 4677   3.778   3.852  10.357  0.3652  0.2869 -0.2285
   35POPC   C32 4678   3.584   3.781  10.217  0.0185 -0.3547 -0.4531
   35POPC   H2X 4679   3.483   3.752  10.252  0.5402 -1.5954  0.1023
   35POPC   H2Y 4680   3.646   3.692  10.191  1.8030  0.8794 -0.6265
   35POPC   C23 4681   3.408   4.468  10.217  0.8837 -0.7710 -0.8224
   35POPC   H3R 4682   3.510   4.509  10.202  0.6011  0.4330  0.2754
   35POPC   H3S 4683   3.369   4.512  10.312  0.2670 -0.2487 -1.3123
   35POPC   C24 4684   3.314   4.512  10.105 -0.7645 -0.1029  0.0154
   35POPC   H4R 4685   3.280   4.617  10.115 -1.7580 -0.5213  1.5262
   35POPC   H4S 4686   3.221   4.452  10.114 -1.1098  0.0257 -2.2657
   35POPC   C25 4687   3.382   4.505   9.975 -0.6120 -0.1648  0.1657
   35POPC   H5R 4688   3.388   4.399   9.940 -0.6247 -0.4488  1.0079
   35POPC   H5S 4689   3.486   4.543   9.976  0.0031 -1.7213  2.2965
   35POPC   C26 4690   3.319   4.590   9.863  0.0701 -0.0981 -0.2255
   35POPC   H6R 4691   3.390   4.610   9.780 -0.2031 -1.4100 -0.8039
   35POPC   H6S 4692   3.290   4.691   9.899  1.1667  1.1344 -2.5262
   35POPC   C27 4693   3.182   4.533   9.799 -0.4436 -0.0185  0.3150
   35POPC   H7R 4694   3.109   4.498   9.875 -1.6761 -0.9496 -1.2510
   35POPC   H7S 4695   3.211   4.445   9.738 -0.2091  0.8818 -0.9043
   35POPC   C28 4696   3.132   4.641   9.702 -0.0806 -0.5043 -0.0932
   35POPC   H8R 4697   3.214   4.675   9.635 -1.0469 -0.5456 -1.3216
   35POPC   H8S 4698   3.105   4.725   9.769 -1.2849 -1.0679  0.1566
   35POPC   C29 4699   3.000   4.590   9.639  0.7346 -0.0303  1.1060
   35POPC   H91 4700   2.919   4.560   9.707  1.2372  0.3300  1.8730
   35POPC  C210 4701   2.977   4.578   9.508  0.0769 -0.4531  0.0720
   35POPC  H101 4702   2.891   4.528   9.462  1.1632 -1.0378 -1.4111
   35POPC  C211 4703   3.078   4.632   9.414 -0.2727  0.1760  0.6108
   35POPC  H11R 4704   3.157   4.555   9.403 -2.0841 -1.8607  1.1900
   35POPC  H11S 4705   3.125   4.728   9.444 -0.9372  0.6638  0.1309
   35POPC  C212 4706   3.011   4.672   9.280 -0.0341 -0.5469 -0.4843
   35POPC  H12R 4707   3.079   4.742   9.228 -0.6884 -0.2831 -1.0109
   35POPC  H12S 4708   2.909   4.715   9.287 -0.0828 -0.4844 -1.3784
   35POPC  C213 4709   3.000   4.553   9.189  0.8513  0.0733  0.1726
   35POPC  H13R 4710   2.929   4.480   9.234  1.0262  0.7145  1.5755
   35POPC  H13S 4711   3.093   4.494   9.193 -0.4795 -2.1281  0.2414
   35POPC  C214 4712   2.975   4.582   9.039  0.8389  0.2351 -0.1564
   35POPC  H14R 4713   2.989   4.484   8.989 -1.2123 -0.1645 -0.0550
   35POPC  H14S 4714   3.044   4.655   8.993  0.2089  1.9789  1.5287
   35POPC  C215 4715   2.836   4.624   9.007  0.1633 -0.2751 -0.4791
   35POPC  H15R 4716   2.834   4.723   9.059  1.7934 -0.0825 -0.7383
   35POPC  H15S 4717   2.763   4.558   9.058 -0.5065  0.6779 -0.1545
   35POPC  C216 4718   2.807   4.660   8.858  0.6816 -0.5884 -0.5716
   35POPC  H16R 4719   2.850   4.758   8.828  1.5827 -0.5411  0.7772
   35POPC  H16S 4720   2.699   4.677   8.837  1.2369 -0.1189 -3.3887
   35POPC  C217 4721   2.846   4.550   8.762 -0.7812  0.3563  0.3712
   35POPC  H17R 4722   2.811   4.453   8.804  1.2754 -1.5303 -1.8928
   35POPC  H17S 4723   2.956   4.546   8.775 -0.7465  2.8329  1.2426
   35POPC  C218 4724   2.789   4.578   8.619  0.6082  0.7225 -0.0015
   35POPC  H18R 4725   2.806   4.497   8.545 -2.4717  0.9398 -1.1290
   35POPC  H18S 4726   2.828   4.672   8.574 -0.6344 -0.0149 -2.8832
   35POPC  H18T 4727   2.680   4.597   8.631  0.7115  2.6919 -1.5906
   35POPC   C33 4728   3.556   3.860  10.094 -0.1353  0.3929  1.0372
   35POPC   H3X 4729   3.646   3.903  10.045 -1.8539  1.5744 -1.2836
   35POPC   H3Y 4730   3.493   3.950  10.112 -0.6952  0.2700 -0.2033
   35POPC   C34 4731   3.495   3.774   9.981  0.1597 -0.3516 -0.0396
   35POPC   H4X 4732   3.398   3.736  10.019  0.8805 -1.7541  0.4655
   35POPC   H4Y 4733   3.547   3.682   9.947 -3.4323 -2.6868  0.1662
   35POPC   C35 4734   3.460   3.864   9.860 -0.1283 -0.6686  0.2848
   35POPC   H5X 4735   3.554   3.903   9.814 -2.5197  3.2383 -1.8612
   35POPC   H5Y 4736   3.403   3.953   9.895 -0.8814 -1.2176  0.4736
   35POPC   C36 4737   3.401   3.801   9.729  0.4150  0.3490 -0.2828
   35POPC   H6X 4738   3.293   3.789   9.752  1.4009 -2.3598  4.1517
   35POPC   H6Y 4739   3.449   3.701   9.719 -0.9616 -0.5234  1.2734
   35POPC   C37 4740   3.419   3.885   9.611 -0.1150  0.0881  0.2320
   35POPC   H7X 4741   3.523   3.875   9.571 -0.4864  1.0560 -1.0225
   35POPC   H7Y 4742   3.405   3.992   9.635 -1.2539 -0.0470  0.1925
   35POPC   C38 4743   3.343   3.837   9.487 -0.2411 -0.9568 -0.4949
   35POPC   H8X 4744   3.235   3.823   9.507 -0.7721 -0.0955 -2.5409
   35POPC   H8Y 4745   3.386   3.749   9.434 -0.0872  0.2162 -2.4048
   35POPC   C39 4746   3.350   3.942   9.374 -0.0728  0.4856  0.4731
   35POPC   H9X 4747   3.454   3.943   9.335  0.7545  0.3950  2.5383
   35POPC   H9Y 4748   3.325   4.043   9.414 -2.6282  0.2798 -0.4264
   35POPC  C310 4749   3.247   3.903   9.271 -0.2742  0.2679 -0.1786
   35POPC  H10X 4750   3.158   3.853   9.316  0.3462 -1.1757 -0.4896
   35POPC  H10Y 4751   3.287   3.835   9.192 -2.2776 -0.6827 -0.4487
   35POPC  C311 4752   3.198   4.030   9.188 -0.1718 -0.1180  0.1602
   35POPC  H11X 4753   3.277   4.090   9.139 -0.3485  1.2310  1.4467
   35POPC  H11Y 4754   3.157   4.100   9.264 -0.6757 -2.0204  1.7198
   35POPC  C312 4755   3.103   3.989   9.075  0.2840 -0.1060 -0.0281
   35POPC  H12X 4756   3.003   3.963   9.116  0.4737  1.2142  1.3352
   35POPC  H12Y 4757   3.137   3.894   9.027 -2.1631 -0.1193 -1.9791
   35POPC  C313 4758   3.094   4.107   8.967 -0.1926  0.1603  0.1804
   35POPC  H13X 4759   3.106   4.198   9.030  1.8375 -0.8758  1.3673
   35POPC  H13Y 4760   3.003   4.094   8.905 -1.1984  2.0030  1.1699
   35POPC  C314 4761   3.213   4.105   8.872 -0.3202 -0.6265  0.4122
   35POPC  H14X 4762   3.309   4.124   8.925  0.6446 -1.1370 -1.0994
   35POPC  H14Y 4763   3.207   4.194   8.806  0.5745  0.8606  2.2331
   35POPC  C315 4764   3.227   3.981   8.785  0.5351 -0.0507  0.4374
   35POPC  H15X 4765   3.128   3.940   8.759  0.3063 -0.0873  1.3239
   35POPC  H15Y 4766   3.279   3.895   8.834  0.9869 -0.2843 -0.4237
   35POPC  C316 4767   3.294   4.010   8.649  0.7999  0.9008 -0.3620
   35POPC  H16X 4768   3.401   4.042   8.648  1.1245  0.0712  1.5790
   35POPC  H16Y 4769   3.237   4.087   8.594 -3.1978  0.1478  2.3490
   35POPC  H16Z 4770   3.304   3.914   8.594  0.7042  0.7888 -0.1844
   36POPC     N 4771   4.083   3.638  10.876  0.0566  0.4752  0.3928
   36POPC   C12 4772   3.996   3.538  10.954 -0.4724 -0.6479  0.4662
   36POPC  H12A 4773   3.898   3.549  10.909 -0.0532 -0.0203 -0.2967
   36POPC  H12B 4774   3.995   3.572  11.057 -2.3347 -0.3014  0.3798
   36POPC   C13 4775   4.031   3.779  10.890 -0.1734 -0.2443 -0.2177
   36POPC  H13A 4776   4.011   3.806  10.992  0.4356 -0.4296 -0.0500
   36POPC  H13B 4777   4.096   3.857  10.855 -0.1829 -0.3515 -0.4788
   36POPC  H13C 4778   3.941   3.774  10.830 -0.9182 -1.7901  0.9495
   36POPC   C14 4779   4.225   3.635  10.928 -0.4336  0.9375  0.0532
   36POPC  H14A 4780   4.274   3.541  10.948 -1.9989  0.2276  0.6390
   36POPC  H14B 4781   4.294   3.694  10.868 -0.3915  1.4354  0.5752
   36POPC  H14C 4782   4.223   3.685  11.024  1.7052  1.2418  0.0010
   36POPC   C15 4783   4.092   3.603  10.731 -0.1161  0.1026 -0.2886
   36POPC  H15A 4784   3.998   3.622  10.682 -0.1064  1.8871  0.3132
   36POPC  H15B 4785   4.125   3.501  10.715 -2.8303 -1.0756  0.9602
   36POPC  H15C 4786   4.168   3.666  10.688  1.8883 -1.7037  0.4315
   36POPC   C11 4787   4.033   3.386  10.952  0.7480  0.2299  0.1035
   36POPC  H11A 4788   3.952   3.338  11.012  1.1786 -0.2371  0.3178
   36POPC  H11B 4789   4.131   3.376  11.003  0.1831 -1.2619  0.9584
   36POPC     P 4790   3.974   3.192  10.785  0.0708  0.1030 -0.6928
   36POPC   O13 4791   3.851   3.176  10.861 -0.1608 -0.2831  0.0687
   36POPC   O14 4792   4.075   3.082  10.793 -0.1360  0.0321 -0.0420
   36POPC   O12 4793   4.038   3.332  10.820 -0.2063  0.3976 -0.0173
   36POPC   O11 4794   3.941   3.215  10.630 -0.7288  0.7707 -0.4984
   36POPC    C1 4795   3.866   3.328  10.588 -0.5853 -0.2108 -0.3150
   36POPC    HA 4796   3.884   3.414  10.656  1.7205 -0.6594 -0.2593
   36POPC    HB 4797   3.758   3.308  10.598 -0.6184 -0.6971 -1.4587
   36POPC    C2 4798   3.906   3.361  10.444 -0.4490 -0.5104  0.0631
   36POPC    HS 4799   3.871   3.280  10.375  0.2622 -1.1702  0.4644
   36POPC   O21 4800   4.049   3.381  10.421 -0.4444  0.0019 -0.1726
   36POPC   C21 4801   4.117   3.273  10.385 -0.0491  0.2583 -0.1153
   36POPC   O22 4802   4.074   3.159  10.373  0.1795  0.2182 -0.1522
   36POPC   C22 4803   4.257   3.332  10.331 -0.4892  0.6091 -0.7230
   36POPC   H2R 4804   4.336   3.295  10.401 -1.2323  1.1504  0.4296
   36POPC   H2S 4805   4.249   3.442  10.345  4.0905  1.2809 -1.7940
   36POPC    C3 4806   3.834   3.488  10.394  0.3296  0.0261  0.3292
   36POPC    HX 4807   3.854   3.574  10.462 -1.8790  0.9931 -0.1716
   36POPC    HY 4808   3.725   3.466  10.393  0.1104  1.0816 -0.9903
   36POPC   O31 4809   3.889   3.528  10.268  0.3591 -0.5227  0.2461
   36POPC   C31 4810   3.839   3.480  10.157 -0.1858 -0.0736 -1.3142
   36POPC   O32 4811   3.757   3.392  10.149  0.1536 -0.0230 -0.4236
   36POPC   C32 4812   3.877   3.564  10.034 -0.1767 -0.1833 -0.7224
   36POPC   H2X 4813   3.985   3.539  10.023 -0.4889 -0.9652 -2.4172
   36POPC   H2Y 4814   3.882   3.671  10.062  1.5861  0.2985 -2.6230
   36POPC   C23 4815   4.299   3.310  10.186 -0.0979 -0.5972  0.3610
   36POPC   H3R 4816   4.328   3.205  10.164  1.8036  0.2652 -1.6256
   36POPC   H3S 4817   4.391   3.366  10.157 -0.9899 -0.2113 -1.8759
   36POPC   C24 4818   4.196   3.355  10.081 -0.3756  0.2637 -0.3491
   36POPC   H4R 4819   4.171   3.463  10.077 -0.4107  0.3176  0.9371
   36POPC   H4S 4820   4.097   3.305  10.094 -1.2484  1.9720 -0.0886
   36POPC   C25 4821   4.255   3.316   9.940  1.1221 -0.3501 -0.2355
   36POPC   H5R 4822   4.281   3.207   9.939 -2.3080 -1.3305 -2.9895
   36POPC   H5S 4823   4.347   3.375   9.923 -0.2323  1.8528 -0.1929
   36POPC   C26 4824   4.157   3.334   9.822  0.2219 -0.0071 -0.3876
   36POPC   H6R 4825   4.110   3.434   9.835  1.0228  0.3160  0.0782
   36POPC   H6S 4826   4.070   3.264   9.823  0.4350 -0.3185  1.9675
   36POPC   C27 4827   4.223   3.320   9.685  0.3583 -0.1084  0.1586
   36POPC   H7R 4828   4.255   3.214   9.679  0.5212 -0.4090  3.8446
   36POPC   H7S 4829   4.315   3.384   9.687 -1.6395  2.9637  1.1123
   36POPC   C28 4830   4.141   3.363   9.563 -0.1330 -0.3873 -0.3349
   36POPC   H8R 4831   4.131   3.471   9.589  2.0495 -0.5559  1.5299
   36POPC   H8S 4832   4.041   3.316   9.552  0.3005 -0.8139 -3.1044
   36POPC   C29 4833   4.218   3.341   9.433  0.4922 -0.2628 -0.0641
   36POPC   H91 4834   4.285   3.255   9.445 -0.2423 -1.4275 -3.3423
   36POPC  C210 4835   4.214   3.414   9.319  0.8875 -0.1758  0.1481
   36POPC  H101 4836   4.278   3.389   9.233 -1.0285 -0.1723 -1.3709
   36POPC  C211 4837   4.139   3.539   9.285  0.2185  0.1175 -0.1392
   36POPC  H11R 4838   4.197   3.622   9.240 -2.4457  1.5866 -1.0859
   36POPC  H11S 4839   4.091   3.581   9.376  2.0603  0.0988  0.8727
   36POPC  C212 4840   4.009   3.520   9.184  0.5926  0.3561 -0.1506
   36POPC  H12R 4841   3.947   3.609   9.207 -0.4270 -0.2309 -0.5353
   36POPC  H12S 4842   3.951   3.432   9.220 -1.3283  1.2045 -1.0802
   36POPC  C213 4843   4.048   3.507   9.037  0.2798  0.1463 -0.8632
   36POPC  H13R 4844   4.118   3.425   9.011  1.2980 -0.1178  2.2255
   36POPC  H13S 4845   4.096   3.606   9.017  1.0218 -0.1712 -0.7078
   36POPC  C214 4846   3.919   3.495   8.946 -0.2472 -0.1560  1.1285
   36POPC  H14R 4847   3.942   3.495   8.837 -1.3765 -3.0386  0.8074
   36POPC  H14S 4848   3.847   3.579   8.957 -0.9803 -0.2230 -2.0098
   36POPC  C215 4849   3.846   3.362   8.953  0.1502 -0.0066 -0.4810
   36POPC  H15R 4850   3.830   3.339   9.061 -0.0378  0.1106 -0.4823
   36POPC  H15S 4851   3.916   3.282   8.924  0.4606  0.1730 -0.2339
   36POPC  C216 4852   3.717   3.359   8.873 -0.7491 -0.8981  0.5685
   36POPC  H16R 4853   3.661   3.451   8.901 -0.2072 -0.6492  0.8447
   36POPC  H16S 4854   3.654   3.274   8.907 -3.7622  1.7598  2.0889
   36POPC  C217 4855   3.748   3.367   8.722 -0.4776  0.1246  0.6397
   36POPC  H17R 4856   3.806   3.274   8.699 -0.3498  0.5668 -0.9126
   36POPC  H17S 4857   3.806   3.457   8.693 -2.2221  1.1901  0.3346
   36POPC  C218 4858   3.619   3.367   8.648 -0.5656  0.1602 -0.1338
   36POPC  H18R 4859   3.571   3.267   8.644 -1.8283  0.7571 -0.6806
   36POPC  H18S 4860   3.630   3.401   8.542 -0.3799 -0.6871 -0.3938
   36POPC  H18T 4861   3.541   3.427   8.700  1.0356  0.6183  1.8196
   36POPC   C33 4862   3.802   3.531   9.907  0.3827 -0.2281 -0.0519
   36POPC   H3X 4863   3.692   3.532   9.920  0.5347 -1.6252  1.6816
   36POPC   H3Y 4864   3.817   3.427   9.870  2.7824  1.3339 -4.2138
   36POPC   C34 4865   3.852   3.628   9.799  0.8571  0.0052  0.0662
   36POPC   H4X 4866   3.962   3.633   9.784  1.2188 -0.7171  2.1490
   36POPC   H4Y 4867   3.812   3.732   9.809 -1.2010 -0.3648 -2.9722
   36POPC   C35 4868   3.795   3.581   9.657 -1.0993  0.4825 -0.0792
   36POPC   H5X 4869   3.701   3.529   9.684  0.0272 -0.9761  1.2203
   36POPC   H5Y 4870   3.864   3.509   9.608 -0.9900  1.0775 -0.8226
   36POPC   C36 4871   3.771   3.689   9.553  0.2906  0.7229 -0.7073
   36POPC   H6X 4872   3.866   3.739   9.527  1.4172 -1.6301 -1.4238
   36POPC   H6Y 4873   3.709   3.765   9.604  0.3120 -0.8171  1.7912
   36POPC   C37 4874   3.704   3.630   9.427 -0.3648 -1.0812 -0.5200
   36POPC   H7X 4875   3.598   3.611   9.455 -0.1851 -0.2401  0.8423
   36POPC   H7Y 4876   3.758   3.538   9.395  0.2228 -1.0744  0.4166
   36POPC   C38 4877   3.715   3.737   9.316  0.3420 -0.0283 -0.4684
   36POPC   H8X 4878   3.823   3.754   9.295  0.8148 -0.0928  1.6435
   36POPC   H8Y 4879   3.669   3.825   9.366 -1.0601  0.6433 -2.7882
   36POPC   C39 4880   3.628   3.716   9.194 -0.3357 -0.2835  0.3395
   36POPC   H9X 4881   3.524   3.712   9.233 -0.3115 -2.3044  0.3120
   36POPC   H9Y 4882   3.670   3.626   9.144  2.1388  1.5829 -1.2011
   36POPC  C310 4883   3.628   3.841   9.102 -1.0062  0.5366  0.0368
   36POPC  H10X 4884   3.732   3.849   9.062 -0.9275 -0.3366  0.0378
   36POPC  H10Y 4885   3.605   3.927   9.168 -0.2685  0.2872  0.6432
   36POPC  C311 4886   3.524   3.840   8.984  0.1465  0.0366 -0.7716
   36POPC  H11X 4887   3.510   3.947   8.958  2.5797  0.7580  0.5376
   36POPC  H11Y 4888   3.429   3.795   9.021  0.7462 -0.1879  0.5629
   36POPC  C312 4889   3.567   3.771   8.859  0.2825  0.1252 -0.2974
   36POPC  H12X 4890   3.482   3.758   8.789 -0.2468 -2.5734  0.7016
   36POPC  H12Y 4891   3.601   3.668   8.883 -1.1814 -0.9230 -2.3504
   36POPC  C313 4892   3.681   3.833   8.777  0.4882 -1.0612  0.2400
   36POPC  H13X 4893   3.775   3.845   8.836  1.2911  0.4352 -1.2666
   36POPC  H13Y 4894   3.658   3.934   8.737 -0.5241 -1.3185  0.1437
   36POPC  C314 4895   3.694   3.763   8.643 -0.7437  0.1967  0.1361
   36POPC  H14X 4896   3.595   3.767   8.594  0.0426 -0.0179 -1.5413
   36POPC  H14Y 4897   3.716   3.656   8.668  0.7566  0.7794  1.5002
   36POPC  C315 4898   3.801   3.815   8.550  1.3795 -1.0745 -0.1514
   36POPC  H15X 4899   3.781   3.923   8.532  0.9554 -1.4687 -2.2635
   36POPC  H15Y 4900   3.784   3.784   8.445  0.2757 -0.6171 -0.1285
   36POPC  C316 4901   3.945   3.796   8.594  0.3331 -0.5860 -0.3679
   36POPC  H16X 4902   4.015   3.851   8.528  0.4041  0.2624  0.3829
   36POPC  H16Y 4903   3.970   3.688   8.586  2.5236 -0.2400  0.9027
   36POPC  H16Z 4904   3.959   3.830   8.699  2.9484  1.3779 -1.2536
   37POPC     N 4905   4.625   3.580   6.259  0.4264  0.1924  0.3135
   37POPC   C12 4906   4.601   3.731   6.283 -0.2839 -0.2283  0.1763
   37POPC  H12A 4907   4.682   3.784   6.236  0.3196 -0.0958  1.3258
   37POPC  H12B 4908   4.617   3.748   6.388  3.1141  1.0544 -0.4307
   37POPC   C13 4909   4.582   3.534   6.122 -0.3157 -0.0853  0.4381
   37POPC  H13A 4910   4.628   3.592   6.043 -1.2164  1.8154  1.2431
   37POPC  H13B 4911   4.600   3.429   6.105  0.2534  0.2496 -1.2382
   37POPC  H13C 4912   4.480   3.571   6.117  0.1500  1.2571  0.7692
   37POPC   C14 4913   4.773   3.540   6.264  0.3132 -0.5323 -0.2555
   37POPC  H14A 4914   4.827   3.586   6.183 -0.2134  2.2279  0.8571
   37POPC  H14B 4915   4.813   3.568   6.360  0.8978  0.6387 -0.8263
   37POPC  H14C 4916   4.790   3.433   6.263 -1.4791 -0.8839  1.0500
   37POPC   C15 4917   4.552   3.488   6.357 -0.4844 -0.1659 -0.1426
   37POPC  H15A 4918   4.563   3.383   6.334  2.8996 -0.1154  0.6304
   37POPC  H15B 4919   4.448   3.516   6.353 -0.3875  0.0721 -3.1553
   37POPC  H15C 4920   4.579   3.509   6.459 -0.2044  0.6694 -0.3811
   37POPC   C11 4921   4.467   3.791   6.234 -0.1266  0.6586 -0.5625
   37POPC  H11A 4922   4.457   3.769   6.125  2.8410 -0.9334 -0.6047
   37POPC  H11B 4923   4.468   3.900   6.251  1.3894  0.5214  0.3849
   37POPC     P 4924   4.308   3.795   6.449 -0.1923 -0.0800 -0.2164
   37POPC   O13 4925   4.223   3.697   6.518 -0.5241  0.2544  0.1784
   37POPC   O14 4926   4.252   3.934   6.436 -0.7386  0.6855  0.7123
   37POPC   O12 4927   4.352   3.732   6.314 -0.5265 -0.3691  0.2040
   37POPC   O11 4928   4.446   3.812   6.523 -0.6104  0.5120 -0.0728
   37POPC    C1 4929   4.473   3.719   6.622  0.0613  0.4922 -0.3600
   37POPC    HA 4930   4.581   3.724   6.646  0.1593  0.5629 -0.7949
   37POPC    HB 4931   4.448   3.612   6.605  0.8093  0.2244  0.1916
   37POPC    C2 4932   4.409   3.760   6.762 -0.5433 -0.4162  1.1238
   37POPC    HS 4933   4.299   3.777   6.749 -0.1827  2.5577  1.1948
   37POPC   O21 4934   4.484   3.882   6.806  0.2698  0.4218  0.0456
   37POPC   C21 4935   4.408   3.978   6.862  0.1746 -0.5452  0.1922
   37POPC   O22 4936   4.286   3.963   6.876 -0.1792 -0.4110  0.3453
   37POPC   C22 4937   4.493   4.102   6.906  0.3794 -0.0879 -0.1827
   37POPC   H2R 4938   4.483   4.183   6.830 -0.7241  1.2963  1.3544
   37POPC   H2S 4939   4.600   4.072   6.901  0.8863  0.8342  3.0771
   37POPC    C3 4940   4.434   3.654   6.870 -0.4879 -0.2121  0.3724
   37POPC    HX 4941   4.531   3.600   6.869  0.1641  0.5662  4.1581
   37POPC    HY 4942   4.376   3.565   6.838 -0.1728 -0.5162  0.6381
   37POPC   O31 4943   4.399   3.698   7.003  0.7000  0.0431 -0.3352
   37POPC   C31 4944   4.271   3.714   7.025  0.0376 -0.3699  0.5961
   37POPC   O32 4945   4.178   3.684   6.948 -0.8968 -0.1273  0.0112
   37POPC   C32 4946   4.260   3.767   7.164 -0.4137 -1.1672 -0.0130
   37POPC   H2X 4947   4.331   3.850   7.185  0.2909 -1.7023 -0.2799
   37POPC   H2Y 4948   4.280   3.679   7.229  0.9748 -0.2428  0.8607
   37POPC   C23 4949   4.457   4.155   7.043 -0.0762  0.3753  0.1697
   37POPC   H3R 4950   4.349   4.169   7.062 -0.2789 -1.7378  0.7933
   37POPC   H3S 4951   4.501   4.253   7.073  2.1837 -1.0487  1.9027
   37POPC   C24 4952   4.507   4.062   7.156 -0.5936  0.5544  0.4406
   37POPC   H4R 4953   4.615   4.083   7.167 -0.0841 -2.3203  1.9740
   37POPC   H4S 4954   4.506   3.955   7.128  0.4356  0.7870 -0.5783
   37POPC   C25 4955   4.450   4.092   7.295 -0.4661  0.2141  0.5014
   37POPC   H5R 4956   4.340   4.092   7.283 -0.4153  0.2379  0.0188
   37POPC   H5S 4957   4.486   4.196   7.313 -0.3634  0.7178 -2.1709
   37POPC   C26 4958   4.473   3.993   7.406 -0.2600  0.0778 -0.3561
   37POPC   H6R 4959   4.583   3.984   7.424 -0.6488 -0.9052  1.7609
   37POPC   H6S 4960   4.431   3.897   7.369  1.6200 -0.5604 -0.9823
   37POPC   C27 4961   4.405   4.022   7.543 -0.0928  0.1870 -0.3439
   37POPC   H7R 4962   4.294   4.029   7.543 -0.0329  2.2461  1.5399
   37POPC   H7S 4963   4.439   4.121   7.580 -0.0516  1.0183 -2.4703
   37POPC   C28 4964   4.456   3.923   7.648 -0.1808  0.2497  0.1811
   37POPC   H8R 4965   4.445   3.959   7.753 -0.3261  0.1100  0.2145
   37POPC   H8S 4966   4.566   3.911   7.641 -0.1900 -0.3646  0.9124
   37POPC   C29 4967   4.383   3.791   7.636  0.0768 -0.1791  0.3166
   37POPC   H91 4968   4.368   3.751   7.535  0.5550  2.4531 -0.8783
   37POPC  C210 4969   4.334   3.721   7.737  1.1817 -0.1728 -0.0305
   37POPC  H101 4970   4.275   3.633   7.708  2.3308 -0.0878 -2.9239
   37POPC  C211 4971   4.337   3.751   7.891  0.2873  0.1849  0.5575
   37POPC  H11R 4972   4.405   3.834   7.921  0.0174  1.6260 -2.4363
   37POPC  H11S 4973   4.367   3.662   7.950 -0.1195 -0.5791 -0.3667
   37POPC  C212 4974   4.193   3.787   7.941  0.4603  0.2211  0.8666
   37POPC  H12R 4975   4.113   3.733   7.885  1.2188  0.1123 -0.1277
   37POPC  H12S 4976   4.175   3.897   7.946  0.1051  0.2990 -1.2079
   37POPC  C213 4977   4.167   3.749   8.082  0.2387 -0.1520  0.2562
   37POPC  H13R 4978   4.154   3.640   8.093  2.5168 -0.6480 -1.1684
   37POPC  H13S 4979   4.080   3.805   8.123  1.1524  3.4512 -2.2218
   37POPC  C214 4980   4.282   3.797   8.176 -1.0176 -0.6295 -0.3431
   37POPC  H14R 4981   4.299   3.907   8.169 -1.3739 -0.4011  1.8642
   37POPC  H14S 4982   4.377   3.747   8.148 -1.3745 -1.4469 -0.0997
   37POPC  C215 4983   4.240   3.762   8.320 -0.1369 -0.2429  0.3386
   37POPC  H15R 4984   4.209   3.655   8.327  1.9826 -0.8501  1.2897
   37POPC  H15S 4985   4.139   3.803   8.341 -0.2749 -1.6010  2.7329
   37POPC  C216 4986   4.340   3.774   8.431 -0.0820  0.1830  0.6813
   37POPC  H16R 4987   4.405   3.686   8.411 -1.0298 -0.4126  0.1265
   37POPC  H16S 4988   4.289   3.781   8.529 -2.1874  3.1230 -0.4631
   37POPC  C217 4989   4.427   3.897   8.433  0.4933 -0.0202  0.0331
   37POPC  H17R 4990   4.366   3.981   8.394  0.6976  1.0106  1.7895
   37POPC  H17S 4991   4.506   3.881   8.357  0.2617  1.8288 -0.6448
   37POPC  C218 4992   4.493   3.921   8.568 -0.4002  0.9660 -0.1403
   37POPC  H18R 4993   4.580   3.988   8.551  0.0774  0.3646 -0.1094
   37POPC  H18S 4994   4.528   3.825   8.613  0.4635  1.3100 -0.0657
   37POPC  H18T 4995   4.431   3.960   8.651  1.1856 -0.8027  2.0135
   37POPC   C33 4996   4.119   3.827   7.205  0.1740 -0.3155 -0.0909
   37POPC   H3X 4997   4.043   3.748   7.184 -0.7523  0.1284  1.4164
   37POPC   H3Y 4998   4.103   3.912   7.136  0.6794  0.1557  0.3707
   37POPC   C34 4999   4.113   3.886   7.351 -0.1652  0.5287 -0.2988
   37POPC   H4X 5000   4.188   3.968   7.348 -0.1316  0.4887 -0.5156
   37POPC   H4Y 5001   4.130   3.808   7.429 -1.7671  0.6985  0.2605
   37POPC   C35 5002   3.980   3.958   7.374 -0.2267  0.5176  0.4393
   37POPC   H5X 5003   3.902   3.883   7.352 -0.6000  1.3815 -1.3908
   37POPC   H5Y 5004   3.959   4.037   7.298  3.0005 -1.2481 -2.5783
   37POPC   C36 5005   3.960   4.026   7.511 -0.1455 -0.0868  1.1168
   37POPC   H6X 5006   3.858   4.069   7.506  0.2186  0.8020  1.2854
   37POPC   H6Y 5007   4.025   4.115   7.520 -1.0201  0.5382  1.3314
   37POPC   C37 5008   3.947   3.941   7.638  0.3912 -0.4308 -0.0933
   37POPC   H7X 5009   4.037   3.884   7.669  0.1785 -1.4677 -1.2902
   37POPC   H7Y 5010   3.859   3.877   7.615  0.5348 -0.4198 -0.6798
   37POPC   C38 5011   3.910   4.019   7.771 -0.3151 -0.7981  0.5756
   37POPC   H8X 5012   3.863   4.110   7.728  0.6322 -0.3727  0.4122
   37POPC   H8Y 5013   3.998   4.043   7.835 -0.9392  0.1992  1.0851
   37POPC   C39 5014   3.811   3.948   7.863  0.5502  0.0913 -0.0520
   37POPC   H9X 5015   3.854   3.851   7.895 -1.3202 -0.7267  0.1036
   37POPC   H9Y 5016   3.720   3.917   7.808  0.3276 -2.5585  1.6206
   37POPC  C310 5017   3.765   4.032   7.986  0.4098  0.0594  0.3910
   37POPC  H10X 5018   3.669   3.984   8.014  0.0510 -0.1630 -1.1240
   37POPC  H10Y 5019   3.734   4.131   7.947  1.3507 -0.3074 -1.4360
   37POPC  C311 5020   3.870   4.032   8.102 -0.1460  0.1235 -0.5077
   37POPC  H11X 5021   3.969   4.075   8.077  0.4544 -1.2766 -0.6147
   37POPC  H11Y 5022   3.891   3.928   8.133  1.0696  0.3375 -0.5501
   37POPC  C312 5023   3.818   4.120   8.218  0.5956 -0.1437  0.8466
   37POPC  H12X 5024   3.807   4.223   8.177  0.8043 -0.5281 -0.2223
   37POPC  H12Y 5025   3.896   4.131   8.296  2.6383  0.8552 -1.1833
   37POPC  C313 5026   3.689   4.066   8.286  0.0562  0.6459  0.0853
   37POPC  H13X 5027   3.700   3.956   8.290 -1.5389  0.5035  1.0274
   37POPC  H13Y 5028   3.603   4.089   8.220  0.8442  2.8486 -0.2848
   37POPC  C314 5029   3.655   4.135   8.421 -0.4272  0.1601  0.2826
   37POPC  H14X 5030   3.741   4.158   8.487  1.3696 -0.2900 -1.7890
   37POPC  H14Y 5031   3.592   4.065   8.480 -0.2648  1.3490  1.9345
   37POPC  C315 5032   3.575   4.265   8.396  0.0954  0.3837  0.0173
   37POPC  H15X 5033   3.485   4.230   8.340  0.1622  0.3099 -0.0461
   37POPC  H15Y 5034   3.617   4.320   8.309 -1.9249 -1.2855 -2.1456
   37POPC  C316 5035   3.540   4.345   8.520 -0.2741 -0.2994  0.0902
   37POPC  H16X 5036   3.514   4.271   8.599 -0.0365  1.0858  1.5031
   37POPC  H16Y 5037   3.459   4.420   8.511  0.4332  0.3217 -1.6158
   37POPC  H16Z 5038   3.634   4.375   8.571  1.4544 -5.5930  0.6465
   38POPC     N 5039   5.929   4.470   6.561  0.5662 -0.2991  0.1149
   38POPC   C12 5040   6.053   4.548   6.607 -0.1820  0.7429 -0.5171
   38POPC  H12A 5041   6.058   4.546   6.715 -0.4002  1.4300 -0.4917
   38POPC  H12B 5042   6.049   4.649   6.570  1.1307 -0.3457 -4.0557
   38POPC   C13 5043   5.962   4.325   6.558  0.4183  0.0297 -0.5012
   38POPC  H13A 5044   5.874   4.267   6.535 -0.4879  1.4830 -0.7782
   38POPC  H13B 5045   6.037   4.288   6.490 -1.1164 -2.5264 -0.9435
   38POPC  H13C 5046   5.986   4.291   6.658  1.7956  0.0139 -0.8159
   38POPC   C14 5047   5.815   4.501   6.655  0.4814  0.0534  0.4589
   38POPC  H14A 5048   5.735   4.433   6.629  0.3703  1.1551 -2.3144
   38POPC  H14B 5049   5.842   4.493   6.760  2.4148  0.5792  0.0283
   38POPC  H14C 5050   5.768   4.597   6.644  0.9962  0.3913  1.1167
   38POPC   C15 5051   5.900   4.493   6.414 -0.3769  0.0160  0.3084
   38POPC  H15A 5052   5.867   4.596   6.406 -1.1409 -0.1209  1.4104
   38POPC  H15B 5053   5.829   4.417   6.386  0.0442 -0.6000  0.8656
   38POPC  H15C 5054   5.987   4.479   6.352 -0.2209  0.7202  0.3516
   38POPC   C11 5055   6.193   4.495   6.561  0.6438 -0.3072 -0.8143
   38POPC  H11A 5056   6.204   4.395   6.608 -1.0093 -0.0958  0.0993
   38POPC  H11B 5057   6.258   4.563   6.619 -1.1082 -0.4354  1.4509
   38POPC     P 5058   6.277   4.396   6.330  0.2566  0.0628 -0.7495
   38POPC   O13 5059   6.370   4.452   6.230 -0.4585  0.3554 -0.7087
   38POPC   O14 5060   6.160   4.315   6.283  0.5228  0.4470  0.3014
   38POPC   O12 5061   6.220   4.507   6.425  0.1875  0.2900 -0.4845
   38POPC   O11 5062   6.366   4.298   6.420 -0.0468 -0.2274 -0.2914
   38POPC    C1 5063   6.457   4.350   6.515 -0.3943  0.0826  0.5150
   38POPC    HA 5064   6.437   4.453   6.552 -1.6351 -0.4689  1.4207
   38POPC    HB 5065   6.557   4.360   6.467 -0.7284 -0.2542 -0.2567
   38POPC    C2 5066   6.478   4.251   6.636  0.4785 -0.0144 -0.6540
   38POPC    HS 5067   6.501   4.152   6.593 -1.5840 -1.1246  0.6529
   38POPC   O21 5068   6.366   4.253   6.726 -0.4613  0.0817  0.3954
   38POPC   C21 5069   6.352   4.133   6.788 -0.5455 -0.4425 -0.1323
   38POPC   O22 5070   6.432   4.040   6.784 -0.1699  0.1632 -0.4692
   38POPC   C22 5071   6.228   4.134   6.865 -0.5157  0.3222 -0.3618
   38POPC   H2R 5072   6.136   4.109   6.808 -0.6659 -0.9531  0.4049
   38POPC   H2S 5073   6.198   4.231   6.909  2.7246  1.8248 -1.1457
   38POPC    C3 5074   6.604   4.304   6.717 -0.2155  0.4229  0.3882
   38POPC    HX 5075   6.691   4.313   6.649  0.3790  0.6862  1.1707
   38POPC    HY 5076   6.626   4.223   6.789 -2.1315 -0.7035 -0.2148
   38POPC   O31 5077   6.596   4.429   6.775 -0.1848  0.1826 -0.1889
   38POPC   C31 5078   6.547   4.423   6.898  0.7692  0.4729 -0.9910
   38POPC   O32 5079   6.522   4.323   6.965  0.2591 -0.6856  0.4140
   38POPC   C32 5080   6.546   4.565   6.950  0.3496  0.0240  0.2537
   38POPC   H2X 5081   6.443   4.607   6.943  1.8935  4.5459  1.4193
   38POPC   H2Y 5082   6.615   4.629   6.891  1.8050 -2.2427 -0.5976
   38POPC   C23 5083   6.231   4.026   6.980 -0.0799 -0.7837 -0.4607
   38POPC   H3R 5084   6.291   3.934   6.958  0.5459 -0.0922 -1.7491
   38POPC   H3S 5085   6.133   3.980   7.003 -1.0818  1.4966  0.0373
   38POPC   C24 5086   6.278   4.091   7.114 -0.6302 -0.1064 -0.0906
   38POPC   H4R 5087   6.188   4.150   7.143 -0.3869 -0.3823  1.3102
   38POPC   H4S 5088   6.376   4.141   7.098  0.4193 -2.0263  0.1305
   38POPC   C25 5089   6.312   3.986   7.217  0.0492 -0.3494 -0.2927
   38POPC   H5R 5090   6.406   3.936   7.184  1.4480  0.6767  1.9305
   38POPC   H5S 5091   6.229   3.912   7.223  1.5793 -2.1681 -0.7305
   38POPC   C26 5092   6.350   4.045   7.351 -0.1773  0.3423 -0.3166
   38POPC   H6R 5093   6.280   4.123   7.388  0.9042  0.1931  2.2545
   38POPC   H6S 5094   6.449   4.094   7.338  0.1760 -0.3860 -0.4166
   38POPC   C27 5095   6.361   3.943   7.464 -0.3059 -0.4286 -0.0684
   38POPC   H7R 5096   6.426   3.858   7.435  0.8823  0.6939 -0.7926
   38POPC   H7S 5097   6.255   3.912   7.478 -0.6380  0.6244 -0.1100
   38POPC   C28 5098   6.429   3.995   7.591 -0.5345  0.3874  0.5916
   38POPC   H8R 5099   6.514   4.058   7.555 -0.2553  0.1518  0.8317
   38POPC   H8S 5100   6.492   3.924   7.649  2.4212  0.6897 -1.9838
   38POPC   C29 5101   6.338   4.088   7.662 -0.3629  0.4808 -0.1033
   38POPC   H91 5102   6.308   4.174   7.601  1.9829 -0.5555 -2.8974
   38POPC  C210 5103   6.296   4.061   7.786 -0.2266 -0.4881 -0.9245
   38POPC  H101 5104   6.228   4.132   7.834  3.3688  3.7143 -1.4685
   38POPC  C211 5105   6.340   3.949   7.878  0.5355 -0.1303  0.9215
   38POPC  H11R 5106   6.451   3.951   7.883  0.6724 -1.4700 -0.5150
   38POPC  H11S 5107   6.294   3.856   7.837 -0.0246  0.3326  0.4990
   38POPC  C212 5108   6.291   3.970   8.025  0.2568 -0.2399 -0.1762
   38POPC  H12R 5109   6.324   3.881   8.082 -0.3156 -0.8933 -0.8474
   38POPC  H12S 5110   6.181   3.977   8.020  0.2189 -1.3279 -1.3624
   38POPC  C213 5111   6.354   4.087   8.099  0.5868  0.0019  0.0422
   38POPC  H13R 5112   6.341   4.183   8.045  0.0115  0.3116  0.7204
   38POPC  H13S 5113   6.464   4.071   8.102  0.5364 -0.9671 -1.7580
   38POPC  C214 5114   6.294   4.110   8.240 -0.3616 -0.6223 -0.2403
   38POPC  H14R 5115   6.312   4.018   8.299 -1.9928  0.9272  2.9249
   38POPC  H14S 5116   6.185   4.130   8.239 -0.1160  1.1372  1.4401
   38POPC  C215 5117   6.348   4.229   8.317  0.5604  0.0326  0.4951
   38POPC  H15R 5118   6.339   4.323   8.259 -0.8147  0.7745  1.8269
   38POPC  H15S 5119   6.452   4.224   8.353  1.2570  0.2915 -1.3705
   38POPC  C216 5120   6.260   4.239   8.444 -0.4969 -0.3736  0.2044
   38POPC  H16R 5121   6.265   4.152   8.514 -0.7564 -0.5768 -0.0269
   38POPC  H16S 5122   6.155   4.244   8.408 -0.0010  2.2987 -1.0814
   38POPC  C217 5123   6.256   4.370   8.520 -0.6640  0.3324 -0.7471
   38POPC  H17R 5124   6.196   4.369   8.613  1.4569  1.0121  0.7208
   38POPC  H17S 5125   6.240   4.460   8.457 -0.3741  2.7038  2.3189
   38POPC  C218 5126   6.393   4.389   8.593  0.2872  0.2467  0.8103
   38POPC  H18R 5127   6.386   4.484   8.650  1.2706  0.0328  1.3087
   38POPC  H18S 5128   6.483   4.388   8.528  0.1850  1.7439  0.6082
   38POPC  H18T 5129   6.395   4.309   8.671  1.3964  1.5497  2.1915
   38POPC   C33 5130   6.590   4.572   7.101  0.5875  0.1110 -0.7495
   38POPC   H3X 5131   6.522   4.503   7.155 -0.6648  0.6191 -1.6233
   38POPC   H3Y 5132   6.571   4.676   7.137  1.8005 -0.5989  2.2624
   38POPC   C34 5133   6.735   4.538   7.139 -0.6311  0.2707  0.1232
   38POPC   H4X 5134   6.802   4.612   7.089  0.5388 -2.0645 -1.9773
   38POPC   H4Y 5135   6.765   4.445   7.086  0.3264  0.3147  0.5717
   38POPC   C35 5136   6.758   4.535   7.289  0.3464 -0.0865  0.9370
   38POPC   H5X 5137   6.855   4.482   7.306  0.8567  0.5310  0.0583
   38POPC   H5Y 5138   6.688   4.473   7.349 -0.5996  0.6855  0.6396
   38POPC   C36 5139   6.761   4.679   7.345 -0.1075  0.2400 -0.2846
   38POPC   H6X 5140   6.658   4.720   7.341 -0.5819 -0.9125 -0.0664
   38POPC   H6Y 5141   6.815   4.749   7.277 -3.4525  2.2383 -1.1198
   38POPC   C37 5142   6.814   4.682   7.491 -0.4030 -0.2688  0.0625
   38POPC   H7X 5143   6.918   4.644   7.490 -0.7220 -1.2037  1.0328
   38POPC   H7Y 5144   6.755   4.615   7.557  0.1448 -1.7261 -0.8776
   38POPC   C38 5145   6.805   4.815   7.569 -0.2795  0.3609 -0.3837
   38POPC   H8X 5146   6.698   4.828   7.597 -0.1113 -2.0482  1.7662
   38POPC   H8Y 5147   6.845   4.904   7.517 -1.1397  1.6384  1.0465
   38POPC   C39 5148   6.902   4.802   7.698  0.6262 -0.5026 -0.2451
   38POPC   H9X 5149   7.005   4.810   7.658  0.6940 -0.9938 -0.1786
   38POPC   H9Y 5150   6.890   4.700   7.742 -0.0565  0.1972  1.2688
   38POPC  C310 5151   6.870   4.902   7.814  0.8851 -1.1540  0.2907
   38POPC  H10X 5152   6.768   4.870   7.844  1.3779 -2.3974  0.6881
   38POPC  H10Y 5153   6.874   5.009   7.784  0.3993 -1.6720 -1.7811
   38POPC  C311 5154   6.972   4.897   7.931 -0.2017  0.0948  0.2530
   38POPC  H11X 5155   7.072   4.938   7.903 -0.3504  0.0209 -0.3966
   38POPC  H11Y 5156   6.982   4.787   7.945  0.1639  0.0000 -0.7145
   38POPC  C312 5157   6.929   4.970   8.061  0.0725 -0.3053 -0.0188
   38POPC  H12X 5158   6.827   4.931   8.081  0.1549 -0.4925  0.0435
   38POPC  H12Y 5159   6.931   5.080   8.044  1.2467 -0.2645  0.2453
   38POPC  C313 5160   7.025   4.954   8.178  0.9751  0.6091 -0.1587
   38POPC  H13X 5161   7.121   5.002   8.148  0.3634  0.3824 -2.7259
   38POPC  H13Y 5162   7.047   4.848   8.200  0.3716  0.6830  0.8385
   38POPC  C314 5163   6.974   5.022   8.307 -0.1960  0.5399  0.3687
   38POPC  H14X 5164   6.870   4.986   8.322 -0.3974 -0.8589 -3.3450
   38POPC  H14Y 5165   6.969   5.133   8.295 -3.0601  0.4312 -0.1725
   38POPC  C315 5166   7.061   4.990   8.426 -0.6156  0.7438  0.0839
   38POPC  H15X 5167   7.151   5.055   8.418  0.2373 -0.5043 -0.5909
   38POPC  H15Y 5168   7.098   4.886   8.431 -1.2168  0.4909 -0.6532
   38POPC  C316 5169   6.995   5.022   8.559 -0.0065 -0.4211 -0.4100
   38POPC  H16X 5170   6.928   4.939   8.591 -0.5692  0.7671  1.6652
   38POPC  H16Y 5171   6.949   5.122   8.546 -0.9095 -0.7871 -0.0985
   38POPC  H16Z 5172   7.075   5.031   8.636  1.2423 -0.6958 -1.6295
   39POPC     N 5173   2.378   3.727   6.218  0.8069 -0.1291 -0.1271
   39POPC   C12 5174   2.428   3.861   6.279 -0.2787  0.3133  0.8875
   39POPC  H12A 5175   2.349   3.904   6.339 -0.4980  0.0766  0.7684
   39POPC  H12B 5176   2.442   3.927   6.195 -2.1115  0.9579  1.0380
   39POPC   C13 5177   2.251   3.745   6.146 -0.0928 -0.8080 -0.0974
   39POPC  H13A 5178   2.179   3.791   6.211  0.8573  0.5646  0.0278
   39POPC  H13B 5179   2.253   3.789   6.047  0.8508  0.3190  0.3984
   39POPC  H13C 5180   2.211   3.647   6.122 -2.4149 -0.3325  1.4545
   39POPC   C14 5181   2.475   3.675   6.121 -0.1706 -0.3244  0.6767
   39POPC  H14A 5182   2.486   3.745   6.040  1.0647 -0.1280  0.9859
   39POPC  H14B 5183   2.570   3.649   6.166 -1.8015 -0.5317  4.3313
   39POPC  H14C 5184   2.431   3.587   6.077 -0.2603  0.3977 -0.7154
   39POPC   C15 5185   2.358   3.626   6.328  0.1576  0.2830  0.0299
   39POPC  H15A 5186   2.298   3.545   6.289  0.6394 -0.5739  1.0042
   39POPC  H15B 5187   2.313   3.672   6.414  1.8831  1.3251  0.4444
   39POPC  H15C 5188   2.452   3.581   6.358 -0.5208 -1.1142  0.1255
   39POPC   C11 5189   2.558   3.856   6.362 -0.5432  0.2044  0.0004
   39POPC  H11A 5190   2.568   3.762   6.419  0.7174  0.1364 -0.3126
   39POPC  H11B 5191   2.554   3.940   6.434 -1.9460 -0.8847  1.2488
   39POPC     P 5192   2.693   3.984   6.167 -0.2430 -0.0482 -0.0904
   39POPC   O13 5193   2.574   4.032   6.095  0.0307  0.1970  0.6465
   39POPC   O14 5194   2.815   3.948   6.088 -0.0738  0.7837  0.8203
   39POPC   O12 5195   2.656   3.867   6.265  0.0087 -0.1029  0.6899
   39POPC   O11 5196   2.727   4.095   6.274  0.0201 -0.9663  0.2122
   39POPC    C1 5197   2.861   4.095   6.330 -0.3253  0.0434  0.1791
   39POPC    HA 5198   2.936   4.155   6.274 -0.5702 -1.4274 -1.8164
   39POPC    HB 5199   2.918   4.000   6.334  0.8663  0.5016 -2.8165
   39POPC    C2 5200   2.879   4.176   6.469 -0.0497  0.5274 -0.3308
   39POPC    HS 5201   2.979   4.162   6.514 -0.1790  0.7121  0.0175
   39POPC   O21 5202   2.772   4.149   6.563 -0.2609  0.5005  0.5868
   39POPC   C21 5203   2.771   4.019   6.602  0.0725  0.2119 -0.8491
   39POPC   O22 5204   2.855   3.930   6.575 -0.3356 -0.7173 -0.0064
   39POPC   C22 5205   2.654   3.991   6.698 -0.4602 -0.3318 -0.1504
   39POPC   H2R 5206   2.569   3.959   6.635 -0.1547 -0.3162 -0.5761
   39POPC   H2S 5207   2.636   4.083   6.758 -1.9207 -0.4951 -0.3252
   39POPC    C3 5208   2.874   4.330   6.443  0.5646  0.5456 -0.0310
   39POPC    HX 5209   2.774   4.358   6.403  0.2741 -0.8063 -0.3170
   39POPC    HY 5210   2.951   4.346   6.365 -0.9605 -3.1823 -2.6313
   39POPC   O31 5211   2.888   4.406   6.566  0.6977  0.7484  0.7236
   39POPC   C31 5212   2.922   4.536   6.556  0.1802 -0.7003  0.6242
   39POPC   O32 5213   2.940   4.598   6.449 -0.1140  0.0098  0.4154
   39POPC   C32 5214   2.947   4.595   6.703  0.1262 -0.2349 -0.1738
   39POPC   H2X 5215   2.945   4.706   6.699  0.6885 -0.2512 -1.5612
   39POPC   H2Y 5216   2.855   4.570   6.761 -0.1537 -0.7401 -0.8295
   39POPC   C23 5217   2.684   3.867   6.789  0.2021 -0.5893 -0.0635
   39POPC   H3R 5218   2.791   3.837   6.788  0.7897  1.2521  1.5721
   39POPC   H3S 5219   2.632   3.777   6.750  0.4133 -0.5652 -0.4081
   39POPC   C24 5220   2.655   3.886   6.940 -0.5774 -0.4754 -0.7083
   39POPC   H4R 5221   2.722   3.965   6.981 -1.1538 -1.1530  1.7312
   39POPC   H4S 5222   2.671   3.792   6.996 -1.2503 -1.5280 -2.2212
   39POPC   C25 5223   2.514   3.945   6.961 -0.5930  0.5023 -0.1092
   39POPC   H5R 5224   2.430   3.878   6.932 -1.3526  1.1002  0.6371
   39POPC   H5S 5225   2.498   4.037   6.902 -2.6413 -1.1376 -2.2778
   39POPC   C26 5226   2.500   3.992   7.105  0.0460 -0.8315  0.4930
   39POPC   H6R 5227   2.406   4.050   7.094 -0.3630 -1.8439 -2.0238
   39POPC   H6S 5228   2.582   4.066   7.121  0.7775 -1.5107 -0.0458
   39POPC   C27 5229   2.485   3.883   7.212  0.4587 -0.4216  0.5662
   39POPC   H7R 5230   2.575   3.818   7.205 -0.1970 -1.1192 -3.0918
   39POPC   H7S 5231   2.406   3.807   7.195  0.9008 -0.5435 -1.0576
   39POPC   C28 5232   2.478   3.936   7.357 -0.7493  0.3398  0.1145
   39POPC   H8R 5233   2.548   4.022   7.372 -2.3688  1.7343 -0.0724
   39POPC   H8S 5234   2.501   3.853   7.428  0.0801  1.5419  1.3200
   39POPC   C29 5235   2.346   3.992   7.392 -0.1231 -0.2684  0.7860
   39POPC   H91 5236   2.280   4.017   7.307  0.7139  1.6409  0.6381
   39POPC  C210 5237   2.312   4.019   7.523  0.1378 -0.1211  0.1585
   39POPC  H101 5238   2.214   4.059   7.553  0.6709  0.8776  0.6537
   39POPC  C211 5239   2.390   3.991   7.647 -0.2323  0.4422 -0.0142
   39POPC  H11R 5240   2.493   3.954   7.622 -0.5482 -0.5478  0.0973
   39POPC  H11S 5241   2.339   3.909   7.702  0.0576 -0.0367 -0.4403
   39POPC  C212 5242   2.396   4.112   7.738 -0.1005 -0.5147  0.8199
   39POPC  H12R 5243   2.297   4.149   7.772 -0.3223  1.0508 -1.3071
   39POPC  H12S 5244   2.426   4.192   7.668 -0.6336 -1.6345 -0.7589
   39POPC  C213 5245   2.489   4.105   7.850 -0.1160 -0.7157 -0.6960
   39POPC  H13R 5246   2.595   4.114   7.818  0.3736  0.5104  1.0735
   39POPC  H13S 5247   2.477   4.010   7.907  1.3948 -0.2166  0.5280
   39POPC  C214 5248   2.474   4.215   7.961  0.2607 -0.5373  0.2691
   39POPC  H14R 5249   2.365   4.219   7.984  0.0505  0.5117 -0.8059
   39POPC  H14S 5250   2.522   4.312   7.935  0.2049 -0.1095  1.6788
   39POPC  C215 5251   2.532   4.176   8.097 -0.4970  0.2079 -0.3403
   39POPC  H15R 5252   2.643   4.175   8.092 -0.5357 -1.1154 -1.2994
   39POPC  H15S 5253   2.491   4.078   8.127 -2.2667  1.2898  1.0227
   39POPC  C216 5254   2.486   4.270   8.215  0.6535 -0.8987  0.3786
   39POPC  H16R 5255   2.380   4.245   8.236  0.3944 -2.9897 -2.8608
   39POPC  H16S 5256   2.475   4.373   8.174  0.9978 -0.6495  0.8889
   39POPC  C217 5257   2.578   4.270   8.332 -0.1500 -0.6883 -0.3840
   39POPC  H17R 5258   2.673   4.322   8.307 -0.9647  0.5828 -0.9252
   39POPC  H17S 5259   2.610   4.168   8.364  0.6724 -0.6804 -1.1197
   39POPC  C218 5260   2.523   4.350   8.449  0.2177  0.1789 -0.0850
   39POPC  H18R 5261   2.431   4.301   8.487 -0.2177  0.4597 -0.7605
   39POPC  H18S 5262   2.486   4.449   8.415 -1.2670 -0.3735 -0.1532
   39POPC  H18T 5263   2.594   4.356   8.535 -2.9902  2.2260  2.6627
   39POPC   C33 5264   3.072   4.534   6.767 -0.1874 -0.0404 -0.0364
   39POPC   H3X 5265   3.162   4.562   6.708  1.9175 -0.4190  2.7736
   39POPC   H3Y 5266   3.066   4.423   6.761 -0.1027 -0.2750  2.7532
   39POPC   C34 5267   3.097   4.578   6.913  0.0238  0.4287  0.4886
   39POPC   H4X 5268   3.000   4.571   6.967  1.0268  0.0504  2.3291
   39POPC   H4Y 5269   3.133   4.683   6.916 -0.2083  0.5894 -1.1918
   39POPC   C35 5270   3.198   4.496   6.992 -0.2783  0.2394  0.1263
   39POPC   H5X 5271   3.297   4.523   6.949 -0.1798 -0.6422 -0.2052
   39POPC   H5Y 5272   3.168   4.395   6.958 -2.2726  0.0873  2.0988
   39POPC   C36 5273   3.181   4.493   7.147  0.1889  0.1019 -0.0037
   39POPC   H6X 5274   3.220   4.398   7.189  0.7442  0.7530  0.9972
   39POPC   H6Y 5275   3.072   4.499   7.169  0.4811  0.9058  1.3518
   39POPC   C37 5276   3.236   4.607   7.222 -0.4425  0.2765  0.0687
   39POPC   H7X 5277   3.220   4.694   7.154  0.8852 -0.0854 -0.7531
   39POPC   H7Y 5278   3.347   4.600   7.213 -0.6212 -0.0978 -2.9844
   39POPC   C38 5279   3.173   4.644   7.355  0.1767 -0.5522 -0.2141
   39POPC   H8X 5280   3.062   4.646   7.350  0.1156 -0.2707  1.1136
   39POPC   H8Y 5281   3.196   4.752   7.363  0.9815 -0.4500 -2.7426
   39POPC   C39 5282   3.215   4.564   7.480 -0.3867  0.3203  0.8110
   39POPC   H9X 5283   3.325   4.574   7.475 -0.5318  1.5249 -2.9242
   39POPC   H9Y 5284   3.178   4.459   7.484  1.3209 -0.3928 -0.7419
   39POPC  C310 5285   3.158   4.628   7.609  0.0908 -0.0530  0.5478
   39POPC  H10X 5286   3.158   4.540   7.677  0.3790 -2.0955 -1.9425
   39POPC  H10Y 5287   3.061   4.679   7.590  0.9899  1.0701 -1.2446
   39POPC  C311 5288   3.255   4.726   7.669  0.9096  0.5151 -0.2080
   39POPC  H11X 5289   3.272   4.815   7.605  4.2570 -0.5769 -1.0346
   39POPC  H11Y 5290   3.360   4.692   7.680  1.1633  0.6196 -2.0260
   39POPC  C312 5291   3.206   4.772   7.813 -0.1084  0.4531  0.5653
   39POPC  H12X 5292   3.206   4.677   7.871  0.5082 -0.5488 -1.0299
   39POPC  H12Y 5293   3.107   4.820   7.801 -1.8741 -2.3319  2.5924
   39POPC  C313 5294   3.284   4.874   7.887  0.0477  0.1317 -0.7678
   39POPC  H13X 5295   3.391   4.848   7.903  0.6918  2.2655 -1.3054
   39POPC  H13Y 5296   3.231   4.890   7.984 -1.7932  2.7489 -2.1033
   39POPC  C314 5297   3.280   5.007   7.806 -0.5366 -0.5012  0.0402
   39POPC  H14X 5298   3.177   5.026   7.768 -1.5751 -1.9010  1.9904
   39POPC  H14Y 5299   3.350   4.999   7.720 -0.2457 -2.4323  0.4171
   39POPC  C315 5300   3.325   5.128   7.901  0.1612 -0.0878 -0.1980
   39POPC  H15X 5301   3.248   5.153   7.977  1.6096 -0.1221  1.3376
   39POPC  H15Y 5302   3.324   5.222   7.842  1.3918  0.2214  0.2346
   39POPC  C316 5303   3.464   5.114   7.966  0.0102  0.1580  0.2738
   39POPC  H16X 5304   3.445   5.058   8.060 -0.2339 -1.0460 -0.4679
   39POPC  H16Y 5305   3.513   5.211   7.986  0.9529 -0.2297 -0.0804
   39POPC  H16Z 5306   3.531   5.054   7.900  1.5378 -1.0913  2.8001
   40POPC     N 5307   0.776   0.129   5.647 -0.2549 -0.5854 -0.2763
   40POPC   C12 5308   0.855   0.160   5.772  0.5880  0.3350  0.5586
   40POPC  H12A 5309   0.785   0.214   5.834  0.2537 -0.5973  1.0055
   40POPC  H12B 5310   0.944   0.216   5.747  1.6136 -2.2365 -2.1361
   40POPC   C13 5311   0.647   0.047   5.672  0.1414  0.0042  0.8094
   40POPC  H13A 5312   0.665  -0.014   5.759  1.0128 -2.9129 -1.2581
   40POPC  H13B 5313   0.568   0.118   5.689  0.8057  1.2867 -1.1471
   40POPC  H13C 5314   0.613  -0.017   5.591  0.5646 -1.2214  1.5654
   40POPC   C14 5315   0.735   0.245   5.564 -0.2491 -0.0412 -0.6012
   40POPC  H14A 5316   0.668   0.222   5.482 -1.5591  1.3714  0.0030
   40POPC  H14B 5317   0.675   0.313   5.623 -0.6665 -0.6919 -0.2562
   40POPC  H14C 5318   0.819   0.302   5.528 -0.1870 -0.8494 -1.8035
   40POPC   C15 5319   0.871   0.051   5.557  0.3155  0.1530  0.0412
   40POPC  H15A 5320   0.948   0.112   5.513  1.0848 -0.5564  0.3830
   40POPC  H15B 5321   0.821   0.014   5.468  1.5185  0.0808 -0.6250
   40POPC  H15C 5322   0.924  -0.026   5.610  1.7991  3.0526  3.0895
   40POPC   C11 5323   0.896   0.037   5.851  0.2023  0.6451 -0.4693
   40POPC  H11A 5324   0.964   0.076   5.930 -0.6727 -0.3037  0.7988
   40POPC  H11B 5325   0.958  -0.026   5.783  0.4643 -0.3082  0.6091
   40POPC     P 5326   0.724  -0.002   6.041  0.2425 -0.0073  0.1272
   40POPC   O13 5327   0.609  -0.089   6.077 -0.5224 -0.4674 -0.2587
   40POPC   O14 5328   0.696   0.144   6.025 -0.0358  0.2935 -0.6810
   40POPC   O12 5329   0.794  -0.050   5.904  0.4342 -0.0570  0.0587
   40POPC   O11 5330   0.841  -0.021   6.146  0.0639 -0.2176 -0.1564
   40POPC    C1 5331   0.897  -0.156   6.181 -0.4986 -0.0033  0.0649
   40POPC    HA 5332   1.008  -0.145   6.180 -0.4287 -0.4853 -2.2485
   40POPC    HB 5333   0.891  -0.235   6.104  0.7541 -3.6666  3.4021
   40POPC    C2 5334   0.845  -0.215   6.317 -0.0421  0.6414 -0.2466
   40POPC    HS 5335   0.734  -0.216   6.321 -0.1985 -3.2301 -1.8277
   40POPC   O21 5336   0.904  -0.138   6.428  0.5154  0.7256  0.5145
   40POPC   C21 5337   0.816  -0.101   6.524 -0.6925  0.1000  0.7267
   40POPC   O22 5338   0.696  -0.108   6.530  0.0261 -0.0815  0.1782
   40POPC   C22 5339   0.898  -0.029   6.633  0.0412  0.1215 -0.0189
   40POPC   H2R 5340   0.922   0.073   6.595 -0.0943  0.3629  0.5399
   40POPC   H2S 5341   1.002  -0.065   6.619 -0.2601 -1.0772  0.7582
   40POPC    C3 5342   0.903  -0.359   6.327  0.2974 -0.1209  0.1194
   40POPC    HX 5343   1.012  -0.348   6.307  0.2121  0.0773 -0.2575
   40POPC    HY 5344   0.859  -0.425   6.249  0.0464  1.1350 -0.8302
   40POPC   O31 5345   0.889  -0.427   6.450 -0.3979 -0.7799 -0.2681
   40POPC   C31 5346   0.758  -0.454   6.483  0.4281  0.6556  0.1125
   40POPC   O32 5347   0.662  -0.424   6.418 -0.0139  0.1175  0.4773
   40POPC   C32 5348   0.759  -0.509   6.622 -0.3288  0.1011 -1.0444
   40POPC   H2X 5349   0.842  -0.577   6.649 -2.2428 -1.8879  0.2663
   40POPC   H2Y 5350   0.660  -0.558   6.635 -0.0043 -0.4617 -0.6211
   40POPC   C23 5351   0.846  -0.043   6.773  0.2411 -0.3738 -0.6256
   40POPC   H3R 5352   0.766  -0.120   6.777  0.2990 -0.4711 -1.2828
   40POPC   H3S 5353   0.809   0.054   6.813  0.0565 -0.8996  0.5321
   40POPC   C24 5354   0.960  -0.072   6.878 -0.1668 -0.4585  0.4491
   40POPC   H4R 5355   1.048  -0.017   6.840 -0.3558  2.0192  3.2313
   40POPC   H4S 5356   0.991  -0.178   6.882 -1.0224 -0.6751  2.0334
   40POPC   C25 5357   0.919  -0.015   7.017  0.1078 -0.1931  0.1692
   40POPC   H5R 5358   0.839  -0.085   7.048 -0.1067 -0.3501 -0.7399
   40POPC   H5S 5359   0.878   0.087   7.005 -2.1447 -1.0572  0.1510
   40POPC   C26 5360   1.042  -0.015   7.112 -0.3405 -0.2102 -0.9083
   40POPC   H6R 5361   1.100   0.067   7.065 -1.9212  1.6866  0.3017
   40POPC   H6S 5362   1.093  -0.114   7.106  2.3179  0.6971  2.7084
   40POPC   C27 5363   1.023   0.023   7.260 -0.0413 -0.1582  0.2801
   40POPC   H7R 5364   1.122   0.050   7.302 -1.4467  0.3201  3.7034
   40POPC   H7S 5365   0.971  -0.063   7.308 -4.6521  2.4513  0.5628
   40POPC   C28 5366   0.930   0.142   7.295 -0.3668 -0.1991  0.8232
   40POPC   H8R 5367   0.826   0.126   7.258  0.2613 -1.5399 -0.4905
   40POPC   H8S 5368   0.984   0.223   7.242 -2.1797  1.8083  1.9177
   40POPC   C29 5369   0.903   0.176   7.441 -0.0765 -0.3414  0.4261
   40POPC   H91 5370   0.812   0.134   7.485 -1.2293 -0.1464 -1.6311
   40POPC  C210 5371   0.982   0.248   7.523  0.5156 -0.7419 -1.0243
   40POPC  H101 5372   0.947   0.253   7.627 -0.2460  2.2636 -1.3158
   40POPC  C211 5373   1.111   0.317   7.494  0.0824 -0.3582  0.0141
   40POPC  H11R 5374   1.117   0.427   7.506 -0.2957 -0.4069  0.7161
   40POPC  H11S 5375   1.148   0.282   7.395 -2.6712  0.7529 -1.5080
   40POPC  C212 5376   1.222   0.262   7.594  0.0671  0.6189  0.3501
   40POPC  H12R 5377   1.321   0.268   7.545 -0.5696 -0.6252 -1.1855
   40POPC  H12S 5378   1.208   0.152   7.599 -0.4969  0.5802 -1.3975
   40POPC  C213 5379   1.239   0.336   7.733  0.4087 -0.2864 -0.0675
   40POPC  H13R 5380   1.141   0.354   7.782  0.2416  1.1025 -0.8586
   40POPC  H13S 5381   1.287   0.430   7.699  1.4355 -1.4720 -2.1337
   40POPC  C214 5382   1.322   0.257   7.831 -0.2740 -0.3015 -0.4360
   40POPC  H14R 5383   1.414   0.218   7.783  0.0875  0.0316 -0.0256
   40POPC  H14S 5384   1.256   0.173   7.860  0.9404 -0.8963  0.7480
   40POPC  C215 5385   1.367   0.336   7.954 -0.3216  0.5447  1.2701
   40POPC  H15R 5386   1.280   0.391   7.997 -1.8604 -1.0807  0.3719
   40POPC  H15S 5387   1.453   0.406   7.944 -0.1077 -0.0508 -2.4685
   40POPC  C216 5388   1.423   0.238   8.061 -0.3551 -0.6832 -0.9642
   40POPC  H16R 5389   1.345   0.167   8.097  0.9005 -1.3997  0.4066
   40POPC  H16S 5390   1.458   0.298   8.148 -0.5797 -1.0235 -0.6351
   40POPC  C217 5391   1.545   0.146   8.023 -0.0978  0.0083 -0.5412
   40POPC  H17R 5392   1.633   0.206   7.992  0.6860 -0.4655  0.6763
   40POPC  H17S 5393   1.508   0.081   7.941  0.4086 -0.7289 -0.2022
   40POPC  C218 5394   1.598   0.059   8.140 -1.4347  0.1120 -0.3580
   40POPC  H18R 5395   1.661  -0.018   8.091 -2.7189 -2.1632  1.3779
   40POPC  H18S 5396   1.520  -0.007   8.184  0.0391 -2.1626 -0.9952
   40POPC  H18T 5397   1.660   0.118   8.211 -0.2225  1.0293 -2.0892
   40POPC   C33 5398   0.772  -0.387   6.719 -0.1939  0.5222  0.9423
   40POPC   H3X 5399   0.695  -0.309   6.701 -0.6025  0.8487  3.6598
   40POPC   H3Y 5400   0.868  -0.335   6.699 -0.7886  0.5404 -2.5151
   40POPC   C34 5401   0.769  -0.435   6.870 -0.1568  0.0797 -0.0655
   40POPC   H4X 5402   0.848  -0.379   6.923  0.4203 -1.0537  0.3087
   40POPC   H4Y 5403   0.812  -0.537   6.878  0.0751  0.1046 -0.9137
   40POPC   C35 5404   0.634  -0.437   6.941  0.2765 -0.8513 -0.2777
   40POPC   H5X 5405   0.644  -0.472   7.046 -0.1483 -0.1963 -0.0151
   40POPC   H5Y 5406   0.547  -0.487   6.895  0.0100  0.8962 -1.8227
   40POPC   C36 5407   0.585  -0.291   6.962  0.2592 -0.3064  0.9180
   40POPC   H6X 5408   0.569  -0.243   6.863  1.8316  4.1498  2.5750
   40POPC   H6Y 5409   0.669  -0.229   7.000 -0.7431  2.4054 -1.0068
   40POPC   C37 5410   0.451  -0.268   7.039  0.9273 -0.0642 -0.6138
   40POPC   H7X 5411   0.378  -0.329   6.982  0.0363 -0.7896  1.2457
   40POPC   H7Y 5412   0.421  -0.161   7.032  0.9906  0.1130  1.4193
   40POPC   C38 5413   0.433  -0.313   7.181  0.3676 -0.0468  0.1480
   40POPC   H8X 5414   0.427  -0.424   7.186  0.8176 -0.2619 -2.4547
   40POPC   H8Y 5415   0.338  -0.275   7.224  1.3088  1.3685  1.0475
   40POPC   C39 5416   0.557  -0.274   7.269  0.0390  0.0681  0.7484
   40POPC   H9X 5417   0.566  -0.166   7.246 -1.8433  0.3490  1.2066
   40POPC   H9Y 5418   0.647  -0.332   7.240  2.6252  3.3840  1.5300
   40POPC  C310 5419   0.534  -0.302   7.414 -0.3382 -0.1549 -0.3339
   40POPC  H10X 5420   0.518  -0.409   7.442  0.8260 -0.2594 -0.0034
   40POPC  H10Y 5421   0.445  -0.243   7.441 -0.4952 -0.0276 -1.1078
   40POPC  C311 5422   0.657  -0.242   7.488  1.0637  0.0830 -0.4056
   40POPC  H11X 5423   0.672  -0.139   7.449  0.8107  0.4702  0.4948
   40POPC  H11Y 5424   0.748  -0.302   7.467  0.4537 -0.3262 -2.0011
   40POPC  C312 5425   0.626  -0.223   7.638 -0.2311 -0.3686  0.1330
   40POPC  H12X 5426   0.544  -0.150   7.657 -1.4388 -1.9419  1.2065
   40POPC  H12Y 5427   0.726  -0.190   7.671 -1.1723  0.5248  2.2419
   40POPC  C313 5428   0.575  -0.346   7.714 -0.0081  0.3402  0.6102
   40POPC  H13X 5429   0.471  -0.368   7.684 -0.5405  1.6078  1.4353
   40POPC  H13Y 5430   0.573  -0.326   7.824 -1.8827  0.2129  0.6328
   40POPC  C314 5431   0.656  -0.471   7.688  0.7093 -0.6047  0.1735
   40POPC  H14X 5432   0.759  -0.431   7.698  1.3252 -1.6198 -1.5342
   40POPC  H14Y 5433   0.645  -0.512   7.585  0.2998  0.7200 -0.3327
   40POPC  C315 5434   0.633  -0.588   7.783  0.4007  0.9597  0.8256
   40POPC  H15X 5435   0.529  -0.626   7.768  1.3354 -2.1385  1.4152
   40POPC  H15Y 5436   0.655  -0.562   7.888  1.8155 -0.3472  0.8855
   40POPC  C316 5437   0.722  -0.712   7.752  0.2446  0.6594 -0.2131
   40POPC  H16X 5438   0.827  -0.678   7.761 -0.4427  2.7579  0.5682
   40POPC  H16Y 5439   0.708  -0.748   7.648 -2.2988  2.8405 -0.7376
   40POPC  H16Z 5440   0.691  -0.789   7.825  4.6034 -0.1066  1.1048
   41CHL1    C3 5441   5.891   3.060   9.910 -1.2222  0.2045  0.1850
   41CHL1    H3 5442   5.954   3.149   9.928  2.2016 -1.3438 -2.8411
   41CHL1    O3 5443   5.838   3.004  10.027  0.3402 -0.1161  0.2672
   41CHL1   H3' 5444   5.783   2.936   9.989 -0.7058  0.7545  0.1758
   41CHL1    C4 5445   5.772   3.081   9.815  0.0575  1.0370  0.6684
   41CHL1   H4A 5446   5.705   2.994   9.797  0.1482  0.6947  1.9121
   41CHL1   H4B 5447   5.708   3.158   9.862 -0.7337  1.2426 -0.6875
   41CHL1    C5 5448   5.801   3.131   9.678  0.0301  0.2529 -0.0998
   41CHL1    C6 5449   5.740   3.242   9.624  0.0143  0.5516 -0.6079
   41CHL1    H6 5450   5.663   3.294   9.684 -0.5033 -0.7051 -0.1427
   41CHL1    C7 5451   5.771   3.303   9.490 -0.1892  0.6184 -0.0129
   41CHL1   H7A 5452   5.683   3.347   9.438 -1.0816 -0.4037  0.5762
   41CHL1   H7B 5453   5.842   3.386   9.507  0.2900  0.6505 -1.9104
   41CHL1    C8 5454   5.848   3.205   9.398  0.2759  0.3685 -0.0230
   41CHL1    H8 5455   5.767   3.133   9.372  0.0350  0.8318 -0.5711
   41CHL1   C14 5456   5.912   3.267   9.275  0.0990 -0.6303 -0.6034
   41CHL1   H14 5457   5.999   3.321   9.319 -2.0139  0.3328  2.7810
   41CHL1   C15 5458   5.838   3.383   9.195  0.3609  0.2040  0.0413
   41CHL1  H15A 5459   5.730   3.370   9.171  0.7327 -0.3589 -1.5116
   41CHL1  H15B 5460   5.852   3.481   9.246  3.6786  0.2009 -0.6284
   41CHL1   C16 5461   5.907   3.379   9.061 -0.0576  0.2534  0.6547
   41CHL1  H16A 5462   5.841   3.364   8.973  1.0437 -0.5263 -0.0597
   41CHL1  H16B 5463   5.945   3.481   9.038  0.1688 -0.1793 -1.0024
   41CHL1   C17 5464   6.011   3.268   9.057  0.5775 -0.7168 -0.4659
   41CHL1   H17 5465   6.100   3.321   9.096  0.7194 -1.9661  0.9904
   41CHL1   C13 5466   5.977   3.172   9.175 -0.5914 -0.2103  0.3335
   41CHL1   C18 5467   5.869   3.074   9.116 -1.0030  0.4941  0.1765
   41CHL1  H18A 5468   5.846   2.995   9.190  1.3999 -0.8807 -0.4229
   41CHL1  H18B 5469   5.779   3.122   9.071 -0.5187  0.0220 -1.3860
   41CHL1  H18C 5470   5.919   3.012   9.038  0.0515  0.5549  0.7980
   41CHL1   C12 5471   6.094   3.103   9.250  0.0578  0.2654 -1.0473
   41CHL1  H12A 5472   6.150   3.026   9.193 -0.3282 -0.5508 -0.3481
   41CHL1  H12B 5473   6.166   3.177   9.290 -0.8182  1.9491 -2.3968
   41CHL1   C11 5474   6.036   3.036   9.379 -0.1424 -0.0992 -0.1368
   41CHL1  H11A 5475   5.960   2.964   9.342 -0.7839  0.7296 -0.4610
   41CHL1  H11B 5476   6.126   2.987   9.424 -0.2465 -2.1287 -1.9686
   41CHL1    C9 5477   5.955   3.124   9.477  0.1716 -0.2087  0.1021
   41CHL1    H9 5478   6.022   3.207   9.507  0.1219  2.3165 -5.5874
   41CHL1   C10 5479   5.906   3.050   9.608 -0.0991  0.6342 -0.2112
   41CHL1   C19 5480   5.849   2.913   9.580  0.4284  0.3071  0.5475
   41CHL1  H19A 5481   5.772   2.915   9.500 -0.3583  3.2104  1.2541
   41CHL1  H19B 5482   5.930   2.851   9.536 -0.9625 -1.9292  0.9892
   41CHL1  H19C 5483   5.816   2.854   9.668  0.8456  0.1844  0.6248
   41CHL1    C1 5484   6.024   3.025   9.707 -0.0626 -0.0378 -0.4503
   41CHL1   H1A 5485   6.087   2.947   9.659 -1.1926 -1.0586 -0.3296
   41CHL1   H1B 5486   6.079   3.120   9.723 -2.3849  1.1119  1.1423
   41CHL1    C2 5487   5.988   2.965   9.844  0.3458  0.3696 -0.2344
   41CHL1   H2A 5488   6.075   2.962   9.913 -0.3575  1.0198  0.7063
   41CHL1   H2B 5489   5.939   2.868   9.822 -1.2485  0.5210  2.1994
   41CHL1   C20 5490   6.059   3.219   8.925 -0.0360 -0.4847  0.5355
   41CHL1   H20 5491   5.973   3.176   8.870  2.7329 -1.4205 -3.5379
   41CHL1   C21 5492   6.172   3.119   8.947  0.0345  0.0623  0.0523
   41CHL1  H21A 5493   6.121   3.039   9.005 -2.3721  1.5517  0.1591
   41CHL1  H21B 5494   6.255   3.170   9.000  0.2576 -0.9174  0.6679
   41CHL1  H21C 5495   6.205   3.057   8.861 -0.2091  2.0033 -1.5129
   41CHL1   C22 5496   6.095   3.340   8.828  0.2916  0.2983 -1.3532
   41CHL1  H22A 5497   6.010   3.412   8.818 -1.3434 -0.8769  2.3001
   41CHL1  H22B 5498   6.169   3.398   8.886 -0.0074  0.3735 -1.0437
   41CHL1   C23 5499   6.174   3.296   8.700  0.2610  0.3608 -0.6138
   41CHL1  H23A 5500   6.202   3.394   8.656  1.4623  0.1312 -0.3834
   41CHL1  H23B 5501   6.270   3.247   8.726  0.3074  0.6051 -0.3190
   41CHL1   C24 5502   6.093   3.210   8.594 -0.4682 -0.5114 -0.2771
   41CHL1  H24A 5503   6.034   3.136   8.653 -1.9890 -0.4895 -1.6891
   41CHL1  H24B 5504   6.017   3.288   8.569 -0.8040  0.5826  3.4208
   41CHL1   C25 5505   6.173   3.163   8.475 -0.4548 -0.5149  0.6498
   41CHL1   H25 5506   6.213   3.257   8.430 -3.4260  0.4846 -0.0898
   41CHL1   C26 5507   6.298   3.082   8.511 -0.0051  0.0378  0.0403
   41CHL1  H26A 5508   6.261   3.013   8.590 -0.6138  0.0274 -0.2464
   41CHL1  H26B 5509   6.343   3.023   8.428 -0.6859 -0.3616 -0.0582
   41CHL1  H26C 5510   6.373   3.149   8.557 -0.9677 -0.1026  1.8990
   41CHL1   C27 5511   6.085   3.094   8.375 -0.0463  0.3950 -0.2149
   41CHL1  H27A 5512   6.141   3.040   8.295 -1.2255 -1.9141  0.4212
   41CHL1  H27B 5513   6.030   3.011   8.424  2.4861 -2.2347 -1.5082
   41CHL1  H27C 5514   6.007   3.158   8.329 -2.5675 -0.9256  2.0155
   42CHL1    C3 5515   6.730   0.136   9.937 -0.4070 -0.0953  0.0306
   42CHL1    H3 5516   6.644   0.202   9.913 -0.2714 -0.7325 -2.4442
   42CHL1    O3 5517   6.755   0.106  10.075  0.3877  0.3975  0.2537
   42CHL1   H3' 5518   6.681   0.059  10.115  0.8281 -0.2982  0.2674
   42CHL1    C4 5519   6.709   0.013   9.857  0.1428 -0.6274  0.6941
   42CHL1   H4A 5520   6.795  -0.056   9.867 -0.6762 -2.0778 -1.4997
   42CHL1   H4B 5521   6.616  -0.041   9.885 -2.2874  1.9411 -1.6972
   42CHL1    C5 5522   6.690   0.041   9.713 -0.0865  0.6298  0.2526
   42CHL1    C6 5523   6.585  -0.007   9.646  0.2787  0.1837  0.1448
   42CHL1    H6 5524   6.505  -0.063   9.696  0.6737  0.0574  0.6496
   42CHL1    C7 5525   6.569   0.011   9.497  0.3779  0.3534  0.2885
   42CHL1   H7A 5526   6.524  -0.077   9.447  1.1409 -0.2165  0.5875
   42CHL1   H7B 5527   6.485   0.084   9.490 -0.6557 -0.9025 -0.9025
   42CHL1    C8 5528   6.695   0.054   9.427  1.0650 -0.2366 -0.0136
   42CHL1    H8 5529   6.769  -0.030   9.424  1.3768 -0.0064  1.0880
   42CHL1   C14 5530   6.652   0.097   9.290  0.6531  0.1230 -0.1399
   42CHL1   H14 5531   6.579   0.179   9.306  2.3568  1.6037  0.4761
   42CHL1   C15 5532   6.581  -0.000   9.192  0.1344  0.0951  0.2360
   42CHL1  H15A 5533   6.638  -0.095   9.204  0.2178  0.0739 -0.3133
   42CHL1  H15B 5534   6.476  -0.010   9.226 -0.4549  1.5635 -1.0720
   42CHL1   C16 5535   6.596   0.060   9.060 -0.7886  0.6453 -0.1080
   42CHL1  H16A 5536   6.628  -0.017   8.987 -0.0801 -1.6395  2.4391
   42CHL1  H16B 5537   6.499   0.093   9.016 -0.9432 -0.1230 -0.3524
   42CHL1   C17 5538   6.698   0.181   9.075 -0.2788 -0.5384 -0.0348
   42CHL1   H17 5539   6.633   0.270   9.089  0.8222 -0.0299  2.2712
   42CHL1   C13 5540   6.773   0.157   9.212  0.1948 -0.7779  0.9224
   42CHL1   C18 5541   6.885   0.053   9.180 -0.0431 -0.1830 -0.8547
   42CHL1  H18A 5542   6.964   0.104   9.121 -0.5847  0.1111 -1.3378
   42CHL1  H18B 5543   6.940   0.011   9.266  1.6712  2.2175 -0.6591
   42CHL1  H18C 5544   6.839  -0.018   9.107 -1.3041 -0.2742 -0.0095
   42CHL1   C12 5545   6.823   0.286   9.286  0.0926 -0.3192 -0.7645
   42CHL1  H12A 5546   6.919   0.325   9.246  0.8579 -1.6535 -0.3240
   42CHL1  H12B 5547   6.745   0.363   9.299 -0.3917 -1.0178  0.6958
   42CHL1   C11 5548   6.877   0.242   9.421 -0.0031 -0.1873  0.3392
   42CHL1  H11A 5549   6.968   0.182   9.403 -0.5427 -0.5044 -1.5689
   42CHL1  H11B 5550   6.906   0.336   9.473 -1.1594  0.2435  0.2382
   42CHL1    C9 5551   6.765   0.175   9.500  0.2869 -0.3105  0.0844
   42CHL1    H9 5552   6.682   0.248   9.508  0.2282 -0.3049 -0.5391
   42CHL1   C10 5553   6.800   0.126   9.642  0.0692  0.3782 -0.2540
   42CHL1   C19 5554   6.922   0.033   9.625  0.6793  0.0111  0.3694
   42CHL1  H19A 5555   6.948  -0.015   9.722  1.7904 -2.0150 -0.8681
   42CHL1  H19B 5556   6.922  -0.046   9.547 -1.9935 -0.2552  0.5357
   42CHL1  H19C 5557   7.012   0.095   9.606 -0.2913  1.3258 -0.0564
   42CHL1    C1 5558   6.826   0.246   9.734 -0.6955 -0.6497 -0.1806
   42CHL1   H1A 5559   6.911   0.303   9.690 -0.2891 -0.8136  0.3833
   42CHL1   H1B 5560   6.739   0.314   9.721 -2.7170 -2.5261  2.4653
   42CHL1    C2 5561   6.851   0.210   9.881 -0.0730  0.8414  0.0191
   42CHL1   H2A 5562   6.845   0.304   9.939  1.1053  1.0875 -0.2135
   42CHL1   H2B 5563   6.948   0.158   9.897  0.1618  1.7624  1.7955
   42CHL1   C20 5564   6.790   0.221   8.951 -0.1877 -0.5666  0.3321
   42CHL1   H20 5565   6.886   0.167   8.961  0.2033  0.1349  0.3986
   42CHL1   C21 5566   6.811   0.372   8.950  0.5546 -0.0536  0.7777
   42CHL1  H21A 5567   6.721   0.432   8.926  0.6107 -0.1775  0.2189
   42CHL1  H21B 5568   6.885   0.394   8.869 -0.7415 -0.4849 -0.5713
   42CHL1  H21C 5569   6.844   0.417   9.046  0.8681  1.3939  0.0295
   42CHL1   C22 5570   6.743   0.170   8.817 -0.0156 -0.5609  0.9864
   42CHL1  H22A 5571   6.745   0.059   8.823  1.3532 -0.7261 -1.3055
   42CHL1  H22B 5572   6.650   0.205   8.768  0.2270 -1.3124 -0.0421
   42CHL1   C23 5573   6.845   0.206   8.702  0.9407  0.6869 -0.1298
   42CHL1  H23A 5574   6.833   0.313   8.676  2.2390  0.4301 -1.9913
   42CHL1  H23B 5575   6.949   0.191   8.738  0.9592 -1.6136 -0.9901
   42CHL1   C24 5576   6.830   0.123   8.574  0.4763 -0.0313 -0.6427
   42CHL1  H24A 5577   6.834   0.013   8.591  1.5957  0.3250  1.7427
   42CHL1  H24B 5578   6.738   0.150   8.518  0.7576 -0.1973 -1.1938
   42CHL1   C25 5579   6.948   0.148   8.481 -0.2184 -0.3284  0.0484
   42CHL1   H25 5580   7.040   0.129   8.541 -0.9409 -0.0238  1.2767
   42CHL1   C26 5581   6.957   0.047   8.368  1.0614 -0.1043 -0.4274
   42CHL1  H26A 5582   6.921  -0.049   8.412  1.3232  0.4733  1.1053
   42CHL1  H26B 5583   6.877   0.073   8.295 -1.3056 -1.4595  1.5472
   42CHL1  H26C 5584   7.054   0.043   8.313  0.1077  1.1273 -2.2899
   42CHL1   C27 5585   6.963   0.296   8.425 -0.1121  0.0527 -0.4639
   42CHL1  H27A 5586   6.867   0.353   8.424 -1.0214 -1.2343  2.6236
   42CHL1  H27B 5587   7.041   0.348   8.484 -0.0748 -0.6431  0.1047
   42CHL1  H27C 5588   7.002   0.285   8.321  1.6557 -1.2697  0.2914
   43CHL1    C3 5589   0.386   2.164   9.954 -0.1474  0.5530 -0.3900
   43CHL1    H3 5590   0.391   2.054   9.967  3.9649  0.3325 -2.1688
   43CHL1    O3 5591   0.342   2.213  10.085  0.3491 -0.1592 -0.1938
   43CHL1   H3' 5592   0.255   2.173  10.086  1.6787 -3.3816  1.6761
   43CHL1    C4 5593   0.537   2.212   9.915 -0.2293 -0.7057 -0.3478
   43CHL1   H4A 5594   0.552   2.318   9.946  0.5511 -0.3158 -1.9679
   43CHL1   H4B 5595   0.599   2.152   9.985  1.5005  0.8392 -0.4847
   43CHL1    C5 5596   0.591   2.198   9.773  0.8484 -0.1968  0.0922
   43CHL1    C6 5597   0.706   2.135   9.742 -0.3474 -0.5663  0.2807
   43CHL1    H6 5598   0.760   2.102   9.833 -3.3625  1.5876  3.1066
   43CHL1    C7 5599   0.760   2.121   9.605 -0.4778 -0.2603  0.3819
   43CHL1   H7A 5600   0.868   2.146   9.609 -0.0588 -2.0085  1.1522
   43CHL1   H7B 5601   0.745   2.020   9.562  1.0897  0.4010 -1.9080
   43CHL1    C8 5602   0.689   2.230   9.519 -0.2521  0.4770  0.4418
   43CHL1    H8 5603   0.720   2.332   9.553 -0.7574  0.6614  0.3576
   43CHL1   C14 5604   0.725   2.202   9.373  0.1727 -0.6111 -0.0093
   43CHL1   H14 5605   0.696   2.098   9.347 -1.7175  0.1294 -1.0703
   43CHL1   C15 5606   0.878   2.212   9.338 -0.8493  0.0424  0.3382
   43CHL1  H15A 5607   0.918   2.309   9.376 -1.1552  0.8962 -1.4139
   43CHL1  H15B 5608   0.940   2.131   9.384  2.1962  1.6850 -0.5598
   43CHL1   C16 5609   0.875   2.219   9.189 -0.9226 -0.0641 -0.7977
   43CHL1  H16A 5610   0.942   2.302   9.156 -1.8771  0.7060 -0.8681
   43CHL1  H16B 5611   0.912   2.129   9.137 -1.0216 -0.0826 -0.8369
   43CHL1   C17 5612   0.729   2.252   9.143  0.2635  0.0737  0.3369
   43CHL1   H17 5613   0.684   2.155   9.112 -0.4082  0.5796 -0.3062
   43CHL1   C13 5614   0.655   2.296   9.268  1.2490  1.2758  0.2479
   43CHL1   C18 5615   0.694   2.444   9.292  0.2689 -0.6905 -0.2823
   43CHL1  H18A 5616   0.801   2.452   9.263 -0.0893  1.1332 -1.2636
   43CHL1  H18B 5617   0.626   2.504   9.227 -0.0096 -3.0797 -2.3411
   43CHL1  H18C 5618   0.685   2.469   9.400 -0.2065  0.0645 -0.4809
   43CHL1   C12 5619   0.508   2.264   9.287 -0.0097  0.2911  0.7731
   43CHL1  H12A 5620   0.443   2.320   9.217 -1.1027  1.8627  2.9093
   43CHL1  H12B 5621   0.497   2.156   9.264 -0.4315  0.2732  1.0309
   43CHL1   C11 5622   0.462   2.313   9.425  0.1164  0.2881  0.1743
   43CHL1  H11A 5623   0.468   2.423   9.428  1.1197  0.3187 -1.5762
   43CHL1  H11B 5624   0.357   2.279   9.440  0.1236  0.4808  0.6800
   43CHL1    C9 5625   0.533   2.229   9.535 -0.1415 -0.3632 -0.4986
   43CHL1    H9 5626   0.508   2.124   9.510 -0.0184 -1.1982  2.4548
   43CHL1   C10 5627   0.492   2.255   9.677  0.2219 -0.1267  0.1210
   43CHL1   C19 5628   0.493   2.417   9.687  0.3263  0.6527 -0.0697
   43CHL1  H19A 5629   0.578   2.457   9.628  1.3163 -1.2135  0.0294
   43CHL1  H19B 5630   0.393   2.446   9.649  0.4103  0.8207 -0.1635
   43CHL1  H19C 5631   0.502   2.449   9.793 -1.3497  0.3338  0.1993
   43CHL1    C1 5632   0.355   2.192   9.709  0.1991  0.1773  0.2163
   43CHL1   H1A 5633   0.282   2.245   9.644 -0.7801 -0.9509  0.3553
   43CHL1   H1B 5634   0.352   2.087   9.673  1.2840  0.4495 -0.7346
   43CHL1    C2 5635   0.289   2.213   9.846  0.3538  0.6535 -0.3787
   43CHL1   H2A 5636   0.192   2.161   9.858  0.8310 -0.8148 -2.3850
   43CHL1   H2B 5637   0.263   2.319   9.868  0.1329  0.4708  0.2489
   43CHL1   C20 5638   0.712   2.337   9.017  0.0714  0.4322  0.8519
   43CHL1   H20 5639   0.740   2.440   9.048  1.1509  0.0349  1.2311
   43CHL1   C21 5640   0.570   2.348   8.962  0.2583  0.2675 -0.6759
   43CHL1  H21A 5641   0.518   2.404   9.042  3.3540  0.8428  1.0661
   43CHL1  H21B 5642   0.519   2.252   8.938 -0.0658  0.0024  0.9589
   43CHL1  H21C 5643   0.559   2.416   8.875  1.0052  0.3453 -0.7112
   43CHL1   C22 5644   0.816   2.298   8.913  0.1117  0.0919  0.2524
   43CHL1  H22A 5645   0.803   2.374   8.833  0.9228  0.3958  0.3931
   43CHL1  H22B 5646   0.920   2.304   8.952  0.5259  0.6786 -0.8703
   43CHL1   C23 5647   0.792   2.166   8.843  0.2604  0.2151 -0.0498
   43CHL1  H23A 5648   0.797   2.078   8.911 -0.6030 -0.4557 -0.8425
   43CHL1  H23B 5649   0.687   2.165   8.809 -0.3057  0.7567  1.5497
   43CHL1   C24 5650   0.881   2.139   8.718 -0.2486 -0.6772 -0.5420
   43CHL1  H24A 5651   0.862   2.212   8.637 -2.1653 -1.4123 -0.8195
   43CHL1  H24B 5652   0.985   2.151   8.753 -0.9645  1.6935  1.0108
   43CHL1   C25 5653   0.844   1.998   8.657  0.3741 -0.1484 -0.3803
   43CHL1   H25 5654   0.744   2.016   8.612  0.4127 -0.3933 -0.5692
   43CHL1   C26 5655   0.936   1.978   8.533 -0.1328  0.3614 -0.0250
   43CHL1  H26A 5656   1.042   1.972   8.564 -0.1946 -2.0887 -0.0845
   43CHL1  H26B 5657   0.914   1.874   8.500 -0.3013  0.4161 -0.0887
   43CHL1  H26C 5658   0.911   2.052   8.454 -0.9809  1.5120  1.2644
   43CHL1   C27 5659   0.836   1.883   8.752 -0.1991  0.0644  0.0981
   43CHL1  H27A 5660   0.921   1.875   8.824  1.0141 -1.5854 -1.4055
   43CHL1  H27B 5661   0.740   1.894   8.806 -1.5116 -0.2169 -2.0505
   43CHL1  H27C 5662   0.835   1.794   8.685 -2.1931  0.4072 -0.3730
   44CHL1    C3 5663   0.031   2.566  10.072  0.3543 -0.3997 -0.1908
   44CHL1    H3 5664   0.138   2.593  10.054 -0.0861  1.6751 -0.0218
   44CHL1    O3 5665   0.020   2.525  10.205 -0.1594 -0.0073  0.1107
   44CHL1   H3' 5666  -0.056   2.466  10.204 -0.3555  0.2215  0.9787
   44CHL1    C4 5667  -0.066   2.681  10.033  0.4330  0.3994  0.3789
   44CHL1   H4A 5668  -0.168   2.638  10.043 -0.3881  2.5970  2.1152
   44CHL1   H4B 5669  -0.053   2.760  10.109  2.0326  0.2468  0.3114
   44CHL1    C5 5670  -0.048   2.724   9.891 -0.3466 -0.0427  0.1791
   44CHL1    C6 5671  -0.022   2.852   9.866  0.5090  0.2377  0.1967
   44CHL1    H6 5672  -0.031   2.923   9.949 -4.5052 -2.6081  2.5240
   44CHL1    C7 5673   0.008   2.893   9.724  0.0733  0.1033  0.5416
   44CHL1   H7A 5674  -0.039   2.990   9.698 -0.1758 -0.2355 -0.3248
   44CHL1   H7B 5675   0.118   2.891   9.709 -0.2619 -1.3797 -2.5712
   44CHL1    C8 5676  -0.042   2.800   9.614  0.3323  0.5418 -0.3543
   44CHL1    H8 5677  -0.152   2.807   9.601  0.4758 -0.2085 -2.5163
   44CHL1   C14 5678   0.019   2.844   9.481 -0.3686  0.1522  0.1069
   44CHL1   H14 5679   0.128   2.829   9.494 -0.4313 -1.7611 -1.2131
   44CHL1   C15 5680  -0.000   2.993   9.436  0.0098 -0.0386 -0.1190
   44CHL1  H15A 5681  -0.102   3.029   9.463  0.2235 -1.1775  2.5307
   44CHL1  H15B 5682   0.074   3.047   9.498  0.2630 -2.3489  1.7237
   44CHL1   C16 5683   0.038   2.993   9.286 -0.1993 -0.3675  0.3665
   44CHL1  H16A 5684  -0.044   3.055   9.244 -1.1162  0.3425  3.0424
   44CHL1  H16B 5685   0.138   3.033   9.258  1.7074 -4.5446  0.3712
   44CHL1   C17 5686   0.045   2.842   9.238 -0.1676 -0.2778 -0.0545
   44CHL1   H17 5687   0.151   2.810   9.244 -0.3542 -0.7412  1.1688
   44CHL1   C13 5688  -0.015   2.761   9.356  0.5673 -1.1914  0.1299
   44CHL1   C18 5689  -0.174   2.766   9.343 -0.2717  0.2380 -0.1284
   44CHL1  H18A 5690  -0.212   2.867   9.320 -0.6856  0.7790  2.5841
   44CHL1  H18B 5691  -0.202   2.700   9.257 -0.6842  1.1877 -0.7366
   44CHL1  H18C 5692  -0.229   2.720   9.428  0.2537 -1.0277 -0.4479
   44CHL1   C12 5693   0.052   2.625   9.383 -0.6573  0.0332  0.0258
   44CHL1  H12A 5694   0.027   2.550   9.305 -0.6140 -0.1885  0.2235
   44CHL1  H12B 5695   0.162   2.637   9.372 -0.8919  2.4750 -0.2158
   44CHL1   C11 5696   0.016   2.559   9.522 -0.3638 -0.7628 -0.2856
   44CHL1  H11A 5697  -0.089   2.525   9.510 -0.9614  0.6592  0.5842
   44CHL1  H11B 5698   0.082   2.472   9.542 -0.7818 -0.9565  0.3051
   44CHL1    C9 5699   0.017   2.658   9.648 -0.2159 -0.2421 -0.1690
   44CHL1    H9 5700   0.126   2.667   9.669 -0.3327 -1.7314  1.2133
   44CHL1   C10 5701  -0.043   2.611   9.783 -0.0227  0.7969 -0.4379
   44CHL1   C19 5702  -0.191   2.564   9.749 -0.3146  0.9652 -0.1415
   44CHL1  H19A 5703  -0.182   2.460   9.711  0.9787  0.6557  0.9400
   44CHL1  H19B 5704  -0.257   2.563   9.838 -1.8679  0.2627 -1.2677
   44CHL1  H19C 5705  -0.236   2.623   9.667  1.7965  0.2668 -1.8806
   44CHL1    C1 5706   0.037   2.486   9.830 -0.6772 -0.0403  0.4694
   44CHL1   H1A 5707   0.015   2.403   9.759  0.7729 -1.3775  1.5279
   44CHL1   H1B 5708   0.144   2.518   9.827 -0.9349  0.8188 -0.1897
   44CHL1    C2 5709   0.012   2.444   9.973  0.5475 -0.0662  0.2494
   44CHL1   H2A 5710   0.075   2.359  10.007 -0.7161 -1.1234  0.0388
   44CHL1   H2B 5711  -0.090   2.401   9.980 -1.4975  4.1716  0.0547
   44CHL1   C20 5712  -0.000   2.821   9.089 -0.1974  1.2996 -0.4972
   44CHL1   H20 5713  -0.109   2.844   9.088 -0.1877  1.3646 -0.2299
   44CHL1   C21 5714   0.033   2.675   9.038  0.8306 -0.5356 -0.0919
   44CHL1  H21A 5715   0.138   2.642   9.047  1.1325  0.4177 -0.0254
   44CHL1  H21B 5716  -0.002   2.656   8.935 -1.0626  1.5252  0.0800
   44CHL1  H21C 5717  -0.028   2.620   9.113  0.2505  0.4626  0.2003
   44CHL1   C22 5718   0.076   2.919   8.994 -0.5054 -0.6368 -0.1591
   44CHL1  H22A 5719   0.085   3.021   9.039 -0.5922 -0.7926  0.2179
   44CHL1  H22B 5720   0.177   2.881   8.968  0.4748  2.6424 -1.6713
   44CHL1   C23 5721  -0.004   2.933   8.861 -0.1138  0.3369  0.3363
   44CHL1  H23A 5722   0.000   2.833   8.812  2.1029 -0.3550  1.7771
   44CHL1  H23B 5723  -0.112   2.952   8.873 -0.1782  1.1681 -1.2680
   44CHL1   C24 5724   0.060   3.042   8.772 -0.0889  0.6566  0.5213
   44CHL1  H24A 5725  -0.011   3.069   8.690  1.7110 -1.0122 -1.7057
   44CHL1  H24B 5726   0.070   3.138   8.828 -1.3770  1.3618 -0.3934
   44CHL1   C25 5727   0.208   3.031   8.722  0.1255 -0.1439  0.1838
   44CHL1   H25 5728   0.274   3.049   8.810  1.2838  1.9371 -1.0375
   44CHL1   C26 5729   0.238   2.895   8.656 -0.7043  0.3195 -0.0318
   44CHL1  H26A 5730   0.189   2.816   8.718  1.9924  0.3523  2.3179
   44CHL1  H26B 5731   0.183   2.901   8.559  0.3960  0.0433 -0.6863
   44CHL1  H26C 5732   0.346   2.874   8.646 -0.9538 -2.8946  2.4491
   44CHL1   C27 5733   0.249   3.150   8.633  0.0425 -0.0260  1.1994
   44CHL1  H27A 5734   0.234   3.250   8.678  2.4822  0.7711  0.4192
   44CHL1  H27B 5735   0.359   3.157   8.619 -0.0292  0.8623  1.0358
   44CHL1  H27C 5736   0.191   3.142   8.538 -0.6100  1.0569  1.4980
   45CHL1    C3 5737   4.449   6.651  10.109 -0.3836 -0.2161 -0.1955
   45CHL1    H3 5738   4.512   6.716  10.172 -1.8181  0.2809  0.7789
   45CHL1    O3 5739   4.401   6.541  10.189  0.1123  0.1202  0.1233
   45CHL1   H3' 5740   4.451   6.544  10.271  0.0803  2.8976  0.1237
   45CHL1    C4 5741   4.328   6.739  10.061  0.3871  0.1687  0.6100
   45CHL1   H4A 5742   4.251   6.663  10.036  0.4862  0.1919  0.2361
   45CHL1   H4B 5743   4.287   6.789  10.152 -1.8379  1.3212 -0.9379
   45CHL1    C5 5744   4.359   6.837   9.946 -0.0820 -0.5605 -0.2420
   45CHL1    C6 5745   4.333   6.969   9.970  0.5889 -0.0894 -0.2451
   45CHL1    H6 5746   4.263   7.000  10.048 -0.7865  0.5517 -1.6823
   45CHL1    C7 5747   4.387   7.084   9.881  0.4784 -0.1983  0.4637
   45CHL1   H7A 5748   4.309   7.161   9.897 -1.6571 -2.4298  1.4742
   45CHL1   H7B 5749   4.480   7.130   9.920  0.2972  0.8250 -0.2555
   45CHL1    C8 5750   4.409   7.037   9.737  0.1210  0.2545  0.1219
   45CHL1    H8 5751   4.478   7.111   9.692  0.1047  1.3165  1.7647
   45CHL1   C14 5752   4.286   7.036   9.639  0.4017  0.1594  0.9299
   45CHL1   H14 5753   4.214   6.969   9.690 -0.2759  0.2565  0.1227
   45CHL1   C15 5754   4.218   7.177   9.621 -0.5323  0.4007 -0.2257
   45CHL1  H15A 5755   4.111   7.157   9.596 -0.4380 -0.0680 -0.2640
   45CHL1  H15B 5756   4.228   7.238   9.713 -1.4884  0.5162 -0.1814
   45CHL1   C16 5757   4.276   7.248   9.496 -0.1847  0.4076  0.1067
   45CHL1  H16A 5758   4.194   7.294   9.437 -0.0477  0.8815  0.2875
   45CHL1  H16B 5759   4.349   7.326   9.526 -1.2281  1.9579 -1.2123
   45CHL1   C17 5760   4.364   7.134   9.429 -0.4096  0.4398  0.5456
   45CHL1   H17 5761   4.468   7.145   9.465  0.0981  0.3829 -0.8447
   45CHL1   C13 5762   4.321   7.004   9.489  1.3540  0.1818  0.1007
   45CHL1   C18 5763   4.197   6.953   9.435  0.0967  0.0287 -0.2499
   45CHL1  H18A 5764   4.221   6.897   9.342  1.7484 -0.2253  0.3000
   45CHL1  H18B 5765   4.153   6.871   9.497 -0.2983  1.5626  1.5805
   45CHL1  H18C 5766   4.121   7.034   9.426 -0.6959 -0.7084 -0.3543
   45CHL1   C12 5767   4.421   6.886   9.487  0.1667  0.4057  0.4315
   45CHL1  H12A 5768   4.375   6.788   9.511  2.0245 -0.9485 -1.2159
   45CHL1  H12B 5769   4.457   6.880   9.382 -0.5655 -2.6890  0.2729
   45CHL1   C11 5770   4.536   6.871   9.588 -0.0190 -0.2468 -0.3021
   45CHL1  H11A 5771   4.589   6.774   9.573 -0.0472 -0.0628 -1.6794
   45CHL1  H11B 5772   4.615   6.943   9.557 -0.3098  0.0173 -0.4337
   45CHL1    C9 5773   4.483   6.902   9.733 -0.3760 -0.2963  0.5377
   45CHL1    H9 5774   4.579   6.928   9.783 -0.7822  1.4367  0.4951
   45CHL1   C10 5775   4.441   6.784   9.827  1.7585 -0.0337  0.3061
   45CHL1   C19 5776   4.339   6.692   9.752 -0.1412  0.8181  0.3064
   45CHL1  H19A 5777   4.286   6.627   9.825 -2.3598  2.5944  0.3670
   45CHL1  H19B 5778   4.264   6.747   9.692 -0.6981 -1.2368 -0.9753
   45CHL1  H19C 5779   4.399   6.623   9.688 -0.0612 -0.2507  1.5052
   45CHL1    C1 5780   4.562   6.702   9.883 -0.8151  0.1234  0.5558
   45CHL1   H1A 5781   4.614   6.649   9.800 -1.1364  2.7676 -1.4495
   45CHL1   H1B 5782   4.643   6.769   9.918  0.6745 -1.0124 -0.5582
   45CHL1    C2 5783   4.527   6.591   9.986  0.4173  0.3172 -1.3565
   45CHL1   H2A 5784   4.618   6.538  10.022 -1.4741 -1.7373  0.7210
   45CHL1   H2B 5785   4.456   6.521   9.937 -0.8193  0.9721 -0.5483
   45CHL1   C20 5786   4.381   7.144   9.274  0.1315 -0.3612  0.0151
   45CHL1   H20 5787   4.424   7.047   9.240  0.6939 -0.3886  0.7856
   45CHL1   C21 5788   4.482   7.263   9.249  0.1884  0.6024 -0.0876
   45CHL1  H21A 5789   4.513   7.263   9.142 -0.6673  1.9329 -0.3576
   45CHL1  H21B 5790   4.578   7.240   9.300  1.9047  2.2403 -2.4038
   45CHL1  H21C 5791   4.454   7.361   9.291  2.3938  1.8299 -1.2915
   45CHL1   C22 5792   4.244   7.172   9.205  0.8728  0.0405 -0.8369
   45CHL1  H22A 5793   4.168   7.094   9.229 -0.1145  0.9612 -0.9042
   45CHL1  H22B 5794   4.195   7.267   9.233 -0.4699 -0.5740 -0.9925
   45CHL1   C23 5795   4.251   7.170   9.057  0.2037 -0.2331 -0.3342
   45CHL1  H23A 5796   4.293   7.270   9.030  0.1219  0.5674  2.2032
   45CHL1  H23B 5797   4.316   7.089   9.019  0.8485 -0.2093  0.6631
   45CHL1   C24 5798   4.111   7.150   9.000  0.0195 -0.0647  0.4219
   45CHL1  H24A 5799   4.081   7.046   9.026  1.2694 -1.2522 -2.4880
   45CHL1  H24B 5800   4.035   7.220   9.041 -3.1084 -0.6386 -3.8260
   45CHL1   C25 5801   4.111   7.163   8.850 -0.4755  0.1216 -0.1775
   45CHL1   H25 5802   4.172   7.249   8.814 -1.5890  0.6656 -0.8384
   45CHL1   C26 5803   4.160   7.034   8.775  0.5867 -0.2443 -0.4424
   45CHL1  H26A 5804   4.155   7.036   8.664 -1.2733  1.6527 -0.3907
   45CHL1  H26B 5805   4.264   7.013   8.808  1.5230 -0.3749 -3.2469
   45CHL1  H26C 5806   4.099   6.953   8.820 -0.5726  1.6652  1.6615
   45CHL1   C27 5807   3.972   7.194   8.796 -0.2092  0.8640 -0.3483
   45CHL1  H27A 5808   3.966   7.234   8.692  2.1154  2.9646  0.2141
   45CHL1  H27B 5809   3.904   7.107   8.806 -0.0715  0.9159  1.3114
   45CHL1  H27C 5810   3.928   7.280   8.851  3.2420  0.6520  3.1759
   46CHL1    C3 5811   1.135   5.229   9.978 -0.7239  0.3895  0.5179
   46CHL1    H3 5812   1.034   5.192  10.005 -1.0089  0.5307 -0.3246
   46CHL1    O3 5813   1.208   5.260  10.091 -0.5282  0.1890  0.3549
   46CHL1   H3' 5814   1.292   5.303  10.073 -0.1202  0.0106  1.7657
   46CHL1    C4 5815   1.196   5.119   9.888 -0.4598 -0.1863  0.1411
   46CHL1   H4A 5816   1.302   5.150   9.882 -0.3077 -0.1411  2.2621
   46CHL1   H4B 5817   1.193   5.026   9.949 -2.6111  1.0284  2.0206
   46CHL1    C5 5818   1.118   5.112   9.754 -0.6713 -0.1627 -0.6504
   46CHL1    C6 5819   1.080   4.998   9.708 -0.1909 -0.4283 -0.3059
   46CHL1    H6 5820   1.108   4.907   9.763 -0.4149  0.0747  0.6606
   46CHL1    C7 5821   0.997   4.980   9.590 -0.0353  0.1058 -0.5309
   46CHL1   H7A 5822   1.040   4.894   9.535  0.1144 -1.0236  1.2446
   46CHL1   H7B 5823   0.894   4.957   9.626  0.3299  0.4085  0.7808
   46CHL1    C8 5824   0.999   5.103   9.494  1.0382 -0.3676  0.6368
   46CHL1    H8 5825   1.100   5.101   9.447  0.1984  1.6327 -1.4551
   46CHL1   C14 5826   0.900   5.096   9.380  0.2814 -0.1440 -0.3705
   46CHL1   H14 5827   0.800   5.102   9.428 -0.7252  0.5604 -2.4224
   46CHL1   C15 5828   0.904   4.976   9.291  0.0842 -0.3156  0.8136
   46CHL1  H15A 5829   1.014   4.963   9.282  0.4929  2.5264  0.4971
   46CHL1  H15B 5830   0.857   4.893   9.347 -1.3417  0.8178  1.3474
   46CHL1   C16 5831   0.835   5.015   9.162  0.2361  0.2557 -0.5708
   46CHL1  H16A 5832   0.902   4.993   9.075 -0.3620 -0.6901 -0.8120
   46CHL1  H16B 5833   0.744   4.955   9.140  0.5359 -1.0711  1.5475
   46CHL1   C17 5834   0.809   5.165   9.180 -0.5589  0.3457 -0.6221
   46CHL1   H17 5835   0.712   5.160   9.234 -0.3203 -0.8855 -0.2746
   46CHL1   C13 5836   0.909   5.213   9.288  0.4899 -0.2038 -0.0407
   46CHL1   C18 5837   1.048   5.238   9.219  0.3060  0.0950  0.1523
   46CHL1  H18A 5838   1.081   5.154   9.154 -3.6540  1.0553 -3.5090
   46CHL1  H18B 5839   1.032   5.331   9.160 -2.5624 -0.0845  0.5092
   46CHL1  H18C 5840   1.127   5.257   9.295  1.0090 -0.7038 -0.3580
   46CHL1   C12 5841   0.865   5.333   9.364  0.3840 -0.5661 -0.8586
   46CHL1  H12A 5842   0.842   5.429   9.313  0.3888 -0.2181 -0.2106
   46CHL1  H12B 5843   0.764   5.308   9.404  0.3151 -1.8772 -1.7668
   46CHL1   C11 5844   0.961   5.359   9.479  0.3215  0.5468 -0.0347
   46CHL1  H11A 5845   1.055   5.389   9.429  1.2568 -1.4065  0.4155
   46CHL1  H11B 5846   0.930   5.451   9.533 -3.0519 -1.0515  1.0346
   46CHL1    C9 5847   0.983   5.233   9.570 -0.1324 -0.1267 -0.1687
   46CHL1    H9 5848   0.884   5.232   9.621 -0.2115 -1.5054 -0.3241
   46CHL1   C10 5849   1.091   5.242   9.680 -0.4367  0.4531  0.7053
   46CHL1   C19 5850   1.221   5.293   9.616  0.2530  0.3581  0.0566
   46CHL1  H19A 5851   1.303   5.305   9.691  1.4949  1.9603 -1.4801
   46CHL1  H19B 5852   1.263   5.221   9.543 -1.3888 -0.6367  0.0537
   46CHL1  H19C 5853   1.220   5.391   9.564  1.0236 -0.4415 -1.5271
   46CHL1    C1 5854   1.036   5.349   9.782  0.2495  0.3308  0.6220
   46CHL1   H1A 5855   1.035   5.449   9.734 -0.5247 -0.3985 -0.9624
   46CHL1   H1B 5856   0.929   5.329   9.802  0.4496 -1.9382 -0.2975
   46CHL1    C2 5857   1.111   5.363   9.911 -0.2109  0.1397  0.4575
   46CHL1   H2A 5858   1.060   5.435   9.978 -2.3374  0.7077 -1.6344
   46CHL1   H2B 5859   1.205   5.411   9.876  0.6780 -1.2353  0.8869
   46CHL1   C20 5860   0.782   5.247   9.052  0.9615  0.0055  0.0761
   46CHL1   H20 5861   0.787   5.349   9.095 -2.2153  0.3968 -0.1792
   46CHL1   C21 5862   0.630   5.221   9.014  0.2696 -0.4106  0.9493
   46CHL1  H21A 5863   0.608   5.290   8.929 -0.0186 -2.1437 -0.4276
   46CHL1  H21B 5864   0.566   5.255   9.098 -2.8477 -0.0292 -1.3774
   46CHL1  H21C 5865   0.609   5.122   8.968  5.2480 -0.6193 -1.6105
   46CHL1   C22 5866   0.879   5.234   8.933 -0.0585 -0.4793  0.4105
   46CHL1  H22A 5867   0.975   5.240   8.988 -0.6472  0.3655  1.3938
   46CHL1  H22B 5868   0.867   5.131   8.894  2.6813 -1.1810  1.2324
   46CHL1   C23 5869   0.871   5.335   8.814  0.9713 -0.4516 -0.2245
   46CHL1  H23A 5870   0.773   5.322   8.763  1.2076 -2.1704 -0.3127
   46CHL1  H23B 5871   0.874   5.436   8.860  0.6405 -0.8987  0.8015
   46CHL1   C24 5872   0.985   5.318   8.713  0.3134  0.1543  0.3462
   46CHL1  H24A 5873   1.076   5.322   8.776  1.1268  2.0336 -0.8759
   46CHL1  H24B 5874   0.983   5.223   8.655  0.0860  1.0768 -1.2250
   46CHL1   C25 5875   1.001   5.414   8.591  0.1870 -0.4030  0.1625
   46CHL1   H25 5876   1.105   5.401   8.553  0.6744  0.8802  0.9734
   46CHL1   C26 5877   0.889   5.383   8.486 -0.1058 -0.1175 -0.6395
   46CHL1  H26A 5878   0.789   5.420   8.517 -0.2512 -2.0544  1.5446
   46CHL1  H26B 5879   0.924   5.421   8.388  6.4161 -1.7828  0.5776
   46CHL1  H26C 5880   0.880   5.272   8.483  1.3773 -0.3468  1.0628
   46CHL1   C27 5881   0.990   5.563   8.627  0.7729  1.1296  0.4186
   46CHL1  H27A 5882   1.079   5.609   8.674  0.2623  2.6428 -0.0278
   46CHL1  H27B 5883   0.959   5.623   8.539  2.5922  4.0851  1.6333
   46CHL1  H27C 5884   0.899   5.580   8.689 -2.3767  1.0225 -3.7195
   47CHL1    C3 5885   2.040   1.032   9.907  0.8116 -0.1698 -0.1404
   47CHL1    H3 5886   1.989   0.938   9.875  2.8218 -0.8094 -1.6966
   47CHL1    O3 5887   2.056   1.031  10.047 -0.1368 -0.1658 -0.1486
   47CHL1   H3' 5888   1.969   1.000  10.073 -0.8144 -0.6360 -2.7088
   47CHL1    C4 5889   2.182   1.036   9.841  0.1798 -0.0792  0.7764
   47CHL1   H4A 5890   2.237   1.126   9.876  2.6786 -0.7869 -1.0584
   47CHL1   H4B 5891   2.236   0.944   9.870  0.0499 -0.7779 -1.0997
   47CHL1    C5 5892   2.170   1.047   9.692  0.0335  0.0814 -0.2627
   47CHL1    C6 5893   2.209   0.950   9.614 -0.2795  0.5881  0.0545
   47CHL1    H6 5894   2.260   0.864   9.660 -0.8714  1.7017  3.0124
   47CHL1    C7 5895   2.219   0.946   9.465  0.0575 -0.4234 -0.2667
   47CHL1   H7A 5896   2.322   0.927   9.426 -0.7029 -0.9033 -2.2055
   47CHL1   H7B 5897   2.162   0.863   9.418  1.0026 -0.9926 -0.4601
   47CHL1    C8 5898   2.175   1.073   9.401 -0.0994 -0.8313  0.3269
   47CHL1    H8 5899   2.256   1.149   9.411 -1.4614  0.8389 -0.6820
   47CHL1   C14 5900   2.136   1.051   9.260  0.9161  0.5863  0.4613
   47CHL1   H14 5901   2.049   0.982   9.255  0.8625  0.7045 -3.2001
   47CHL1   C15 5902   2.235   0.985   9.169 -0.3383 -0.8371 -0.1456
   47CHL1  H15A 5903   2.335   1.032   9.188  0.0522 -2.8699  3.9556
   47CHL1  H15B 5904   2.244   0.876   9.187 -1.1027 -0.9122 -0.1839
   47CHL1   C16 5905   2.175   1.016   9.028  0.1643 -0.0144  0.4249
   47CHL1  H16A 5906   2.243   1.064   8.955 -1.8235 -0.6706 -1.9917
   47CHL1  H16B 5907   2.156   0.921   8.975  0.3738  1.0687 -1.7127
   47CHL1   C17 5908   2.050   1.102   9.045 -0.4848  0.2675 -0.0421
   47CHL1   H17 5909   1.957   1.045   9.059 -0.7727  1.3638  3.3408
   47CHL1   C13 5910   2.071   1.167   9.183 -0.5987  0.5423 -0.2873
   47CHL1   C18 5911   2.183   1.280   9.160 -0.7021 -0.2048 -0.1646
   47CHL1  H18A 5912   2.273   1.238   9.112  0.8462  1.9581  0.6905
   47CHL1  H18B 5913   2.135   1.368   9.112  1.1774  1.0645  0.2011
   47CHL1  H18C 5914   2.217   1.309   9.262 -0.1743  2.4497 -1.0206
   47CHL1   C12 5915   1.942   1.197   9.261  0.3652  0.1143 -0.0518
   47CHL1  H12A 5916   1.880   1.277   9.214 -0.5716 -1.5339 -1.7361
   47CHL1  H12B 5917   1.876   1.109   9.265 -1.0450  1.1787  1.0724
   47CHL1   C11 5918   1.976   1.242   9.400 -0.0028 -0.2621 -0.4283
   47CHL1  H11A 5919   2.036   1.335   9.413  0.2422 -0.6292  1.2171
   47CHL1  H11B 5920   1.882   1.270   9.452  0.0965  2.4741 -1.5393
   47CHL1    C9 5921   2.048   1.128   9.480  0.8781  0.4360  0.8491
   47CHL1    H9 5922   1.973   1.046   9.471 -0.1488  1.5514 -1.6429
   47CHL1   C10 5923   2.087   1.157   9.629 -0.4970 -0.0914  0.2575
   47CHL1   C19 5924   2.159   1.294   9.648  0.3931  1.1143 -0.2746
   47CHL1  H19A 5925   2.087   1.378   9.635 -2.4752 -1.1870 -0.3295
   47CHL1  H19B 5926   2.205   1.307   9.748 -0.0635  1.1210 -0.0637
   47CHL1  H19C 5927   2.241   1.312   9.575  1.0489  1.1294  0.4556
   47CHL1    C1 5928   1.954   1.158   9.711  0.0536 -0.3148  0.2018
   47CHL1   H1A 5929   1.900   1.248   9.677  0.0495 -0.4056 -0.0343
   47CHL1   H1B 5930   1.902   1.064   9.680  0.4475 -0.3098 -0.5023
   47CHL1    C2 5931   1.964   1.154   9.864  0.0963 -0.3467 -0.1245
   47CHL1   H2A 5932   1.863   1.158   9.910  0.6470  0.0984  1.0746
   47CHL1   H2B 5933   2.011   1.254   9.875 -1.9915  0.7946 -0.9975
   47CHL1   C20 5934   2.030   1.190   8.929  0.0901 -0.1698  0.4913
   47CHL1   H20 5935   2.120   1.255   8.921 -0.2323  0.2810  0.4345
   47CHL1   C21 5936   1.906   1.277   8.938  0.4197  0.5411  0.0411
   47CHL1  H21A 5937   1.912   1.355   8.859  1.9472  0.2788 -0.1304
   47CHL1  H21B 5938   1.890   1.322   9.039  2.8492 -2.2863  1.8400
   47CHL1  H21C 5939   1.817   1.212   8.923  1.1291 -0.8279  1.4688
   47CHL1   C22 5940   2.028   1.119   8.789 -0.0890  0.7303 -0.3198
   47CHL1  H22A 5941   2.130   1.084   8.765  0.5024  1.3971  1.0827
   47CHL1  H22B 5942   1.957   1.033   8.789  1.7458 -0.8544 -0.8889
   47CHL1   C23 5943   1.985   1.199   8.672 -0.2534 -0.1490 -0.6407
   47CHL1  H23A 5944   1.875   1.215   8.668 -0.2277  0.0782 -0.4243
   47CHL1  H23B 5945   2.026   1.302   8.677  0.0555 -0.2208 -1.5915
   47CHL1   C24 5946   2.020   1.127   8.539  0.1431 -0.3589  0.3035
   47CHL1  H24A 5947   2.127   1.103   8.525  0.4637  1.3588 -0.4510
   47CHL1  H24B 5948   1.970   1.029   8.551  0.5731 -0.4551  1.5545
   47CHL1   C25 5949   1.975   1.205   8.415  0.6107 -0.5120 -0.0722
   47CHL1   H25 5950   1.866   1.226   8.413  0.7873  0.4334 -1.5771
   47CHL1   C26 5951   2.044   1.345   8.414 -0.2396 -0.2408 -0.1150
   47CHL1  H26A 5952   2.043   1.391   8.313 -0.2141 -2.1530 -1.0245
   47CHL1  H26B 5953   2.150   1.320   8.433 -0.5466 -2.0280 -0.5707
   47CHL1  H26C 5954   2.003   1.415   8.490  1.8270  0.4910  0.3838
   47CHL1   C27 5955   2.005   1.128   8.286 -0.0235  0.6007 -0.0720
   47CHL1  H27A 5956   1.939   1.039   8.296  1.4365 -0.3087  2.7085
   47CHL1  H27B 5957   1.978   1.190   8.199  0.7610 -1.2041 -1.6767
   47CHL1  H27C 5958   2.114   1.108   8.273 -0.1157  0.5876 -0.8823
   48CHL1    C3 5959   1.146   1.599   9.936 -0.0500  0.3258 -0.0030
   48CHL1    H3 5960   1.216   1.684   9.923  0.5154 -0.4284 -2.3911
   48CHL1    O3 5961   1.134   1.573  10.075 -0.1847  0.3553  0.2130
   48CHL1   H3' 5962   1.138   1.655  10.124  0.8801 -0.2994  1.3074
   48CHL1    C4 5963   1.005   1.626   9.879 -0.6713 -0.4708  0.4440
   48CHL1   H4A 5964   0.944   1.539   9.912  0.2492 -0.4668  2.2613
   48CHL1   H4B 5965   0.964   1.715   9.931  1.7902  0.1831  1.3803
   48CHL1    C5 5966   1.024   1.647   9.727 -0.9423  0.6463  0.0274
   48CHL1    C6 5967   0.994   1.768   9.668  0.4356  0.3349 -0.2888
   48CHL1    H6 5968   0.958   1.853   9.728 -0.8616  0.4379 -1.1729
   48CHL1    C7 5969   0.989   1.778   9.515 -0.2630 -0.8509 -0.5940
   48CHL1   H7A 5970   0.893   1.830   9.494 -0.2173 -1.1665 -1.6248
   48CHL1   H7B 5971   1.076   1.841   9.490  1.6664 -2.8876  0.5663
   48CHL1    C8 5972   1.005   1.643   9.443 -0.5456  0.3096  0.6239
   48CHL1    H8 5973   0.904   1.598   9.446  0.4067 -1.9249  2.4160
   48CHL1   C14 5974   1.055   1.673   9.297 -0.8351  0.3481 -0.1145
   48CHL1   H14 5975   1.158   1.708   9.318 -0.4110 -2.2529  3.0309
   48CHL1   C15 5976   0.999   1.786   9.212 -0.6193 -0.2372 -0.2242
   48CHL1  H15A 5977   0.890   1.779   9.236 -0.4529 -1.1651  0.3074
   48CHL1  H15B 5978   1.050   1.881   9.235 -0.5584 -0.2492 -0.3100
   48CHL1   C16 5979   1.031   1.753   9.066  0.0033  0.4693 -0.6263
   48CHL1  H16A 5980   0.936   1.744   9.009  0.0889 -0.6187 -0.6035
   48CHL1  H16B 5981   1.082   1.835   9.010 -0.7364  1.0080 -0.5364
   48CHL1   C17 5982   1.108   1.618   9.067 -0.4514 -0.3555  0.2096
   48CHL1   H17 5983   1.213   1.651   9.077 -0.5738 -0.1123  0.7444
   48CHL1   C13 5984   1.067   1.548   9.205  0.6931 -0.3857  0.5271
   48CHL1   C18 5985   0.928   1.482   9.174 -0.8877  0.0459 -0.0451
   48CHL1  H18A 5986   0.853   1.555   9.138  1.3414  1.1327 -2.8057
   48CHL1  H18B 5987   0.932   1.398   9.101 -2.9737  0.4177 -0.6545
   48CHL1  H18C 5988   0.891   1.446   9.273  0.8251 -0.1682  0.5690
   48CHL1   C12 5989   1.162   1.447   9.275  0.2658 -0.2018  0.1443
   48CHL1  H12A 5990   1.170   1.352   9.219  0.2734  0.0839 -0.3484
   48CHL1  H12B 5991   1.265   1.488   9.274  0.8860 -1.6549 -1.7578
   48CHL1   C11 5992   1.120   1.416   9.419 -0.0385 -0.1285 -0.2144
   48CHL1  H11A 5993   1.025   1.360   9.432 -0.7274  1.1246  0.3344
   48CHL1  H11B 5994   1.194   1.347   9.464  0.3380 -0.7421 -1.7197
   48CHL1    C9 5995   1.101   1.541   9.504 -0.1080  0.9259  0.5196
   48CHL1    H9 5996   1.199   1.591   9.514  0.7168 -0.4588 -0.2901
   48CHL1   C10 5997   1.065   1.515   9.653  0.1188 -0.4851  0.8760
   48CHL1   C19 5998   0.942   1.416   9.672 -0.1596  0.8348  0.8008
   48CHL1  H19A 5999   0.919   1.401   9.779 -0.4844  2.7260  1.0195
   48CHL1  H19B 6000   0.845   1.452   9.630  1.0006  0.4928 -2.4280
   48CHL1  H19C 6001   0.974   1.318   9.630 -0.8156  0.4309  1.2189
   48CHL1    C1 6002   1.198   1.466   9.721 -0.3521 -0.2982  0.7868
   48CHL1   H1A 6003   1.229   1.374   9.667  2.9443  1.3263 -0.4152
   48CHL1   H1B 6004   1.272   1.540   9.683 -2.1537  0.2749 -1.9024
   48CHL1    C2 6005   1.208   1.467   9.874 -0.4047 -0.2215  0.0210
   48CHL1   H2A 6006   1.308   1.458   9.922  0.9926 -0.1369 -2.6472
   48CHL1   H2B 6007   1.141   1.384   9.906  0.2842 -1.2904 -1.2027
   48CHL1   C20 6008   1.113   1.548   8.928  0.2170  0.0633 -0.4119
   48CHL1   H20 6009   1.009   1.517   8.905 -0.1070  0.8032  0.0111
   48CHL1   C21 6010   1.191   1.426   8.948 -0.7369  1.0228  0.6510
   48CHL1  H21A 6011   1.135   1.358   9.016 -0.9871  0.1671 -0.3837
   48CHL1  H21B 6012   1.292   1.445   8.988 -0.6383 -1.1713  1.5712
   48CHL1  H21C 6013   1.198   1.372   8.852 -2.0328 -0.6969  1.4728
   48CHL1   C22 6014   1.168   1.631   8.812  0.4320 -0.1100 -0.7295
   48CHL1  H22A 6015   1.103   1.720   8.812  1.4328  0.6482  0.1256
   48CHL1  H22B 6016   1.268   1.676   8.830 -0.0349  0.5972  0.2163
   48CHL1   C23 6017   1.179   1.571   8.678  0.4916  0.0705  0.8134
   48CHL1  H23A 6018   1.271   1.510   8.670  0.0985 -0.3219 -1.5140
   48CHL1  H23B 6019   1.088   1.507   8.678 -0.9663  1.9743 -0.9832
   48CHL1   C24 6020   1.171   1.676   8.569 -0.0126 -0.1386 -0.1572
   48CHL1  H24A 6021   1.064   1.705   8.560  0.7567  3.0305 -0.2613
   48CHL1  H24B 6022   1.222   1.768   8.605  0.4916 -1.2248  2.0469
   48CHL1   C25 6023   1.217   1.636   8.429  0.1130 -0.2331 -0.0272
   48CHL1   H25 6024   1.323   1.606   8.439 -0.0469 -1.4491 -1.5923
   48CHL1   C26 6025   1.144   1.504   8.386  0.2580  0.1498 -0.0506
   48CHL1  H26A 6026   1.033   1.510   8.399  0.3524 -1.7529  2.0846
   48CHL1  H26B 6027   1.171   1.478   8.281 -1.1053 -1.0362 -0.1424
   48CHL1  H26C 6028   1.176   1.415   8.444 -0.4446 -0.9286 -1.2608
   48CHL1   C27 6029   1.215   1.752   8.333 -0.2510 -0.2252  0.2514
   48CHL1  H27A 6030   1.295   1.826   8.353 -0.5359  0.0743  0.2914
   48CHL1  H27B 6031   1.222   1.717   8.227 -0.9812 -0.6832  0.3455
   48CHL1  H27C 6032   1.122   1.812   8.340  0.7381  1.5494 -0.9592
   49CHL1    C3 6033   6.705   6.171  10.079  0.2802  0.2150 -0.2004
   49CHL1    H3 6034   6.807   6.211  10.060  1.2302 -1.6909  0.6351
   49CHL1    O3 6035   6.693   6.159  10.222  0.5391 -0.5484 -0.2406
   49CHL1   H3' 6036   6.735   6.234  10.264 -0.5817 -0.9501  1.7082
   49CHL1    C4 6037   6.601   6.276  10.028  0.3308  1.0138 -0.1572
   49CHL1   H4A 6038   6.497   6.244  10.053  0.8175 -1.9209 -1.5249
   49CHL1   H4B 6039   6.626   6.367  10.087  0.3900  0.2759  0.9830
   49CHL1    C5 6040   6.608   6.296   9.878  1.0438  0.1989  0.2456
   49CHL1    C6 6041   6.625   6.415   9.827 -0.4035 -0.6052  0.1833
   49CHL1    H6 6042   6.622   6.500   9.897  0.1913 -0.5394  0.1308
   49CHL1    C7 6043   6.645   6.446   9.678  0.2425  0.2569  0.3721
   49CHL1   H7A 6044   6.591   6.532   9.635  0.1170 -1.1596 -2.5545
   49CHL1   H7B 6045   6.752   6.460   9.650  0.1423  0.2694 -0.0021
   49CHL1    C8 6046   6.596   6.323   9.593 -0.0671  0.3129 -0.3609
   49CHL1    H8 6047   6.485   6.328   9.591 -0.0566  0.4976 -0.5509
   49CHL1   C14 6048   6.638   6.348   9.445  0.5410 -0.2339 -0.1041
   49CHL1   H14 6049   6.747   6.333   9.461  0.3506  0.4861  2.2878
   49CHL1   C15 6050   6.607   6.468   9.370 -0.6913 -0.0244 -0.0682
   49CHL1  H15A 6051   6.498   6.491   9.368 -0.5965  0.5760  1.0480
   49CHL1  H15B 6052   6.658   6.559   9.410  0.0498  0.1714 -1.3936
   49CHL1   C16 6053   6.662   6.445   9.229  0.4607  0.1748  0.4779
   49CHL1  H16A 6054   6.590   6.480   9.151  1.5451  0.0909 -0.5979
   49CHL1  H16B 6055   6.757   6.499   9.211 -1.5280  4.2153  1.0522
   49CHL1   C17 6056   6.680   6.293   9.220  0.6730  0.6796  0.1586
   49CHL1   H17 6057   6.787   6.267   9.234  0.6992 -0.3234 -1.5915
   49CHL1   C13 6058   6.610   6.233   9.351 -0.8000  0.8055  0.4596
   49CHL1   C18 6059   6.462   6.210   9.339  0.6219  0.6773 -0.3067
   49CHL1  H18A 6060   6.419   6.280   9.264 -1.5321 -0.2891 -0.0606
   49CHL1  H18B 6061   6.442   6.109   9.299 -1.0736  1.1041 -0.6067
   49CHL1  H18C 6062   6.413   6.221   9.439  0.8832 -0.3008 -0.0661
   49CHL1   C12 6063   6.680   6.107   9.409  0.2185  0.6528 -0.6169
   49CHL1  H12A 6064   6.664   6.023   9.338 -1.2376 -1.9876  2.5889
   49CHL1  H12B 6065   6.789   6.125   9.411  0.2388  0.6485 -1.3582
   49CHL1   C11 6066   6.633   6.076   9.551 -0.2366 -0.9461 -0.2990
   49CHL1  H11A 6067   6.526   6.048   9.541  0.0042 -1.6051 -1.1727
   49CHL1  H11B 6068   6.688   5.987   9.589 -1.1444 -0.9619  1.0578
   49CHL1    C9 6069   6.649   6.192   9.649 -0.3224 -0.3146  0.3261
   49CHL1    H9 6070   6.758   6.217   9.653 -0.4075 -0.0572  1.3677
   49CHL1   C10 6071   6.612   6.165   9.797  0.2513  0.0610 -0.0114
   49CHL1   C19 6072   6.468   6.111   9.799 -0.1200 -0.4946 -0.3877
   49CHL1  H19A 6073   6.427   6.106   9.902 -2.2235  3.1028 -0.8691
   49CHL1  H19B 6074   6.398   6.171   9.738  1.6151 -0.4152 -2.4200
   49CHL1  H19C 6075   6.459   6.009   9.756  0.4375 -0.1999 -1.2148
   49CHL1    C1 6076   6.708   6.056   9.854  0.7542 -0.3974 -0.8045
   49CHL1   H1A 6077   6.698   5.954   9.812 -0.0504 -0.8050  0.3374
   49CHL1   H1B 6078   6.814   6.088   9.842  1.2509 -1.6901 -0.0444
   49CHL1    C2 6079   6.683   6.037  10.001  0.4281  0.1960 -0.2112
   49CHL1   H2A 6080   6.759   5.965  10.037  1.7577  2.1100  0.9746
   49CHL1   H2B 6081   6.586   5.994  10.033 -1.3735  1.4757 -3.4598
   49CHL1   C20 6082   6.647   6.225   9.085  0.3173  0.1282 -0.3243
   49CHL1   H20 6083   6.538   6.241   9.070  0.1391  0.9427  1.5646
   49CHL1   C21 6084   6.671   6.072   9.080  0.2766 -0.7250  0.2585
   49CHL1  H21A 6085   6.779   6.057   9.104  0.5743  1.8641  0.7754
   49CHL1  H21B 6086   6.651   6.037   8.976  1.1257  0.3249 -0.2855
   49CHL1  H21C 6087   6.605   6.017   9.150  1.5193 -2.2198  0.3180
   49CHL1   C22 6088   6.725   6.293   8.970 -0.3584  0.1955  0.0836
   49CHL1  H22A 6089   6.758   6.398   8.986  1.0453 -0.4540  1.8176
   49CHL1  H22B 6090   6.826   6.249   8.960  0.3473  1.4522  1.3154
   49CHL1   C23 6091   6.650   6.283   8.839 -0.8014 -0.7827 -0.2379
   49CHL1  H23A 6092   6.602   6.185   8.819 -0.9899 -1.0458  1.3095
   49CHL1  H23B 6093   6.576   6.366   8.840  1.9117  1.8248 -0.4118
   49CHL1   C24 6094   6.754   6.317   8.721  0.0393 -0.4465  0.3403
   49CHL1  H24A 6095   6.827   6.393   8.757 -1.6433  1.6643 -0.4640
   49CHL1  H24B 6096   6.813   6.228   8.690  1.3960  0.6951 -0.4518
   49CHL1   C25 6097   6.676   6.376   8.597 -0.3490  0.9975  0.5606
   49CHL1   H25 6098   6.629   6.468   8.637 -0.8389 -0.2400  3.0328
   49CHL1   C26 6099   6.758   6.420   8.478 -0.1844  0.0055  0.3730
   49CHL1  H26A 6100   6.820   6.338   8.435 -0.0076  0.2228  0.2128
   49CHL1  H26B 6101   6.688   6.448   8.396 -0.6570  2.0769  1.4097
   49CHL1  H26C 6102   6.818   6.512   8.493 -2.8043  2.2951 -2.1169
   49CHL1   C27 6103   6.573   6.274   8.544  0.1733 -0.5259  0.6319
   49CHL1  H27A 6104   6.621   6.182   8.504  0.9504  0.5005 -0.8485
   49CHL1  H27B 6105   6.497   6.244   8.620 -1.1921 -1.6115 -1.0754
   49CHL1  H27C 6106   6.523   6.325   8.459  2.6134  1.0674  0.0497
   50CHL1    C3 6107   3.842   6.162  10.322 -0.7293  0.1674  0.1992
   50CHL1    H3 6108   3.953   6.161  10.316 -0.6963 -0.1890  0.7799
   50CHL1    O3 6109   3.825   6.142  10.462 -0.3401 -0.7061 -0.6652
   50CHL1   H3' 6110   3.736   6.106  10.465  0.1972 -2.0616 -0.4878
   50CHL1    C4 6111   3.792   6.301  10.278 -0.4319  0.5632  1.4505
   50CHL1   H4A 6112   3.682   6.306  10.292 -0.6688 -0.5098  0.1073
   50CHL1   H4B 6113   3.851   6.380  10.330  0.4443  0.4367  0.6811
   50CHL1    C5 6114   3.804   6.312  10.124 -1.1050  0.2881 -0.2298
   50CHL1    C6 6115   3.874   6.418  10.079 -0.6125  0.2672  0.6553
   50CHL1    H6 6116   3.899   6.505  10.142  0.8187  0.9174 -0.7220
   50CHL1    C7 6117   3.898   6.450   9.935  0.3921  0.3236  0.7234
   50CHL1   H7A 6118   3.861   6.550   9.902 -1.5650 -1.2893 -2.4343
   50CHL1   H7B 6119   4.007   6.440   9.915  0.1589 -3.1987  0.6324
   50CHL1    C8 6120   3.828   6.349   9.835  0.1280 -0.5947  0.1424
   50CHL1    H8 6121   3.720   6.374   9.830  0.2068 -0.3519 -0.4021
   50CHL1   C14 6122   3.887   6.367   9.696 -0.1450  0.0073 -0.0745
   50CHL1   H14 6123   3.998   6.356   9.705  0.7072  4.9851 -1.7995
   50CHL1   C15 6124   3.879   6.501   9.623  0.4177 -0.8573 -0.4019
   50CHL1  H15A 6125   3.775   6.539   9.631  0.6643  0.1168 -1.5570
   50CHL1  H15B 6126   3.947   6.580   9.662 -0.8056 -1.3131  3.0608
   50CHL1   C16 6127   3.920   6.476   9.479 -0.4492  0.0351  0.1778
   50CHL1  H16A 6128   3.855   6.524   9.403 -0.4424  1.1414  0.8329
   50CHL1  H16B 6129   4.027   6.505   9.474 -0.6162  1.2103  2.1173
   50CHL1   C17 6130   3.916   6.318   9.463  0.1340  0.2418  0.6144
   50CHL1   H17 6131   4.019   6.279   9.473  0.1288 -0.0546 -0.3934
   50CHL1   C13 6132   3.835   6.268   9.589  0.0959 -0.8369  0.1683
   50CHL1   C18 6133   3.681   6.276   9.558 -0.2906  0.0101 -0.3868
   50CHL1  H18A 6134   3.637   6.225   9.470 -3.1212  0.3818  0.6993
   50CHL1  H18B 6135   3.629   6.238   9.650  2.6057 -1.1579  0.8807
   50CHL1  H18C 6136   3.646   6.381   9.548 -1.1861 -0.1515  0.7200
   50CHL1   C12 6137   3.868   6.125   9.643  0.2706  0.8442 -0.0193
   50CHL1  H12A 6138   3.820   6.050   9.576 -2.5769  0.1584  2.5499
   50CHL1  H12B 6139   3.976   6.104   9.657  0.1418  0.0199 -0.2345
   50CHL1   C11 6140   3.800   6.101   9.783  0.3437  0.1203  0.5542
   50CHL1  H11A 6141   3.692   6.101   9.758  0.7794  1.1497 -1.4891
   50CHL1  H11B 6142   3.826   6.000   9.823 -0.0658 -0.0740  0.3383
   50CHL1    C9 6143   3.842   6.210   9.892 -0.4215  0.8449 -0.5290
   50CHL1    H9 6144   3.949   6.186   9.909 -0.3091  1.2659 -0.6306
   50CHL1   C10 6145   3.777   6.187  10.033  0.4353  0.0738 -0.4823
   50CHL1   C19 6146   3.621   6.178  10.012 -0.3661 -0.0348 -0.2256
   50CHL1  H19A 6147   3.565   6.166  10.107 -2.7285 -0.3816 -1.5632
   50CHL1  H19B 6148   3.589   6.270   9.958  0.0504  0.2641  0.0331
   50CHL1  H19C 6149   3.603   6.090   9.946  1.0425  0.5171 -1.3922
   50CHL1    C1 6150   3.827   6.059  10.095 -0.1505  0.2103 -0.4545
   50CHL1   H1A 6151   3.788   5.971  10.038 -2.2495  1.8409 -1.7020
   50CHL1   H1B 6152   3.937   6.054  10.085 -0.0384 -0.8699  0.9709
   50CHL1    C2 6153   3.787   6.042  10.246 -0.3127 -0.1865  0.3265
   50CHL1   H2A 6154   3.818   5.942  10.281 -0.4910 -0.6192 -0.7054
   50CHL1   H2B 6155   3.676   6.049  10.248 -0.3239  0.0462 -0.5422
   50CHL1   C20 6156   3.877   6.278   9.320  0.1531  0.6902  0.4548
   50CHL1   H20 6157   3.770   6.301   9.302 -0.1533  2.3723  3.6275
   50CHL1   C21 6158   3.894   6.123   9.302 -0.3501 -0.1183  0.6333
   50CHL1  H21A 6159   3.817   6.072   9.365 -1.5925 -0.6776 -1.2328
   50CHL1  H21B 6160   3.997   6.092   9.327 -0.5104 -0.0423  1.4256
   50CHL1  H21C 6161   3.860   6.103   9.198 -1.1693 -2.7848  1.3187
   50CHL1   C22 6162   3.959   6.348   9.205  0.0068 -0.2905  0.0704
   50CHL1  H22A 6163   3.978   6.455   9.232 -1.8241 -0.0965  0.7009
   50CHL1  H22B 6164   4.060   6.303   9.211 -0.6952 -1.8347  0.6669
   50CHL1   C23 6165   3.904   6.345   9.063 -0.2132  0.0637 -0.5827
   50CHL1  H23A 6166   3.965   6.414   9.000  1.4462 -0.1098  0.7789
   50CHL1  H23B 6167   3.916   6.247   9.012  0.5132 -0.8045  1.1605
   50CHL1   C24 6168   3.755   6.399   9.053  0.1548  0.5235 -0.3637
   50CHL1  H24A 6169   3.696   6.336   9.123  1.8300  0.5600  1.1556
   50CHL1  H24B 6170   3.760   6.498   9.103  0.2634  0.6064 -0.5399
   50CHL1   C25 6171   3.697   6.433   8.918  0.5923 -0.5781  0.1719
   50CHL1   H25 6172   3.689   6.351   8.843  0.6318  1.1331 -1.7607
   50CHL1   C26 6173   3.553   6.484   8.936  0.6423  0.3739 -0.4371
   50CHL1  H26A 6174   3.537   6.560   9.016 -3.9139 -0.1535 -0.5742
   50CHL1  H26B 6175   3.521   6.524   8.837  0.9076  3.9662  0.7665
   50CHL1  H26C 6176   3.502   6.398   8.984  0.9521  0.9990  1.0699
   50CHL1   C27 6177   3.774   6.552   8.843 -0.3937 -0.4367  0.2725
   50CHL1  H27A 6178   3.721   6.567   8.746  0.3598 -1.9200 -0.4151
   50CHL1  H27B 6179   3.775   6.645   8.903 -1.7272  0.4219 -0.9622
   50CHL1  H27C 6180   3.878   6.529   8.810 -0.5613  0.1452 -0.7289
   51CHL1    C3 6181   5.074   2.797  10.332  0.5549 -0.2163 -0.6094
   51CHL1    H3 6182   4.975   2.747  10.328  1.3979 -1.8641 -3.3071
   51CHL1    O3 6183   5.099   2.833  10.465 -0.2377  0.0574 -0.3658
   51CHL1   H3' 6184   5.193   2.832  10.484 -0.6738 -2.5221  2.3013
   51CHL1    C4 6185   5.169   2.693  10.268 -0.0074  1.0260 -0.2375
   51CHL1   H4A 6186   5.273   2.722  10.295 -0.3284  1.7690  0.2195
   51CHL1   H4B 6187   5.165   2.601  10.329  0.2772  1.4222  0.3828
   51CHL1    C5 6188   5.147   2.663  10.120 -0.0720 -0.6536  0.3557
   51CHL1    C6 6189   5.116   2.538  10.080 -0.4387 -0.4630 -0.0672
   51CHL1    H6 6190   5.116   2.454  10.151 -3.3679  0.5609  1.2769
   51CHL1    C7 6191   5.083   2.501   9.941  0.0123  0.1673  1.2280
   51CHL1   H7A 6192   5.140   2.407   9.926 -1.6057 -0.7074  0.2092
   51CHL1   H7B 6193   4.977   2.469   9.928 -0.0919  0.4628  1.3238
   51CHL1    C8 6194   5.120   2.618   9.842  0.2527  1.1368  0.2692
   51CHL1    H8 6195   5.230   2.629   9.836  0.1603  1.5363 -0.8466
   51CHL1   C14 6196   5.067   2.583   9.703  0.2263 -0.7053 -0.6852
   51CHL1   H14 6197   4.958   2.569   9.720 -0.1712  0.4476 -2.0819
   51CHL1   C15 6198   5.126   2.466   9.633  0.6174  0.3243  0.2399
   51CHL1  H15A 6199   5.236   2.480   9.642  0.7247 -0.0288 -0.4446
   51CHL1  H15B 6200   5.087   2.374   9.681  1.7961 -0.9457 -1.1148
   51CHL1   C16 6201   5.069   2.485   9.483  0.0728 -0.2138  0.2725
   51CHL1  H16A 6202   5.161   2.471   9.422  1.6613  3.2296  1.5846
   51CHL1  H16B 6203   4.984   2.416   9.466  0.5035 -0.4614 -0.9477
   51CHL1   C17 6204   5.022   2.632   9.471  0.1568 -0.1619  0.8110
   51CHL1   H17 6205   4.912   2.631   9.488  0.2182  0.1384  1.2612
   51CHL1   C13 6206   5.078   2.699   9.596  0.6937  0.0742  0.0975
   51CHL1   C18 6207   5.225   2.742   9.576  0.0553  0.1979  0.2527
   51CHL1  H18A 6208   5.274   2.756   9.674  0.0551 -1.0437  0.4525
   51CHL1  H18B 6209   5.284   2.673   9.512 -1.5030  0.2780 -1.3748
   51CHL1  H18C 6210   5.214   2.838   9.522  0.2774 -0.3239 -0.7482
   51CHL1   C12 6211   5.006   2.822   9.649 -0.1345  0.0416  0.0037
   51CHL1  H12A 6212   5.004   2.915   9.588 -0.4786 -0.0302 -0.0984
   51CHL1  H12B 6213   4.906   2.781   9.674 -0.7123 -0.0450 -2.1931
   51CHL1   C11 6214   5.051   2.862   9.788 -0.0888  0.6020 -0.2491
   51CHL1  H11A 6215   5.151   2.911   9.782 -1.3570  3.4030  0.0851
   51CHL1  H11B 6216   4.981   2.941   9.824  0.8423  1.0333  0.6833
   51CHL1    C9 6217   5.055   2.746   9.894  0.0983  0.0953  0.1659
   51CHL1    H9 6218   4.948   2.722   9.910  0.1847 -0.9027 -0.5807
   51CHL1   C10 6219   5.127   2.788  10.031 -0.7315 -0.7549 -0.4917
   51CHL1   C19 6220   5.268   2.859  10.010  0.8917  0.1874 -0.2610
   51CHL1  H19A 6221   5.330   2.805   9.936  0.7897  0.2679 -0.4049
   51CHL1  H19B 6222   5.250   2.957   9.961 -1.3586 -0.3918 -0.7314
   51CHL1  H19C 6223   5.306   2.890  10.109  0.3684 -2.5813  0.9066
   51CHL1    C1 6224   5.036   2.899  10.102  0.1756 -0.2964  0.2991
   51CHL1   H1A 6225   5.028   2.991  10.041  2.2713 -1.5194 -1.9791
   51CHL1   H1B 6226   4.942   2.838  10.105  0.7197 -1.1684 -0.0216
   51CHL1    C2 6227   5.077   2.926  10.249  0.0159  0.3899 -0.5181
   51CHL1   H2A 6228   4.997   2.994  10.285  0.9740  1.1026  0.3204
   51CHL1   H2B 6229   5.171   2.985  10.259 -0.5105  1.5237 -1.8572
   51CHL1   C20 6230   5.043   2.699   9.334  0.7600  0.2656  0.1894
   51CHL1   H20 6231   5.152   2.715   9.322  0.6937  0.3094 -0.4320
   51CHL1   C21 6232   4.980   2.839   9.315  0.1909  0.8548 -0.0415
   51CHL1  H21A 6233   4.991   2.880   9.213  1.0006  3.9114  1.1631
   51CHL1  H21B 6234   5.024   2.917   9.381 -0.7715 -0.4475  2.2743
   51CHL1  H21C 6235   4.875   2.831   9.351  0.3552 -1.7030  0.1024
   51CHL1   C22 6236   4.997   2.610   9.213 -1.2381  0.6267 -0.8405
   51CHL1  H22A 6237   5.030   2.669   9.125 -1.7647  3.2079  0.6013
   51CHL1  H22B 6238   5.057   2.516   9.210 -0.4409  1.1435 -2.9040
   51CHL1   C23 6239   4.842   2.588   9.201 -0.1535  0.1732 -0.7532
   51CHL1  H23A 6240   4.798   2.534   9.288 -1.5802 -0.0024 -1.5621
   51CHL1  H23B 6241   4.793   2.687   9.197  0.9785  0.9624  2.1853
   51CHL1   C24 6242   4.788   2.507   9.079  0.6023 -0.2430 -0.3557
   51CHL1  H24A 6243   4.678   2.497   9.091  0.1608  0.9457 -2.7979
   51CHL1  H24B 6244   4.814   2.565   8.988 -0.5810 -0.4020 -0.8127
   51CHL1   C25 6245   4.826   2.361   9.057  0.4296 -0.5978  0.2707
   51CHL1   H25 6246   4.937   2.355   9.058  0.4171 -0.9494  1.3690
   51CHL1   C26 6247   4.766   2.275   9.166 -0.5418  0.4240 -0.3090
   51CHL1  H26A 6248   4.813   2.296   9.264 -0.1758 -1.3905 -0.0513
   51CHL1  H26B 6249   4.658   2.299   9.175 -0.5030  0.6155 -0.3665
   51CHL1  H26C 6250   4.790   2.169   9.143  2.7623  1.1207 -0.4674
   51CHL1   C27 6251   4.773   2.323   8.921 -0.5434  0.2386 -1.0318
   51CHL1  H27A 6252   4.821   2.224   8.905 -0.4366 -0.1800  1.5015
   51CHL1  H27B 6253   4.662   2.311   8.920 -0.5841  0.4020  0.1542
   51CHL1  H27C 6254   4.799   2.399   8.845  1.7497  0.0983 -0.4484
   52CHL1    C3 6255   1.477   1.833  10.110 -0.0781  0.1488  0.0744
   52CHL1    H3 6256   1.382   1.782  10.082  0.4822 -0.2589 -1.1692
   52CHL1    O3 6257   1.489   1.866  10.242 -0.0672  0.1158 -0.3368
   52CHL1   H3' 6258   1.483   1.781  10.288 -1.0429  0.3257 -0.0571
   52CHL1    C4 6259   1.594   1.739  10.064 -0.7141 -1.3466 -0.1387
   52CHL1   H4A 6260   1.689   1.781  10.102 -0.7272 -0.8016 -0.6985
   52CHL1   H4B 6261   1.574   1.651  10.128  3.0653 -1.4867  1.1008
   52CHL1    C5 6262   1.592   1.705   9.920 -0.2594 -0.6620  0.7287
   52CHL1    C6 6263   1.603   1.582   9.871 -0.7644  1.3045  0.1546
   52CHL1    H6 6264   1.599   1.502   9.947 -1.5918  1.6625  0.5044
   52CHL1    C7 6265   1.603   1.544   9.725 -0.2474  0.1348  0.6115
   52CHL1   H7A 6266   1.673   1.462   9.697 -1.4604 -0.5080 -0.6132
   52CHL1   H7B 6267   1.500   1.518   9.693 -1.2497  3.3734  0.8640
   52CHL1    C8 6268   1.633   1.662   9.626 -0.2077  0.0587  0.1678
   52CHL1    H8 6269   1.742   1.683   9.627 -0.0053 -0.7843 -1.3299
   52CHL1   C14 6270   1.588   1.629   9.478  0.0428  0.4894  0.2118
   52CHL1   H14 6271   1.477   1.626   9.481 -0.0949  0.7768 -2.6647
   52CHL1   C15 6272   1.628   1.487   9.419 -0.1303 -0.6771 -0.4017
   52CHL1  H15A 6273   1.738   1.478   9.427 -0.0737 -3.8396 -2.7586
   52CHL1  H15B 6274   1.582   1.409   9.484 -0.8745  2.1564  2.7703
   52CHL1   C16 6275   1.590   1.511   9.275  0.2316 -0.1210  0.1010
   52CHL1  H16A 6276   1.673   1.476   9.210  0.7247 -0.1444  0.7252
   52CHL1  H16B 6277   1.501   1.453   9.243  0.0961 -0.0607  0.3690
   52CHL1   C17 6278   1.552   1.663   9.255  0.7438 -0.1655  0.5051
   52CHL1   H17 6279   1.441   1.673   9.258  0.5166 -0.1682 -3.0347
   52CHL1   C13 6280   1.609   1.740   9.371  0.2004 -1.3758  0.1083
   52CHL1   C18 6281   1.762   1.771   9.359 -0.2499 -0.0795 -0.0410
   52CHL1  H18A 6282   1.820   1.684   9.322  0.4761 -0.0401  0.9622
   52CHL1  H18B 6283   1.772   1.854   9.286 -2.3563  0.2585 -0.0290
   52CHL1  H18C 6284   1.805   1.805   9.455  0.3612 -0.6132 -0.1199
   52CHL1   C12 6285   1.523   1.857   9.428  0.4477  0.1105 -0.6896
   52CHL1  H12A 6286   1.527   1.934   9.349 -0.1066  0.3548 -0.4884
   52CHL1  H12B 6287   1.415   1.831   9.432  0.4054 -0.7572 -4.3883
   52CHL1   C11 6288   1.562   1.906   9.572 -0.0165  0.6106 -0.3412
   52CHL1  H11A 6289   1.663   1.948   9.586  0.3632 -0.9929  2.3161
   52CHL1  H11B 6290   1.483   1.980   9.596 -1.2344 -1.3175  2.0006
   52CHL1    C9 6291   1.558   1.788   9.676 -0.3818 -0.3079 -0.5782
   52CHL1    H9 6292   1.451   1.761   9.683 -0.4652  0.3501  1.1990
   52CHL1   C10 6293   1.584   1.827   9.829 -0.1962  0.0399 -0.0966
   52CHL1   C19 6294   1.710   1.906   9.832  0.4337 -0.2200  0.0914
   52CHL1  H19A 6295   1.798   1.846   9.800 -1.3089 -3.0038  0.1694
   52CHL1  H19B 6296   1.704   1.995   9.765 -0.0741 -2.1861 -2.6739
   52CHL1  H19C 6297   1.731   1.948   9.932  3.3112 -1.1644 -0.0386
   52CHL1    C1 6298   1.466   1.916   9.875 -0.2745 -0.6507  0.6052
   52CHL1   H1A 6299   1.460   2.006   9.810 -0.8495 -1.1415 -0.0333
   52CHL1   H1B 6300   1.371   1.860   9.863  0.5231 -2.0557  0.6848
   52CHL1    C2 6301   1.472   1.960  10.017 -0.0725 -0.4607 -0.7585
   52CHL1   H2A 6302   1.389   2.022  10.056  1.7539  2.3588 -1.0176
   52CHL1   H2B 6303   1.563   2.017  10.046 -0.0434 -0.4214 -0.9251
   52CHL1   C20 6304   1.607   1.705   9.115 -0.3332 -0.6589  0.0852
   52CHL1   H20 6305   1.718   1.697   9.118 -0.3698 -0.8809  1.8067
   52CHL1   C21 6306   1.585   1.860   9.087 -0.9585 -0.1665 -0.3618
   52CHL1  H21A 6307   1.654   1.925   9.145 -0.2613  1.0766 -2.4804
   52CHL1  H21B 6308   1.481   1.887   9.113 -0.5188  1.0168  0.2072
   52CHL1  H21C 6309   1.608   1.878   8.979  0.2914 -2.2977 -0.5346
   52CHL1   C22 6310   1.546   1.628   8.997 -0.0165 -0.9530  0.1346
   52CHL1  H22A 6311   1.565   1.520   9.016 -1.4512 -1.4718 -1.2092
   52CHL1  H22B 6312   1.439   1.638   8.972  0.3713 -1.9527 -2.1607
   52CHL1   C23 6313   1.616   1.648   8.857 -0.3869  0.1514 -0.5286
   52CHL1  H23A 6314   1.584   1.750   8.828  0.5964  0.4311 -0.6871
   52CHL1  H23B 6315   1.727   1.652   8.870 -0.3934  1.3296 -0.7527
   52CHL1   C24 6316   1.578   1.556   8.739 -0.9934  0.6323 -0.6296
   52CHL1  H24A 6317   1.592   1.450   8.769 -1.0155  1.6338  3.3788
   52CHL1  H24B 6318   1.467   1.557   8.733 -1.0120  1.0066 -0.2664
   52CHL1   C25 6319   1.642   1.585   8.598  0.1527 -0.0593 -0.0616
   52CHL1   H25 6320   1.588   1.673   8.557  0.3994  0.6177  1.0345
   52CHL1   C26 6321   1.793   1.611   8.600  0.6880 -0.4110 -0.2398
   52CHL1  H26A 6322   1.833   1.651   8.505 -1.6828  0.9105 -0.7608
   52CHL1  H26B 6323   1.813   1.690   8.676  0.4376 -1.7177  1.2552
   52CHL1  H26C 6324   1.853   1.531   8.649  1.9509  1.2566  1.0975
   52CHL1   C27 6325   1.608   1.461   8.514 -0.5307 -0.5032  0.0661
   52CHL1  H27A 6326   1.678   1.380   8.546  0.6832 -1.3454 -4.1279
   52CHL1  H27B 6327   1.509   1.424   8.549 -1.8179  2.4235 -0.2472
   52CHL1  H27C 6328   1.613   1.478   8.405 -1.1251 -1.4105 -0.1115
   53CHL1    C3 6329   1.997   0.529   9.970  0.5336  0.3156  0.0296
   53CHL1    H3 6330   2.093   0.583   9.958  1.4023 -1.0245  0.7897
   53CHL1    O3 6331   1.980   0.514  10.106 -0.4426 -0.1936  0.0729
   53CHL1   H3' 6332   1.887   0.488  10.111 -0.2508 -1.0350 -0.4956
   53CHL1    C4 6333   1.878   0.595   9.906 -0.1333  0.5986  0.1652
   53CHL1   H4A 6334   1.789   0.541   9.942 -0.0156  0.3606  0.1048
   53CHL1   H4B 6335   1.867   0.698   9.946 -0.6320  0.8665 -0.6325
   53CHL1    C5 6336   1.895   0.592   9.755 -0.4689 -0.0152 -0.1740
   53CHL1    C6 6337   1.909   0.701   9.677 -0.3042  0.2123 -0.2375
   53CHL1    H6 6338   1.915   0.798   9.727  0.4980  0.2579 -0.3932
   53CHL1    C7 6339   1.910   0.699   9.523 -0.2872  0.4417 -0.5799
   53CHL1   H7A 6340   1.821   0.756   9.490 -1.0507 -0.3905 -0.0239
   53CHL1   H7B 6341   2.006   0.738   9.484  0.0851 -2.8335 -3.4680
   53CHL1    C8 6342   1.883   0.556   9.461  0.3479 -0.2828 -0.3663
   53CHL1    H8 6343   1.773   0.541   9.472  0.2486  0.7981  0.3331
   53CHL1   C14 6344   1.933   0.544   9.327 -0.0353 -0.5475  0.4429
   53CHL1   H14 6345   2.043   0.556   9.326 -0.3425  3.3578  0.0558
   53CHL1   C15 6346   1.892   0.659   9.224 -0.2668 -0.1381 -0.0161
   53CHL1  H15A 6347   1.799   0.715   9.246 -0.4036  0.8037 -2.6448
   53CHL1  H15B 6348   1.963   0.745   9.225 -0.7987  0.3470 -1.4516
   53CHL1   C16 6349   1.892   0.590   9.087 -0.2848  0.0282  0.5800
   53CHL1  H16A 6350   1.788   0.581   9.049  0.3348  0.7030 -1.3925
   53CHL1  H16B 6351   1.947   0.651   9.013 -1.2133  0.1827 -0.0039
   53CHL1   C17 6352   1.949   0.443   9.109  0.4617 -0.1172  0.0142
   53CHL1   H17 6353   2.058   0.462   9.124  0.3822 -0.9972  2.0276
   53CHL1   C13 6354   1.901   0.409   9.251  0.1656  0.0644 -0.1013
   53CHL1   C18 6355   1.754   0.375   9.260  0.2904 -1.1102  0.6115
   53CHL1  H18A 6356   1.746   0.277   9.207  0.5812 -0.6162 -0.3717
   53CHL1  H18B 6357   1.716   0.364   9.364 -3.0047 -0.3292 -0.3869
   53CHL1  H18C 6358   1.691   0.457   9.219 -0.1582 -2.1883 -0.9735
   53CHL1   C12 6359   1.978   0.305   9.330 -0.7827  0.2108  0.1497
   53CHL1  H12A 6360   1.976   0.204   9.283 -3.4020 -0.4265  1.4271
   53CHL1  H12B 6361   2.087   0.326   9.327 -1.0034  1.5465  0.8680
   53CHL1   C11 6362   1.952   0.302   9.478  0.0438 -0.5035  0.0505
   53CHL1  H11A 6363   1.854   0.249   9.482 -0.5936  0.4439 -1.9774
   53CHL1  H11B 6364   2.023   0.244   9.541 -0.3840 -1.0438  0.0500
   53CHL1    C9 6365   1.946   0.443   9.545  0.4284 -0.7404 -0.0710
   53CHL1    H9 6366   2.055   0.467   9.552  0.2403  0.1692 -0.1212
   53CHL1   C10 6367   1.905   0.448   9.701 -0.1715  0.0034 -0.1188
   53CHL1   C19 6368   1.767   0.368   9.719  0.3051  0.1699  0.3975
   53CHL1  H19A 6369   1.685   0.420   9.665 -1.0762 -3.0593 -0.9089
   53CHL1  H19B 6370   1.764   0.273   9.662 -1.2515 -0.9967  2.2960
   53CHL1  H19C 6371   1.738   0.356   9.826 -0.3582 -0.4467  0.1598
   53CHL1    C1 6372   2.018   0.372   9.771  0.8517 -0.0431 -0.1596
   53CHL1   H1A 6373   2.011   0.262   9.752  0.3523 -0.1938  0.8615
   53CHL1   H1B 6374   2.113   0.420   9.740  0.4984  2.4872  2.2716
   53CHL1    C2 6375   2.015   0.387   9.919 -0.6131  0.3950 -0.8816
   53CHL1   H2A 6376   2.099   0.334   9.968 -0.0431 -0.4696 -2.6821
   53CHL1   H2B 6377   1.919   0.345   9.955 -1.2157  0.4719 -2.3068
   53CHL1   C20 6378   1.921   0.337   9.002  0.6376  0.4749  0.3629
   53CHL1   H20 6379   1.909   0.246   9.063 -0.3270  0.4130  0.0992
   53CHL1   C21 6380   2.045   0.327   8.909 -0.4454  0.0797 -0.7062
   53CHL1  H21A 6381   2.134   0.323   8.975 -0.9278 -0.9602 -0.0922
   53CHL1  H21B 6382   2.050   0.411   8.838  1.2084  1.3446  0.8146
   53CHL1  H21C 6383   2.027   0.232   8.853  0.2396 -1.3327  1.3373
   53CHL1   C22 6384   1.794   0.369   8.917 -0.3208  0.6115 -0.6968
   53CHL1  H22A 6385   1.712   0.421   8.971  1.3796  1.2148  1.4769
   53CHL1  H22B 6386   1.827   0.434   8.833  1.0400  1.0158  0.1056
   53CHL1   C23 6387   1.732   0.243   8.852  1.1877 -0.0124  0.0066
   53CHL1  H23A 6388   1.815   0.185   8.807  0.8635 -1.0448  0.6879
   53CHL1  H23B 6389   1.690   0.171   8.926 -0.0964 -1.4896 -2.0822
   53CHL1   C24 6390   1.624   0.273   8.754  0.0830  0.4226 -0.3703
   53CHL1  H24A 6391   1.550   0.333   8.811 -0.4095 -0.4189 -0.1117
   53CHL1  H24B 6392   1.664   0.336   8.672  0.4517  1.6772  0.7225
   53CHL1   C25 6393   1.547   0.149   8.688  0.2152 -0.2475 -0.4315
   53CHL1   H25 6394   1.489   0.105   8.772 -3.1972  1.9304 -1.4345
   53CHL1   C26 6395   1.455   0.204   8.573 -0.7754 -0.2494 -0.5175
   53CHL1  H26A 6396   1.514   0.266   8.502  1.9978 -2.9291 -0.7611
   53CHL1  H26B 6397   1.394   0.131   8.515 -1.8877  0.6880 -0.5744
   53CHL1  H26C 6398   1.374   0.261   8.625 -0.9289 -1.0438  0.1314
   53CHL1   C27 6399   1.650   0.048   8.627  0.1161 -0.2139 -0.1214
   53CHL1  H27A 6400   1.586  -0.031   8.581 -1.1871 -0.0820  1.4064
   53CHL1  H27B 6401   1.704   0.110   8.552  0.4308 -1.7734 -1.2326
   53CHL1  H27C 6402   1.712  -0.006   8.702  0.0862 -0.3465 -0.1908
   54CHL1    C3 6403   2.555   6.786  10.196 -0.5776  0.6363 -0.0663
   54CHL1    H3 6404   2.591   6.889  10.174  0.7710  0.1272 -0.3757
   54CHL1    O3 6405   2.568   6.762  10.335 -0.1190 -0.2593 -0.2062
   54CHL1   H3' 6406   2.544   6.670  10.344 -2.1664  0.3267  0.9223
   54CHL1    C4 6407   2.403   6.760  10.164  0.2301 -0.6100  0.7995
   54CHL1   H4A 6408   2.369   6.668  10.215 -1.0451  0.0494  1.2045
   54CHL1   H4B 6409   2.345   6.831  10.228  0.4909 -0.8616  1.3261
   54CHL1    C5 6410   2.383   6.768  10.011  0.4459 -0.2466 -0.0655
   54CHL1    C6 6411   2.310   6.865   9.953 -0.2056 -0.0284  0.3400
   54CHL1    H6 6412   2.245   6.928  10.016 -2.3358  0.3038 -2.0114
   54CHL1    C7 6413   2.279   6.877   9.802 -0.2953 -0.6475  0.1856
   54CHL1   H7A 6414   2.172   6.885   9.772 -0.3672  0.3184  0.6616
   54CHL1   H7B 6415   2.323   6.970   9.761 -0.9977 -0.3713  0.0459
   54CHL1    C8 6416   2.337   6.756   9.720  0.4240  0.3987  0.0909
   54CHL1    H8 6417   2.260   6.678   9.740 -0.5876  1.4539  0.4296
   54CHL1   C14 6418   2.349   6.791   9.571  0.4861  0.0503  0.3038
   54CHL1   H14 6419   2.421   6.876   9.573  0.0402  0.4205  1.2255
   54CHL1   C15 6420   2.225   6.837   9.494 -0.2351 -0.0011  0.1015
   54CHL1  H15A 6421   2.139   6.769   9.510 -1.0759  1.4841  2.5351
   54CHL1  H15B 6422   2.198   6.937   9.533  1.6339  0.5598  0.0496
   54CHL1   C16 6423   2.277   6.830   9.344  0.4793  0.6613  0.6939
   54CHL1  H16A 6424   2.207   6.778   9.277  2.2616 -1.4908  0.3914
   54CHL1  H16B 6425   2.293   6.932   9.302 -1.0482  0.7055  0.1545
   54CHL1   C17 6426   2.411   6.749   9.347 -0.5952 -0.1210  0.1198
   54CHL1   H17 6427   2.488   6.829   9.345 -2.3116  1.6042 -1.0252
   54CHL1   C13 6428   2.417   6.683   9.485 -0.0395  0.6958  0.1893
   54CHL1   C18 6429   2.330   6.557   9.470 -0.2110  0.0772  0.3543
   54CHL1  H18A 6430   2.239   6.583   9.412  0.3053  1.3005  0.0534
   54CHL1  H18B 6431   2.380   6.475   9.415 -0.7779 -1.7878  2.4630
   54CHL1  H18C 6432   2.306   6.516   9.571 -0.7021  1.1060  0.6636
   54CHL1   C12 6433   2.560   6.663   9.543  0.2114  0.4713 -0.0384
   54CHL1  H12A 6434   2.619   6.588   9.487  1.6648  1.3937  0.1923
   54CHL1  H12B 6435   2.611   6.762   9.550  1.1533 -0.1149  3.6443
   54CHL1   C11 6436   2.554   6.609   9.695 -0.5602  0.4926  0.5922
   54CHL1  H11A 6437   2.508   6.508   9.692 -0.5187  0.4510  1.1839
   54CHL1  H11B 6438   2.657   6.590   9.731 -1.3229 -1.2837  1.9645
   54CHL1    C9 6439   2.478   6.717   9.777  0.3970  0.4565  0.2818
   54CHL1    H9 6440   2.546   6.804   9.768 -1.0037  1.5843  0.2619
   54CHL1   C10 6441   2.478   6.685   9.927 -1.0462  0.1304  0.3898
   54CHL1   C19 6442   2.437   6.542   9.941  0.2263  0.2033 -0.2144
   54CHL1  H19A 6443   2.344   6.520   9.885 -0.2583 -0.3095  0.7560
   54CHL1  H19B 6444   2.505   6.471   9.891 -2.0852 -1.1832 -1.5246
   54CHL1  H19C 6445   2.413   6.511  10.045  0.6350  0.2576 -0.1011
   54CHL1    C1 6446   2.632   6.699   9.970  0.3622  0.8954  0.0957
   54CHL1   H1A 6447   2.684   6.614   9.921 -3.0679 -1.6392  0.4970
   54CHL1   H1B 6448   2.676   6.797   9.941  0.1636  0.9852  0.0969
   54CHL1    C2 6449   2.645   6.684  10.122  0.0512 -0.4806  0.3375
   54CHL1   H2A 6450   2.749   6.711  10.151 -0.0599  1.0465 -0.5784
   54CHL1   H2B 6451   2.624   6.577  10.142  0.7713 -0.9575 -1.2517
   54CHL1   C20 6452   2.433   6.675   9.221 -0.1978  0.8430  0.2246
   54CHL1   H20 6453   2.343   6.612   9.201 -1.3790  2.5892 -0.1742
   54CHL1   C21 6454   2.569   6.602   9.227 -0.8908  0.8631  0.3670
   54CHL1  H21A 6455   2.643   6.679   9.259 -1.7220  0.8516  2.4708
   54CHL1  H21B 6456   2.592   6.557   9.128  1.0290 -0.2391  1.2380
   54CHL1  H21C 6457   2.575   6.513   9.294  0.0625 -2.3692 -3.5765
   54CHL1   C22 6458   2.440   6.763   9.097 -0.8975  0.4701 -0.7358
   54CHL1  H22A 6459   2.354   6.834   9.104 -1.2790 -0.0993  0.8482
   54CHL1  H22B 6460   2.526   6.833   9.101  0.0644 -0.7178 -0.1034
   54CHL1   C23 6461   2.429   6.686   8.973 -0.4040 -0.0882  0.3472
   54CHL1  H23A 6462   2.519   6.625   8.951 -1.1656 -1.7828  1.7044
   54CHL1  H23B 6463   2.335   6.628   8.985  0.0656 -0.3206  3.9457
   54CHL1   C24 6464   2.411   6.789   8.855  0.6296  0.3711 -0.2202
   54CHL1  H24A 6465   2.382   6.727   8.768  1.0835 -0.8173  0.4502
   54CHL1  H24B 6466   2.332   6.855   8.895  0.8583 -1.0031  2.7649
   54CHL1   C25 6467   2.534   6.872   8.806  0.3786  0.0924 -0.1035
   54CHL1   H25 6468   2.548   6.947   8.886 -2.4159  0.4399  0.1860
   54CHL1   C26 6469   2.657   6.796   8.788 -0.5066 -0.2206 -0.8919
   54CHL1  H26A 6470   2.695   6.749   8.881 -0.8630  0.2241 -0.5187
   54CHL1  H26B 6471   2.665   6.708   8.720  2.1649 -0.1440 -0.8100
   54CHL1  H26C 6472   2.742   6.866   8.771  0.1947 -1.2729 -1.8900
   54CHL1   C27 6473   2.495   6.946   8.674 -0.2928  0.0963 -1.2916
   54CHL1  H27A 6474   2.455   6.872   8.601  2.2886  0.7489 -3.5350
   54CHL1  H27B 6475   2.421   7.028   8.685  1.0348  1.2970 -1.0396
   54CHL1  H27C 6476   2.584   6.988   8.623 -0.1761  0.1257 -1.0653
   55CHL1    C3 6477   2.482   5.366  10.236  0.0818  0.6918 -0.3089
   55CHL1    H3 6478   2.524   5.264  10.222 -0.6374  0.5295 -1.4676
   55CHL1    O3 6479   2.465   5.400  10.376  0.2451  0.2195  0.2400
   55CHL1   H3' 6480   2.434   5.320  10.419 -0.8578  0.3696 -0.2269
   55CHL1    C4 6481   2.571   5.471  10.178 -0.3693 -0.6040  0.5590
   55CHL1   H4A 6482   2.530   5.574  10.189  1.1176  0.4273 -2.5248
   55CHL1   H4B 6483   2.662   5.479  10.242 -0.7687  2.5984  0.9078
   55CHL1    C5 6484   2.600   5.442  10.033  0.3765 -0.5856 -0.2694
   55CHL1    C6 6485   2.726   5.431   9.991  0.1756  0.2652 -0.2475
   55CHL1    H6 6486   2.808   5.443  10.064 -0.3637 -0.9988  0.5912
   55CHL1    C7 6487   2.760   5.412   9.846 -0.6019  0.1548 -0.0142
   55CHL1   H7A 6488   2.842   5.483   9.824  0.9122 -1.5299 -0.0152
   55CHL1   H7B 6489   2.795   5.307   9.835 -0.0134  0.5632 -2.6237
   55CHL1    C8 6490   2.644   5.444   9.746 -0.4469 -0.7569  0.3469
   55CHL1    H8 6491   2.629   5.554   9.746 -0.2288 -0.6997 -1.2807
   55CHL1   C14 6492   2.671   5.401   9.606 -0.4128 -1.0937  0.5393
   55CHL1   H14 6493   2.681   5.291   9.618 -1.1802 -1.1018  1.2475
   55CHL1   C15 6494   2.795   5.459   9.539 -0.0899  0.1585  0.1232
   55CHL1  H15A 6495   2.800   5.570   9.548  1.6687  0.3094 -2.0766
   55CHL1  H15B 6496   2.885   5.406   9.575 -0.0596 -2.1630 -2.9757
   55CHL1   C16 6497   2.774   5.419   9.390 -0.1166 -0.2780 -0.4600
   55CHL1  H16A 6498   2.801   5.511   9.334 -0.5170 -0.1553 -0.4541
   55CHL1  H16B 6499   2.846   5.343   9.354  0.3257  1.1094 -2.6986
   55CHL1   C17 6500   2.626   5.380   9.376 -0.4347 -0.3818 -0.5738
   55CHL1   H17 6501   2.633   5.269   9.380  1.3650 -0.2613  2.0867
   55CHL1   C13 6502   2.555   5.419   9.504  0.0045 -0.9979  0.0253
   55CHL1   C18 6503   2.510   5.563   9.486  0.0717 -0.0309 -0.4212
   55CHL1  H18A 6504   2.597   5.625   9.455  0.6053 -0.2143  0.6802
   55CHL1  H18B 6505   2.419   5.576   9.424 -0.1337 -0.9627 -0.3360
   55CHL1  H18C 6506   2.484   5.600   9.587  0.3630  0.1168 -0.3993
   55CHL1   C12 6507   2.433   5.332   9.558 -0.6958 -0.6334  0.3534
   55CHL1  H12A 6508   2.335   5.343   9.508 -2.2238  1.5269  3.5084
   55CHL1  H12B 6509   2.454   5.223   9.555 -0.4271 -0.5675 -1.9570
   55CHL1   C11 6510   2.397   5.380   9.709 -0.2279  0.2807 -0.1861
   55CHL1  H11A 6511   2.361   5.483   9.686  1.4338  0.4643 -2.2365
   55CHL1  H11B 6512   2.318   5.309   9.742 -0.4681 -0.0788 -1.4735
   55CHL1    C9 6513   2.516   5.382   9.803 -0.0137 -0.3272  0.7573
   55CHL1    H9 6514   2.544   5.275   9.815  0.2830 -0.2268  0.9578
   55CHL1   C10 6515   2.477   5.436   9.945 -0.0381  0.3894  0.2944
   55CHL1   C19 6516   2.415   5.582   9.935  0.1154  1.3631  0.2143
   55CHL1  H19A 6517   2.315   5.573   9.888 -0.7986  1.5268  2.0314
   55CHL1  H19B 6518   2.388   5.617  10.037 -1.2039 -3.7940  1.9641
   55CHL1  H19C 6519   2.465   5.656   9.869  1.5946 -0.9958 -1.4564
   55CHL1    C1 6520   2.376   5.344  10.020 -0.2245  0.3986  0.5412
   55CHL1   H1A 6521   2.276   5.360   9.975 -0.4831 -1.1763  0.4828
   55CHL1   H1B 6522   2.393   5.234  10.009 -2.1921  0.2124 -1.2341
   55CHL1    C2 6523   2.349   5.377  10.165 -0.0184 -0.4168  0.1673
   55CHL1   H2A 6524   2.282   5.295  10.201 -1.8049  0.3797 -1.1658
   55CHL1   H2B 6525   2.290   5.470  10.183  0.6032 -0.2380  1.3529
   55CHL1   C20 6526   2.565   5.425   9.243 -0.1312  0.3843 -0.9551
   55CHL1   H20 6527   2.565   5.536   9.244  1.8904  0.4328 -1.2664
   55CHL1   C21 6528   2.424   5.354   9.224 -0.5447  0.6943  0.2544
   55CHL1  H21A 6529   2.429   5.243   9.226 -0.1023  0.7010 -0.3766
   55CHL1  H21B 6530   2.372   5.383   9.131  0.3146  0.7541 -0.2111
   55CHL1  H21C 6531   2.357   5.388   9.307  0.1008  1.4928  0.4610
   55CHL1   C22 6532   2.663   5.377   9.130 -0.5585  0.0049 -0.0714
   55CHL1  H22A 6533   2.763   5.424   9.140  1.3900 -3.2546 -2.5118
   55CHL1  H22B 6534   2.696   5.272   9.135  0.7863  0.3392 -1.2899
   55CHL1   C23 6535   2.619   5.393   8.980  0.4460 -0.0254 -0.4415
   55CHL1  H23A 6536   2.572   5.297   8.951 -2.4645 -0.0435  3.4692
   55CHL1  H23B 6537   2.544   5.472   8.962 -0.8601 -1.5962 -2.3295
   55CHL1   C24 6538   2.744   5.420   8.889  0.0887 -0.2694  0.4590
   55CHL1  H24A 6539   2.811   5.498   8.931  1.3933 -1.6702  1.1135
   55CHL1  H24B 6540   2.806   5.329   8.903 -0.4369 -0.3757  2.4749
   55CHL1   C25 6541   2.724   5.428   8.732  0.1192 -0.2507 -0.1933
   55CHL1   H25 6542   2.820   5.443   8.679 -0.9122  2.4222 -1.4849
   55CHL1   C26 6543   2.659   5.301   8.675 -0.1345 -0.0266  0.6249
   55CHL1  H26A 6544   2.727   5.216   8.697 -0.9211 -0.7371  0.3443
   55CHL1  H26B 6545   2.564   5.278   8.727 -0.3466 -0.3895  0.0777
   55CHL1  H26C 6546   2.640   5.301   8.566  1.3303 -2.0497  0.3228
   55CHL1   C27 6547   2.655   5.554   8.682 -0.3597 -0.1086  0.2727
   55CHL1  H27A 6548   2.631   5.544   8.574 -0.8145 -0.6115  0.4153
   55CHL1  H27B 6549   2.558   5.541   8.735  0.0609 -1.7995  0.7010
   55CHL1  H27C 6550   2.715   5.646   8.698 -1.2737  0.6160 -0.3798
   56CHL1    C3 6551   5.644   3.562  10.110 -0.6255  0.2594 -0.2554
   56CHL1    H3 6552   5.750   3.528  10.106 -1.0460 -1.3287  1.0789
   56CHL1    O3 6553   5.586   3.532  10.236 -0.1589  1.0171 -0.1459
   56CHL1   H3' 6554   5.490   3.533  10.228 -0.2116 -0.4456  0.1382
   56CHL1    C4 6555   5.644   3.708  10.079  1.0766  0.5748 -0.5533
   56CHL1   H4A 6556   5.538   3.742  10.087  0.8872  0.0912 -0.9819
   56CHL1   H4B 6557   5.693   3.766  10.161  2.0034  0.0384 -0.7113
   56CHL1    C5 6558   5.694   3.726   9.935 -0.4941  0.4593  0.0785
   56CHL1    C6 6559   5.791   3.809   9.901  0.0449  0.6452 -0.1601
   56CHL1    H6 6560   5.846   3.862   9.980 -3.8089  1.1831  2.4200
   56CHL1    C7 6561   5.838   3.835   9.755 -0.0222  0.0932  0.0057
   56CHL1   H7A 6562   5.870   3.941   9.746 -0.3595  0.1769 -0.2229
   56CHL1   H7B 6563   5.931   3.774   9.746  0.1289  0.0227  1.6690
   56CHL1    C8 6564   5.732   3.799   9.652  0.0659 -0.0909  0.5105
   56CHL1    H8 6565   5.654   3.878   9.656 -2.0982 -2.0609 -0.5289
   56CHL1   C14 6566   5.796   3.811   9.509  0.3721  0.6674 -0.4181
   56CHL1   H14 6567   5.880   3.739   9.498  1.1997  1.5543  0.0060
   56CHL1   C15 6568   5.867   3.943   9.481  0.2322 -0.4263  0.6290
   56CHL1  H15A 6569   5.799   4.026   9.509  0.2331  0.2611 -1.2194
   56CHL1  H15B 6570   5.970   3.954   9.521  1.4243  2.8196 -2.7303
   56CHL1   C16 6571   5.885   3.937   9.326 -0.2156 -0.0916  0.0931
   56CHL1  H16A 6572   5.849   4.028   9.273  0.9310  1.1134  1.3184
   56CHL1  H16B 6573   5.991   3.922   9.295 -0.9878 -0.2030 -2.8279
   56CHL1   C17 6574   5.806   3.810   9.277  0.1834  0.3392 -0.0776
   56CHL1   H17 6575   5.881   3.728   9.271  0.7816  0.7846  1.0036
   56CHL1   C13 6576   5.705   3.776   9.394  0.4000  0.4170 -0.5447
   56CHL1   C18 6577   5.586   3.877   9.398 -0.4760  0.4270  0.1538
   56CHL1  H18A 6578   5.519   3.852   9.313  1.3851 -1.1275 -0.9582
   56CHL1  H18B 6579   5.536   3.882   9.496  0.0477  2.3578  0.3607
   56CHL1  H18C 6580   5.627   3.976   9.366 -0.8103  0.9636  1.3684
   56CHL1   C12 6581   5.662   3.625   9.425 -0.0420  0.0437 -0.4709
   56CHL1  H12A 6582   5.594   3.586   9.346 -1.1048 -1.9975  1.3397
   56CHL1  H12B 6583   5.760   3.575   9.437  0.5405  1.5505  1.6888
   56CHL1   C11 6584   5.587   3.613   9.557  0.1951 -0.1208 -0.6332
   56CHL1  H11A 6585   5.491   3.667   9.542  0.7394  0.6949 -1.2878
   56CHL1  H11B 6586   5.567   3.503   9.558  1.6336 -0.4429 -2.2254
   56CHL1    C9 6587   5.674   3.668   9.681  0.6362 -0.2969  0.0422
   56CHL1    H9 6588   5.765   3.604   9.678  0.4073 -0.6075 -0.4488
   56CHL1   C10 6589   5.612   3.655   9.824  0.0007 -0.5208 -0.5133
   56CHL1   C19 6590   5.468   3.719   9.816 -0.3883  0.0539  0.0911
   56CHL1  H19A 6591   5.402   3.638   9.777 -0.3421 -0.5480  1.2234
   56CHL1  H19B 6592   5.418   3.753   9.910 -0.6730 -0.2112  0.0398
   56CHL1  H19C 6593   5.453   3.808   9.751 -4.2773 -0.2882  0.2879
   56CHL1    C1 6594   5.605   3.509   9.862 -0.1241 -0.1488 -0.2690
   56CHL1   H1A 6595   5.534   3.458   9.795  1.1143  1.7763 -3.2953
   56CHL1   H1B 6596   5.707   3.469   9.845 -0.7212 -1.2211 -1.4086
   56CHL1    C2 6597   5.567   3.479  10.008  0.0036  0.0576  0.4789
   56CHL1   H2A 6598   5.578   3.370  10.023 -1.9985 -0.2351  0.1215
   56CHL1   H2B 6599   5.458   3.499  10.013 -0.2059 -0.5658 -1.2270
   56CHL1   C20 6600   5.742   3.834   9.142  0.5128  0.1822  0.2912
   56CHL1   H20 6601   5.663   3.911   9.146  1.6938  1.4531 -0.0523
   56CHL1   C21 6602   5.673   3.703   9.102  1.0637  0.2652  0.0827
   56CHL1  H21A 6603   5.626   3.710   9.002  0.7442 -1.1338  0.1237
   56CHL1  H21B 6604   5.590   3.701   9.176  0.3057  1.0384 -0.7237
   56CHL1  H21C 6605   5.738   3.613   9.105  0.9721  0.0448 -2.4347
   56CHL1   C22 6606   5.845   3.870   9.026 -0.2847  0.7428  0.0795
   56CHL1  H22A 6607   5.902   3.960   9.056  2.1431 -1.1608  1.5713
   56CHL1  H22B 6608   5.912   3.783   9.007 -0.6633  0.2654  0.8817
   56CHL1   C23 6609   5.768   3.902   8.894 -0.2047 -0.6437 -0.2516
   56CHL1  H23A 6610   5.727   3.803   8.866  0.7214 -1.5559  1.4177
   56CHL1  H23B 6611   5.690   3.979   8.917  0.6898  0.1574  0.1909
   56CHL1   C24 6612   5.864   3.949   8.779  0.2291  0.2776  0.1938
   56CHL1  H24A 6613   5.943   3.874   8.755  0.6458  0.7550  0.0599
   56CHL1  H24B 6614   5.802   3.960   8.687 -0.1020  3.8989  0.7006
   56CHL1   C25 6615   5.936   4.084   8.804  1.0025  0.4021  0.1927
   56CHL1   H25 6616   6.002   4.070   8.892  0.0237  0.4416  0.9569
   56CHL1   C26 6617   6.030   4.130   8.693 -0.3844 -0.6436 -0.0846
   56CHL1  H26A 6618   6.065   4.233   8.715 -2.3753 -0.1420  1.0160
   56CHL1  H26B 6619   6.107   4.050   8.687 -0.7103 -0.8691 -1.4133
   56CHL1  H26C 6620   5.975   4.142   8.597 -0.0865  2.0875 -0.0009
   56CHL1   C27 6621   5.836   4.194   8.830  1.1007 -0.4895  0.1687
   56CHL1  H27A 6622   5.874   4.298   8.836 -0.4766  0.0632  0.9252
   56CHL1  H27B 6623   5.768   4.208   8.743 -0.0864  1.4938  1.3422
   56CHL1  H27C 6624   5.765   4.176   8.914 -0.4472  3.3955 -0.1091
   57CHL1    C3 6625   4.433   0.552  10.115 -0.1274 -0.3680 -0.3105
   57CHL1    H3 6626   4.387   0.463  10.067  2.0183 -2.2355  0.8731
   57CHL1    O3 6627   4.384   0.567  10.250  0.3398 -0.0985 -0.2397
   57CHL1   H3' 6628   4.374   0.661  10.265 -0.0772 -0.3141  0.9073
   57CHL1    C4 6629   4.591   0.527  10.115 -0.4085  1.0591  0.3680
   57CHL1   H4A 6630   4.620   0.621  10.167  0.6110  1.6922 -1.2717
   57CHL1   H4B 6631   4.611   0.433  10.170 -1.7031  0.1336 -0.6638
   57CHL1    C5 6632   4.659   0.529   9.976 -0.5225  0.2714 -0.2580
   57CHL1    C6 6633   4.721   0.420   9.935  0.1817  0.1665 -0.2347
   57CHL1    H6 6634   4.742   0.340  10.008 -0.1273  1.5203  1.3776
   57CHL1    C7 6635   4.789   0.406   9.799  0.5372 -0.5304 -0.1882
   57CHL1   H7A 6636   4.894   0.377   9.817  1.1277  2.6949  2.6144
   57CHL1   H7B 6637   4.746   0.327   9.734 -0.6211 -0.3949  0.3910
   57CHL1    C8 6638   4.796   0.536   9.717 -0.2616  0.5134  0.6845
   57CHL1    H8 6639   4.869   0.602   9.768 -0.6666  3.2975 -2.0316
   57CHL1   C14 6640   4.840   0.517   9.578 -0.1574  0.3413  0.7783
   57CHL1   H14 6641   4.768   0.444   9.534 -1.4239  0.7726  2.0618
   57CHL1   C15 6642   4.973   0.441   9.545 -0.2608 -0.0672  0.5775
   57CHL1  H15A 6643   5.056   0.498   9.592 -1.6756  0.5847  2.4077
   57CHL1  H15B 6644   4.970   0.334   9.571 -0.0987 -1.5919 -4.5650
   57CHL1   C16 6645   4.989   0.466   9.388  0.8135 -0.1377 -0.9751
   57CHL1  H16A 6646   5.086   0.520   9.382  1.9463 -1.6996  1.6266
   57CHL1  H16B 6647   4.988   0.373   9.328  2.1320 -0.7846 -0.0539
   57CHL1   C17 6648   4.885   0.571   9.361  0.1992 -0.5388  0.1121
   57CHL1   H17 6649   4.791   0.518   9.335 -0.5130 -1.6539  4.2674
   57CHL1   C13 6650   4.836   0.639   9.485 -0.4568  0.1140 -0.4689
   57CHL1   C18 6651   4.940   0.743   9.533  0.6918  0.1741  0.8424
   57CHL1  H18A 6652   5.043   0.703   9.527  0.5611 -0.1534  0.7563
   57CHL1  H18B 6653   4.935   0.840   9.479 -0.6870 -0.4799 -0.2783
   57CHL1  H18C 6654   4.925   0.772   9.639 -0.2070 -2.0809  1.3950
   57CHL1   C12 6655   4.693   0.699   9.487  0.3374  0.2520 -0.1055
   57CHL1  H12A 6656   4.688   0.786   9.419  1.6146  0.8088  0.4804
   57CHL1  H12B 6657   4.643   0.615   9.433  1.2131 -2.3854  2.8622
   57CHL1   C11 6658   4.641   0.724   9.622 -0.0903 -0.0908 -0.5346
   57CHL1  H11A 6659   4.707   0.802   9.666 -0.5973  0.4002 -0.6274
   57CHL1  H11B 6660   4.536   0.761   9.634  0.0391  0.6648 -1.6267
   57CHL1    C9 6661   4.659   0.607   9.726  0.0720 -0.1856 -0.1661
   57CHL1    H9 6662   4.584   0.535   9.687  0.7743 -0.7655 -0.4796
   57CHL1   C10 6663   4.624   0.641   9.874 -0.3798 -0.1087  0.6600
   57CHL1   C19 6664   4.709   0.761   9.923 -0.0618  0.1801  0.1041
   57CHL1  H19A 6665   4.814   0.730   9.904 -0.1576 -0.3480  0.4021
   57CHL1  H19B 6666   4.704   0.857   9.868 -1.8989 -0.5492 -1.0936
   57CHL1  H19C 6667   4.698   0.786  10.031 -1.2311  1.7479 -0.3363
   57CHL1    C1 6668   4.470   0.669   9.891  0.5091  0.8333 -0.0399
   57CHL1   H1A 6669   4.445   0.766   9.843 -2.6956 -0.1463 -0.6323
   57CHL1   H1B 6670   4.408   0.590   9.844 -1.8454  2.7097 -0.2979
   57CHL1    C2 6671   4.401   0.679  10.036  0.5539  0.1994 -0.3248
   57CHL1   H2A 6672   4.290   0.689  10.030  0.6266  0.2379 -2.2489
   57CHL1   H2B 6673   4.442   0.765  10.093 -0.8681  0.4520  0.3658
   57CHL1   C20 6674   4.905   0.657   9.233  0.0763  0.8838  0.4558
   57CHL1   H20 6675   4.834   0.743   9.226 -1.4048 -0.4082 -1.2206
   57CHL1   C21 6676   4.872   0.564   9.117 -0.6176  0.2950 -0.5726
   57CHL1  H21A 6677   4.772   0.518   9.132 -0.2982 -0.7416 -1.4821
   57CHL1  H21B 6678   4.939   0.476   9.120 -2.1964 -0.9137  1.4128
   57CHL1  H21C 6679   4.860   0.618   9.020  2.0066 -1.0503 -1.7539
   57CHL1   C22 6680   5.046   0.718   9.214  0.2098  0.4248 -0.5596
   57CHL1  H22A 6681   5.101   0.725   9.310  0.5625 -0.2289 -0.7096
   57CHL1  H22B 6682   5.101   0.654   9.142 -0.0506  0.5428 -0.8657
   57CHL1   C23 6683   5.041   0.858   9.152  0.8376  0.0269  0.3589
   57CHL1  H23A 6684   4.957   0.861   9.080 -1.8754 -1.4820  3.2119
   57CHL1  H23B 6685   5.010   0.930   9.231 -1.3397 -0.5400  0.0951
   57CHL1   C24 6686   5.169   0.907   9.083  0.1411 -0.2826  0.2768
   57CHL1  H24A 6687   5.235   0.922   9.171  0.6934  1.9476 -0.4545
   57CHL1  H24B 6688   5.219   0.828   9.023 -0.6101  0.1182 -0.8941
   57CHL1   C25 6689   5.147   1.023   8.988  0.4408 -0.2137  1.2928
   57CHL1   H25 6690   5.240   1.070   8.951  0.8242  0.6029  3.1863
   57CHL1   C26 6691   5.072   0.978   8.861 -0.6859 -0.2025  0.0500
   57CHL1  H26A 6692   4.970   0.948   8.893 -1.1235  0.1434 -0.9765
   57CHL1  H26B 6693   5.058   1.056   8.783 -0.8818  1.0679  1.3089
   57CHL1  H26C 6694   5.115   0.887   8.816  0.5412  0.7576 -0.7896
   57CHL1   C27 6695   5.068   1.134   9.060  0.2272  0.3260  0.6375
   57CHL1  H27A 6696   4.959   1.113   9.063 -0.0200  1.4409 -0.0123
   57CHL1  H27B 6697   5.107   1.147   9.163 -1.6827  1.7958  1.2347
   57CHL1  H27C 6698   5.080   1.229   9.003  0.1695 -0.4307 -0.6785
   58CHL1    C3 6699   5.509   5.704  10.166  0.5905 -0.1169  0.3897
   58CHL1    H3 6700   5.421   5.770  10.158  0.0138 -0.7202  1.5779
   58CHL1    O3 6701   5.534   5.670  10.294 -0.6196  0.3840  0.2516
   58CHL1   H3' 6702   5.624   5.640  10.281 -0.8264  0.0761 -0.5371
   58CHL1    C4 6703   5.488   5.581  10.081 -0.4363 -0.1040  0.2308
   58CHL1   H4A 6704   5.578   5.519  10.102  0.3321  1.0717  0.4844
   58CHL1   H4B 6705   5.399   5.526  10.120  0.6558 -0.8905  1.7257
   58CHL1    C5 6706   5.469   5.618   9.935 -0.2100  0.1348  0.0783
   58CHL1    C6 6707   5.360   5.585   9.860 -0.7977  0.2709  0.3379
   58CHL1    H6 6708   5.291   5.516   9.912  0.3779  0.2239  1.9117
   58CHL1    C7 6709   5.347   5.598   9.709 -0.1033 -0.6803 -0.0473
   58CHL1   H7A 6710   5.310   5.503   9.666 -3.4836  0.3997  0.2187
   58CHL1   H7B 6711   5.271   5.676   9.685  0.2751  0.7242  2.8294
   58CHL1    C8 6712   5.483   5.643   9.641 -0.2420 -0.0314  0.6905
   58CHL1    H8 6713   5.543   5.549   9.632  0.2895  0.4858 -1.7031
   58CHL1   C14 6714   5.459   5.699   9.495 -0.5834  0.0589 -0.0007
   58CHL1   H14 6715   5.390   5.784   9.515 -0.7509  0.3254 -1.5802
   58CHL1   C15 6716   5.372   5.618   9.398  0.2182  0.1242  0.2903
   58CHL1  H15A 6717   5.419   5.517   9.400  1.1069  0.5270  0.9272
   58CHL1  H15B 6718   5.266   5.613   9.430 -0.2820  0.9205 -1.1519
   58CHL1   C16 6719   5.392   5.683   9.261 -0.9124 -0.1992 -0.1373
   58CHL1  H16A 6720   5.417   5.613   9.178 -1.0480  1.1854 -1.3770
   58CHL1  H16B 6721   5.305   5.746   9.235 -0.1950  1.7189  1.8233
   58CHL1   C17 6722   5.510   5.790   9.283 -0.3004  0.4585 -0.0326
   58CHL1   H17 6723   5.447   5.879   9.307 -0.3755  0.2802  0.4351
   58CHL1   C13 6724   5.581   5.750   9.421 -0.1013  0.2951  0.4499
   58CHL1   C18 6725   5.689   5.633   9.404 -0.1715  0.3829  0.5840
   58CHL1  H18A 6726   5.658   5.549   9.337  1.6508 -0.2905  0.5362
   58CHL1  H18B 6727   5.781   5.663   9.350  0.1424 -0.9063  0.3537
   58CHL1  H18C 6728   5.726   5.594   9.501 -0.0880 -0.3114  0.2851
   58CHL1   C12 6729   5.643   5.870   9.497  0.7679  0.3722  0.0519
   58CHL1  H12A 6730   5.733   5.908   9.445  0.7189 -1.2859 -1.3207
   58CHL1  H12B 6731   5.568   5.950   9.508 -0.3126 -0.3826 -1.5294
   58CHL1   C11 6732   5.677   5.828   9.644 -0.0298  0.3836 -0.4462
   58CHL1  H11A 6733   5.763   5.759   9.653  0.7623  1.4191  0.1205
   58CHL1  H11B 6734   5.712   5.908   9.712  0.8506 -1.0075  0.8180
   58CHL1    C9 6735   5.557   5.759   9.725  0.8439 -0.1284 -0.1553
   58CHL1    H9 6736   5.489   5.846   9.739  0.7818 -0.0892 -0.6784
   58CHL1   C10 6737   5.585   5.702   9.863  0.5920  0.6779 -0.5858
   58CHL1   C19 6738   5.710   5.610   9.863 -0.8091  0.1131 -0.2984
   58CHL1  H19A 6739   5.790   5.679   9.827 -2.0089  1.2855 -0.8155
   58CHL1  H19B 6740   5.742   5.570   9.961 -0.2012  0.6171 -0.2857
   58CHL1  H19C 6741   5.712   5.523   9.793  6.1895  0.7495 -1.6074
   58CHL1    C1 6742   5.610   5.822   9.959  0.0039  0.3195  0.6418
   58CHL1   H1A 6743   5.700   5.873   9.920  0.1914 -0.2975  0.2524
   58CHL1   H1B 6744   5.523   5.888   9.940  0.3319  0.7182  0.5177
   58CHL1    C2 6745   5.632   5.791  10.110  0.0471 -0.5643  0.0037
   58CHL1   H2A 6746   5.655   5.888  10.158 -0.1346 -1.4483  1.9802
   58CHL1   H2B 6747   5.722   5.728  10.126 -1.6468 -2.8430  1.4244
   58CHL1   C20 6748   5.593   5.802   9.158  0.3476 -0.6643 -0.2031
   58CHL1   H20 6749   5.625   5.699   9.134  2.5473  0.2340 -1.4905
   58CHL1   C21 6750   5.721   5.883   9.180  0.0964 -0.7561  0.2908
   58CHL1  H21A 6751   5.773   5.842   9.269 -0.9870 -2.4510  0.1933
   58CHL1  H21B 6752   5.701   5.991   9.196  0.9525 -0.2367 -1.8308
   58CHL1  H21C 6753   5.792   5.877   9.095 -1.4941 -2.5447 -0.9957
   58CHL1   C22 6754   5.522   5.858   9.032  0.1557 -0.0119 -0.2940
   58CHL1  H22A 6755   5.414   5.832   9.036 -0.1255  1.1738  0.7463
   58CHL1  H22B 6756   5.528   5.969   9.037  1.4170 -0.0612 -0.4278
   58CHL1   C23 6757   5.590   5.809   8.903  0.0698 -0.0725 -0.2797
   58CHL1  H23A 6758   5.695   5.846   8.908 -0.6122  1.9302  4.1298
   58CHL1  H23B 6759   5.576   5.699   8.896 -0.8667 -0.1669  2.1641
   58CHL1   C24 6760   5.524   5.892   8.792 -0.1756  0.7080  0.2368
   58CHL1  H24A 6761   5.413   5.886   8.786 -0.1227  0.9476 -1.3976
   58CHL1  H24B 6762   5.547   6.001   8.801  5.5211 -0.3205  1.5975
   58CHL1   C25 6763   5.578   5.848   8.650 -0.5375 -0.2183 -0.2496
   58CHL1   H25 6764   5.561   5.741   8.627  0.2186 -0.2659 -0.6242
   58CHL1   C26 6765   5.496   5.927   8.551  0.2286  0.3272  0.1549
   58CHL1  H26A 6766   5.386   5.908   8.558 -0.0731  1.1660 -1.6405
   58CHL1  H26B 6767   5.514   6.036   8.565 -1.9585  0.6833  0.5808
   58CHL1  H26C 6768   5.515   5.891   8.448 -0.1457 -0.0374  0.2098
   58CHL1   C27 6769   5.724   5.887   8.622  0.5043  0.0699 -0.2588
   58CHL1  H27A 6770   5.737   5.995   8.647  2.5280  0.0494 -1.0933
   58CHL1  H27B 6771   5.797   5.842   8.693 -1.3423 -0.2365  1.5620
   58CHL1  H27C 6772   5.751   5.871   8.516  1.7690 -0.1135  0.0806
   59CHL1    C3 6773   4.145   5.084  10.276 -0.4229  0.1939  0.5845
   59CHL1    H3 6774   4.249   5.075  10.236 -0.2656 -1.8766  1.3640
   59CHL1    O3 6775   4.156   5.061  10.411  0.7254  0.1704 -0.3523
   59CHL1   H3' 6776   4.068   5.080  10.444 -0.5271 -2.1158 -2.0210
   59CHL1    C4 6777   4.090   5.219  10.238 -1.6052  0.0661 -0.2803
   59CHL1   H4A 6778   3.987   5.238  10.274 -1.6411  1.2654 -0.9412
   59CHL1   H4B 6779   4.140   5.301  10.295 -2.0750  0.0178  0.2093
   59CHL1    C5 6780   4.092   5.249  10.090 -1.0170  0.0526 -0.6211
   59CHL1    C6 6781   4.153   5.349  10.025  0.0090 -0.3373  0.1771
   59CHL1    H6 6782   4.219   5.414  10.085  0.2862  0.2230 -0.7138
   59CHL1    C7 6783   4.133   5.393   9.880 -0.2834 -0.5839  0.9259
   59CHL1   H7A 6784   4.099   5.499   9.871 -1.1549 -0.9674 -0.8583
   59CHL1   H7B 6785   4.232   5.406   9.831 -0.0558  1.3151  1.7809
   59CHL1    C8 6786   4.039   5.302   9.808  0.7870 -0.7331 -0.7576
   59CHL1    H8 6787   3.939   5.340   9.839  0.6862 -2.6338  1.4973
   59CHL1   C14 6788   4.065   5.305   9.656 -0.0809 -0.0313  0.0714
   59CHL1   H14 6789   4.169   5.265   9.648 -0.7262 -2.2891  1.8800
   59CHL1   C15 6790   4.068   5.446   9.594  0.4331  0.3986 -0.1056
   59CHL1  H15A 6791   3.970   5.495   9.612  0.3093  0.1046  0.0275
   59CHL1  H15B 6792   4.139   5.520   9.635  1.3491 -1.4221  1.7695
   59CHL1   C16 6793   4.072   5.408   9.445 -1.1514  0.3225 -0.5572
   59CHL1  H16A 6794   4.007   5.463   9.373 -3.1800 -3.1372 -1.6137
   59CHL1  H16B 6795   4.176   5.422   9.408 -0.6599  1.1723  1.0589
   59CHL1   C17 6796   4.051   5.252   9.431  0.6157  0.3521  0.3266
   59CHL1   H17 6797   4.155   5.213   9.430  0.7007  0.4555  1.9286
   59CHL1   C13 6798   3.984   5.216   9.570  0.1217 -0.5011  0.6918
   59CHL1   C18 6799   3.836   5.259   9.572 -0.1430 -0.3864  0.6610
   59CHL1  H18A 6800   3.816   5.344   9.503  0.5617 -1.7049 -1.2470
   59CHL1  H18B 6801   3.780   5.167   9.547  0.3211 -0.4175 -0.3223
   59CHL1  H18C 6802   3.806   5.288   9.675 -0.0682  0.1808  0.5271
   59CHL1   C12 6803   3.999   5.068   9.613 -0.3664 -0.2069 -0.3525
   59CHL1  H12A 6804   3.928   4.997   9.564  0.9707 -0.4996 -1.9544
   59CHL1  H12B 6805   4.097   5.029   9.579 -1.8312 -1.2024 -3.8705
   59CHL1   C11 6806   3.984   5.048   9.762  0.0959  1.0291 -0.1245
   59CHL1  H11A 6807   3.875   5.045   9.780  0.3939 -1.8523  1.7629
   59CHL1  H11B 6808   4.021   4.951   9.800 -1.6948  0.8259  1.2380
   59CHL1    C9 6809   4.049   5.152   9.863 -0.9082 -0.5985  0.7864
   59CHL1    H9 6810   4.158   5.133   9.849 -1.1859 -0.4119 -2.2165
   59CHL1   C10 6811   4.013   5.141  10.008  0.0049  0.7335 -0.0281
   59CHL1   C19 6812   3.859   5.162  10.032  0.2281 -0.2449 -0.1325
   59CHL1  H19A 6813   3.803   5.083   9.977 -0.3526 -0.5726  0.9214
   59CHL1  H19B 6814   3.833   5.154  10.139 -0.0443  0.9844 -0.0910
   59CHL1  H19C 6815   3.822   5.261   9.999 -1.6430 -0.0176  2.3614
   59CHL1    C1 6816   4.048   4.994  10.058 -0.1765 -0.5180  0.3426
   59CHL1   H1A 6817   3.981   4.922  10.007  2.3328 -1.7697 -1.3820
   59CHL1   H1B 6818   4.144   4.976  10.006 -0.4783 -0.4362 -0.2439
   59CHL1    C2 6819   4.059   4.977  10.208  0.1020  0.3790  0.0589
   59CHL1   H2A 6820   4.109   4.881  10.233  4.3951  1.8978 -1.7022
   59CHL1   H2B 6821   3.955   4.976  10.246  0.3346 -0.1787  0.7129
   59CHL1   C20 6822   3.990   5.210   9.298 -0.3705  0.0503  0.2287
   59CHL1   H20 6823   3.895   5.267   9.291 -0.0891  0.5728  0.5300
   59CHL1   C21 6824   3.937   5.062   9.283 -0.4685 -0.3727 -0.3395
   59CHL1  H21A 6825   3.859   5.046   9.361  0.6431  0.6820  1.0509
   59CHL1  H21B 6826   4.017   4.986   9.290 -0.4885 -0.3079  0.7650
   59CHL1  H21C 6827   3.893   5.041   9.183 -0.6297 -1.5485 -0.0299
   59CHL1   C22 6828   4.084   5.250   9.182 -0.6483 -0.8309  0.9203
   59CHL1  H22A 6829   4.129   5.351   9.188  1.6316 -1.6374 -0.9682
   59CHL1  H22B 6830   4.162   5.172   9.172 -1.4830 -1.5543 -0.2362
   59CHL1   C23 6831   4.010   5.256   9.043  0.2150  0.1660  0.1688
   59CHL1  H23A 6832   3.956   5.163   9.015  0.1641 -0.5098  2.3264
   59CHL1  H23B 6833   3.925   5.327   9.051  1.2226  1.5179 -0.6328
   59CHL1   C24 6834   4.093   5.306   8.921  0.0561 -0.1386  0.9208
   59CHL1  H24A 6835   4.032   5.286   8.830  0.0615 -2.2158  1.3419
   59CHL1  H24B 6836   4.105   5.413   8.948 -2.9601  0.2608  0.9212
   59CHL1   C25 6837   4.224   5.240   8.887 -0.2628  0.6668  0.1018
   59CHL1   H25 6838   4.276   5.256   8.984 -2.0813 -1.2776  1.4832
   59CHL1   C26 6839   4.218   5.084   8.873  0.7650  0.1330  0.1933
   59CHL1  H26A 6840   4.144   5.056   8.795 -0.6843  1.8752  0.8727
   59CHL1  H26B 6841   4.321   5.045   8.859  0.6786  0.5092 -1.7489
   59CHL1  H26C 6842   4.171   5.042   8.965 -1.4664 -1.2045 -1.4472
   59CHL1   C27 6843   4.308   5.311   8.776  0.1206 -0.3466  0.3636
   59CHL1  H27A 6844   4.408   5.265   8.764  0.6579  1.1326 -1.2825
   59CHL1  H27B 6845   4.255   5.297   8.679 -0.3191 -0.5425  0.6330
   59CHL1  H27C 6846   4.320   5.421   8.786  0.6801 -0.4571  0.9500
   60CHL1    C3 6847   4.748   5.013  10.054  0.0232  0.0963  0.1898
   60CHL1    H3 6848   4.775   5.117  10.028  1.3819  0.6116  3.2176
   60CHL1    O3 6849   4.768   5.000  10.196  0.5328 -0.0475  0.0484
   60CHL1   H3' 6850   4.758   4.907  10.217  0.0845 -0.3712 -1.4825
   60CHL1    C4 6851   4.602   4.974  10.022 -1.3821 -0.5430  0.0069
   60CHL1   H4A 6852   4.597   4.875  10.074 -0.2063  0.0314  1.2860
   60CHL1   H4B 6853   4.530   5.035  10.081 -1.6244 -0.7561 -0.0677
   60CHL1    C5 6854   4.574   4.960   9.876  0.8351  0.4251  0.2975
   60CHL1    C6 6855   4.471   5.026   9.822 -0.7474  0.7745 -0.2413
   60CHL1    H6 6856   4.390   5.070   9.881 -0.5743  0.4293  0.2562
   60CHL1    C7 6857   4.446   5.022   9.675 -0.0388  0.3649 -0.0127
   60CHL1   H7A 6858   4.338   5.010   9.654  0.6032 -2.8037 -2.2093
   60CHL1   H7B 6859   4.484   5.120   9.639 -0.0499 -0.5179 -2.6248
   60CHL1    C8 6860   4.516   4.914   9.603  0.1033 -0.8459  0.4658
   60CHL1    H8 6861   4.471   4.817   9.632 -2.5052  0.3099  0.4828
   60CHL1   C14 6862   4.493   4.924   9.453 -0.2658  0.3369 -0.4987
   60CHL1   H14 6863   4.538   5.021   9.422 -1.1116  1.1554  0.7676
   60CHL1   C15 6864   4.353   4.906   9.403 -0.3851  0.0830 -0.3707
   60CHL1  H15A 6865   4.307   4.821   9.458  1.1532 -0.2074  0.5259
   60CHL1  H15B 6866   4.287   4.994   9.419 -0.2846  0.1438 -0.2841
   60CHL1   C16 6867   4.364   4.876   9.250 -0.1008 -0.7191 -0.6651
   60CHL1  H16A 6868   4.307   4.789   9.214 -0.0845 -1.4071  0.8912
   60CHL1  H16B 6869   4.336   4.965   9.189  0.7658  0.0553  0.0233
   60CHL1   C17 6870   4.516   4.849   9.228 -0.0241 -0.3609 -0.2370
   60CHL1   H17 6871   4.561   4.950   9.212 -0.0678 -0.3229 -0.1230
   60CHL1   C13 6872   4.563   4.822   9.373 -0.5638 -0.0995 -0.5568
   60CHL1   C18 6873   4.521   4.679   9.407  0.3134  0.5080  0.4729
   60CHL1  H18A 6874   4.417   4.661   9.372  0.4189 -1.1661  0.9437
   60CHL1  H18B 6875   4.585   4.610   9.347 -0.3554 -0.5945  1.0009
   60CHL1  H18C 6876   4.517   4.655   9.515 -2.2835 -1.1747  0.1059
   60CHL1   C12 6877   4.714   4.837   9.402 -0.5975  0.4255  0.2686
   60CHL1  H12A 6878   4.775   4.770   9.337  0.9434  1.1219  0.9600
   60CHL1  H12B 6879   4.750   4.941   9.385  0.3915 -0.1479 -1.5164
   60CHL1   C11 6880   4.749   4.809   9.551 -0.0210 -0.8275 -0.2120
   60CHL1  H11A 6881   4.727   4.702   9.571 -1.0682 -0.8611 -1.4211
   60CHL1  H11B 6882   4.858   4.821   9.568  0.0045  2.5478 -1.8809
   60CHL1    C9 6883   4.662   4.908   9.642 -0.4682  0.4151 -0.0175
   60CHL1    H9 6884   4.713   5.004   9.620  0.6436  0.1348  1.2032
   60CHL1   C10 6885   4.677   4.882   9.796  0.3445  0.4439  0.4988
   60CHL1   C19 6886   4.643   4.730   9.822 -0.1485  1.1902  0.2241
   60CHL1  H19A 6887   4.716   4.662   9.775  0.3056  0.5568  1.8024
   60CHL1  H19B 6888   4.639   4.690   9.925  0.6166  2.9204  0.9625
   60CHL1  H19C 6889   4.543   4.703   9.780 -1.0746  0.4589  2.7242
   60CHL1    C1 6890   4.821   4.925   9.839  0.6448  0.4251  0.1925
   60CHL1   H1A 6891   4.897   4.860   9.791  1.6927  0.4526  1.7419
   60CHL1   H1B 6892   4.839   5.031   9.810  0.9786 -0.2821 -2.4963
   60CHL1    C2 6893   4.839   4.909   9.987  0.4738 -0.0660  0.2810
   60CHL1   H2A 6894   4.940   4.940  10.021  0.5776  1.9005 -1.5856
   60CHL1   H2B 6895   4.809   4.804  10.007 -1.5206  0.5981  1.0159
   60CHL1   C20 6896   4.563   4.764   9.117  0.8101 -0.4996  0.4246
   60CHL1   H20 6897   4.663   4.730   9.150  0.0291 -0.8350  2.5887
   60CHL1   C21 6898   4.557   4.860   8.996 -0.7353 -0.0629  0.4205
   60CHL1  H21A 6899   4.641   4.933   9.003 -2.0924  1.5258  1.1590
   60CHL1  H21B 6900   4.463   4.919   9.000 -0.6223  0.1904 -0.4506
   60CHL1  H21C 6901   4.560   4.808   8.899 -0.9953  2.9063 -1.3002
   60CHL1   C22 6902   4.478   4.639   9.085  0.3600  0.1111 -0.2327
   60CHL1  H22A 6903   4.447   4.579   9.173  0.7400  2.0609  1.3208
   60CHL1  H22B 6904   4.381   4.677   9.045  0.7590  1.4370 -0.0076
   60CHL1   C23 6905   4.531   4.542   8.981  0.9382 -0.1708 -0.8899
   60CHL1  H23A 6906   4.555   4.606   8.893  0.1764  0.3317 -0.7358
   60CHL1  H23B 6907   4.627   4.494   9.010  0.2322 -1.2941 -0.3743
   60CHL1   C24 6908   4.426   4.433   8.956  1.2098  0.8164 -0.1834
   60CHL1  H24A 6909   4.387   4.398   9.054 -1.3937  1.8099 -0.7801
   60CHL1  H24B 6910   4.338   4.489   8.918  0.4021 -0.0192  0.4204
   60CHL1   C25 6911   4.472   4.327   8.857 -0.4848 -0.2552  0.5333
   60CHL1   H25 6912   4.571   4.288   8.887 -0.4595 -0.4713  0.1701
   60CHL1   C26 6913   4.383   4.205   8.864 -0.0881 -0.0000 -0.0544
   60CHL1  H26A 6914   4.367   4.175   8.970 -1.1971 -0.4508 -0.3268
   60CHL1  H26B 6915   4.280   4.225   8.826  0.2771 -1.1646 -1.7883
   60CHL1  H26C 6916   4.417   4.112   8.812 -2.6712 -0.4194 -1.1691
   60CHL1   C27 6917   4.488   4.382   8.708  1.0762  0.8325  0.4416
   60CHL1  H27A 6918   4.399   4.435   8.671  0.9130  0.2259 -0.0437
   60CHL1  H27B 6919   4.579   4.445   8.699  1.6521 -0.0647 -0.1899
   60CHL1  H27C 6920   4.493   4.299   8.635  0.6704  1.5946 -0.4691
   61CHL1    C3 6921   0.231   5.431  10.191 -0.0602 -0.0816 -0.3960
   61CHL1    H3 6922   0.340   5.449  10.177 -0.0043 -0.0655  0.0415
   61CHL1    O3 6923   0.205   5.447  10.331  0.0535 -0.4618 -0.0160
   61CHL1   H3' 6924   0.110   5.447  10.340  0.0621 -0.1552  0.0959
   61CHL1    C4 6925   0.136   5.525  10.109 -0.8103  0.2726  0.3424
   61CHL1   H4A 6926   0.029   5.510  10.135 -1.0784 -4.1561 -2.1970
   61CHL1   H4B 6927   0.162   5.625  10.147  0.8204  0.4595 -1.1553
   61CHL1    C5 6928   0.150   5.522   9.958 -0.0864  0.7826  0.0912
   61CHL1    C6 6929   0.184   5.628   9.888 -0.6829 -0.3236 -0.3856
   61CHL1    H6 6930   0.203   5.729   9.926  0.2687  0.8027 -3.5557
   61CHL1    C7 6931   0.191   5.625   9.739  0.2459 -0.1326  0.5240
   61CHL1   H7A 6932   0.139   5.715   9.698  1.9007  0.1611 -1.0730
   61CHL1   H7B 6933   0.296   5.632   9.703 -0.0183 -2.3401 -0.8919
   61CHL1    C8 6934   0.136   5.494   9.672  0.6045  0.3940 -0.2561
   61CHL1    H8 6935   0.026   5.504   9.670  0.4218 -1.3330 -1.4157
   61CHL1   C14 6936   0.187   5.476   9.534  0.2752 -0.2729 -0.0825
   61CHL1   H14 6937   0.297   5.468   9.523  0.0201 -1.6325 -2.1824
   61CHL1   C15 6938   0.146   5.583   9.432  0.6454 -1.1956 -0.2137
   61CHL1  H15A 6939   0.038   5.606   9.437  0.5796 -1.4440 -0.4478
   61CHL1  H15B 6940   0.195   5.682   9.445 -1.0007  0.1145 -3.0584
   61CHL1   C16 6941   0.163   5.519   9.299 -0.4756 -0.0405  0.6263
   61CHL1  H16A 6942   0.074   5.528   9.234 -0.1235 -1.5617 -0.1082
   61CHL1  H16B 6943   0.242   5.573   9.242 -1.1317 -0.7994 -1.0591
   61CHL1   C17 6944   0.202   5.370   9.323 -0.0088  0.0240  0.2679
   61CHL1   H17 6945   0.313   5.368   9.330 -0.0014  0.0752  0.1690
   61CHL1   C13 6946   0.150   5.343   9.469 -0.0948 -0.1546  0.0157
   61CHL1   C18 6947  -0.007   5.324   9.471 -0.0627  0.0987 -0.9653
   61CHL1  H18A 6948  -0.026   5.215   9.457  4.0364 -0.7846 -0.6726
   61CHL1  H18B 6949  -0.049   5.346   9.572  1.3238 -0.4859 -0.2417
   61CHL1  H18C 6950  -0.073   5.377   9.399 -1.1308 -0.4062 -0.3838
   61CHL1   C12 6951   0.220   5.229   9.544 -0.0801  0.5282 -0.7250
   61CHL1  H12A 6952   0.191   5.127   9.511 -0.3455  0.4766 -0.3426
   61CHL1  H12B 6953   0.330   5.242   9.539 -0.4255  3.9227 -1.7650
   61CHL1   C11 6954   0.170   5.235   9.691  0.8729  0.0800 -0.2620
   61CHL1  H11A 6955   0.064   5.200   9.686  0.1015  2.1294  0.6272
   61CHL1  H11B 6956   0.226   5.160   9.752 -1.8899 -1.4222  0.6227
   61CHL1    C9 6957   0.180   5.374   9.759  0.4058  0.7817  0.4376
   61CHL1    H9 6958   0.291   5.379   9.755  0.4980 -1.0068 -1.4236
   61CHL1   C10 6959   0.135   5.379   9.910  0.0435 -0.1193  0.9339
   61CHL1   C19 6960  -0.018   5.341   9.911 -0.4716 -0.8595  0.2652
   61CHL1  H19A 6961  -0.018   5.237   9.871  2.0581 -0.4106 -1.0677
   61CHL1  H19B 6962  -0.068   5.341  10.011  0.2935 -0.0923  0.6596
   61CHL1  H19C 6963  -0.075   5.406   9.841  1.4918  2.2291  1.3498
   61CHL1    C1 6964   0.222   5.286   9.996 -0.0344  0.4837  0.1078
   61CHL1   H1A 6965   0.208   5.182   9.960  2.1838  0.5018 -1.0326
   61CHL1   H1B 6966   0.322   5.320   9.962  0.9661 -0.9936  1.3779
   61CHL1    C2 6967   0.209   5.289  10.154  0.1665  0.1510  0.3259
   61CHL1   H2A 6968   0.282   5.225  10.207 -0.9055  0.0732  1.7415
   61CHL1   H2B 6969   0.107   5.258  10.182 -0.4644  1.4780 -0.3865
   61CHL1   C20 6970   0.149   5.293   9.197  0.0565 -0.6064 -0.5156
   61CHL1   H20 6971   0.040   5.280   9.211  0.5805 -2.7341  2.8040
   61CHL1   C21 6972   0.211   5.153   9.221 -0.0446  0.5170  0.1779
   61CHL1  H21A 6973   0.178   5.085   9.140 -0.5065 -0.2811  1.0082
   61CHL1  H21B 6974   0.181   5.103   9.316  1.8130 -3.2387 -1.0076
   61CHL1  H21C 6975   0.321   5.170   9.225  0.2253 -1.1309  2.5175
   61CHL1   C22 6976   0.194   5.352   9.065 -0.5840  0.2977  0.3117
   61CHL1  H22A 6977   0.188   5.461   9.044  0.7090  0.4274  0.5316
   61CHL1  H22B 6978   0.301   5.322   9.064 -0.9885 -1.2180 -0.0674
   61CHL1   C23 6979   0.135   5.281   8.941 -0.5952 -0.3590  0.3717
   61CHL1  H23A 6980   0.086   5.183   8.960 -5.6483  1.5799 -0.8863
   61CHL1  H23B 6981   0.056   5.352   8.906  1.6018  0.6842 -2.9253
   61CHL1   C24 6982   0.240   5.268   8.825 -0.5660  0.1713 -0.1744
   61CHL1  H24A 6983   0.330   5.234   8.880 -0.1278  0.8352 -0.4516
   61CHL1  H24B 6984   0.196   5.193   8.756  1.6366  0.6663 -2.2700
   61CHL1   C25 6985   0.271   5.399   8.751  0.3857  0.1462 -0.1645
   61CHL1   H25 6986   0.281   5.479   8.828 -1.7756  0.5944 -0.2923
   61CHL1   C26 6987   0.397   5.390   8.657 -0.0263 -0.6412 -0.0087
   61CHL1  H26A 6988   0.480   5.399   8.730 -0.4080  0.5232  0.2914
   61CHL1  H26B 6989   0.392   5.301   8.591  0.7604  0.7738 -2.0517
   61CHL1  H26C 6990   0.404   5.477   8.589 -2.6255 -0.1200  0.2596
   61CHL1   C27 6991   0.152   5.448   8.663  0.5711  0.3533 -0.1213
   61CHL1  H27A 6992   0.187   5.522   8.588 -1.5118  0.8173 -0.7130
   61CHL1  H27B 6993   0.105   5.362   8.611 -0.8686  1.3905 -0.5916
   61CHL1  H27C 6994   0.079   5.492   8.734 -0.6801  1.8927 -2.2296
   62CHL1    C3 6995   1.299   6.297  10.057  0.5256  0.0047 -0.3865
   62CHL1    H3 6996   1.410   6.290  10.059  0.5057 -0.8587 -1.3975
   62CHL1    O3 6997   1.244   6.315  10.189  0.1700 -0.0556 -0.7759
   62CHL1   H3' 6998   1.202   6.232  10.213  2.2759 -1.3545 -1.3232
   62CHL1    C4 6999   1.242   6.418   9.975  0.1682  0.1127  0.0852
   62CHL1   H4A 7000   1.132   6.414   9.987  0.3122 -1.9000  1.1911
   62CHL1   H4B 7001   1.264   6.516  10.023 -0.1213  0.2235 -0.0084
   62CHL1    C5 7002   1.280   6.402   9.828 -0.2630  0.6469 -0.3131
   62CHL1    C6 7003   1.348   6.495   9.764 -0.0159  0.0970 -0.5426
   62CHL1    H6 7004   1.377   6.579   9.828 -0.9635 -2.0818  3.0500
   62CHL1    C7 7005   1.397   6.494   9.621 -0.3821 -0.4163 -0.1366
   62CHL1   H7A 7006   1.383   6.585   9.559 -0.5407 -0.1112  0.3457
   62CHL1   H7B 7007   1.506   6.472   9.619 -0.4052 -0.9452  2.0411
   62CHL1    C8 7008   1.337   6.372   9.546 -0.1137 -0.4096  0.5028
   62CHL1    H8 7009   1.235   6.401   9.513  0.1007 -2.3901 -2.2732
   62CHL1   C14 7010   1.421   6.339   9.426  0.4421  0.2538  0.7024
   62CHL1   H14 7011   1.510   6.292   9.474 -0.2984 -0.0383  1.8486
   62CHL1   C15 7012   1.478   6.451   9.347 -0.2759  0.2357  1.1244
   62CHL1  H15A 7013   1.389   6.512   9.319  1.1655  0.8938 -2.7601
   62CHL1  H15B 7014   1.547   6.522   9.397  1.0979 -0.8791  0.8697
   62CHL1   C16 7015   1.522   6.375   9.217 -0.1470 -0.0517  0.0925
   62CHL1  H16A 7016   1.469   6.439   9.144  0.4870 -0.5363 -0.8063
   62CHL1  H16B 7017   1.631   6.379   9.199 -0.1797  1.7178  0.1538
   62CHL1   C17 7018   1.470   6.225   9.237  0.9698  0.4598  0.5408
   62CHL1   H17 7019   1.555   6.171   9.285  1.8993 -0.1143 -1.6104
   62CHL1   C13 7020   1.356   6.229   9.341  0.1458  0.8194 -0.1097
   62CHL1   C18 7021   1.221   6.263   9.269 -0.3091  0.9553  0.7678
   62CHL1  H18A 7022   1.214   6.359   9.214 -0.9024 -0.0978 -1.0961
   62CHL1  H18B 7023   1.192   6.174   9.208  2.5821 -0.1272  0.7958
   62CHL1  H18C 7024   1.148   6.265   9.353 -0.2013  0.8862  0.8633
   62CHL1   C12 7025   1.340   6.097   9.422 -0.4550 -0.2042  0.8641
   62CHL1  H12A 7026   1.288   6.018   9.364  0.1407 -2.0064  2.6637
   62CHL1  H12B 7027   1.440   6.053   9.440 -0.9597 -0.9139  2.0215
   62CHL1   C11 7028   1.257   6.121   9.553 -0.4741  0.5685  0.1200
   62CHL1  H11A 7029   1.154   6.149   9.522 -0.4074 -1.5366 -2.3658
   62CHL1  H11B 7030   1.250   6.026   9.609  2.5244 -0.3109 -0.8077
   62CHL1    C9 7031   1.308   6.245   9.632 -0.8810  0.6764 -0.1135
   62CHL1    H9 7032   1.408   6.216   9.670 -0.8243  0.4912 -0.4084
   62CHL1   C10 7033   1.234   6.265   9.768 -0.3619  0.8948  0.6604
   62CHL1   C19 7034   1.089   6.284   9.736  1.4669  0.3178  0.4332
   62CHL1  H19A 7035   1.066   6.355   9.653  0.2440 -0.6822 -0.1174
   62CHL1  H19B 7036   1.043   6.186   9.709  1.3082  0.5853 -0.3059
   62CHL1  H19C 7037   1.029   6.303   9.827 -0.1224  0.0335 -0.5085
   62CHL1    C1 7038   1.259   6.141   9.858  0.1602  0.1049  0.0089
   62CHL1   H1A 7039   1.195   6.059   9.818  1.0267  0.7428 -2.8642
   62CHL1   H1B 7040   1.362   6.099   9.846 -0.4766 -1.0053 -2.0545
   62CHL1    C2 7041   1.238   6.161  10.017 -0.9392  0.4354  0.0325
   62CHL1   H2A 7042   1.290   6.087  10.082 -1.0579  1.0999  0.8977
   62CHL1   H2B 7043   1.128   6.159  10.027 -0.9101 -0.6113  0.2576
   62CHL1   C20 7044   1.436   6.156   9.103  0.9214 -0.3031 -1.2986
   62CHL1   H20 7045   1.350   6.212   9.063  0.5856  0.1610  0.0229
   62CHL1   C21 7046   1.418   6.001   9.121 -0.3702 -0.0231  0.1182
   62CHL1  H21A 7047   1.499   5.967   9.189 -0.4198 -0.0530  0.1615
   62CHL1  H21B 7048   1.446   5.944   9.030  2.7011  0.1563  0.8282
   62CHL1  H21C 7049   1.313   5.980   9.149 -1.1989  2.6474 -0.7430
   62CHL1   C22 7050   1.545   6.171   8.997 -0.2692 -0.7797  0.7699
   62CHL1  H22A 7051   1.605   6.264   9.010  0.7469 -1.6295  2.4931
   62CHL1  H22B 7052   1.628   6.098   8.999  1.8780  1.4197 -1.1002
   62CHL1   C23 7053   1.480   6.177   8.856  0.1978  0.0614  0.2244
   62CHL1  H23A 7054   1.432   6.078   8.845 -1.0686  0.5680  1.0149
   62CHL1  H23B 7055   1.399   6.253   8.854 -0.7255 -0.9084 -0.2914
   62CHL1   C24 7056   1.573   6.193   8.732  0.6826  0.3184 -0.1229
   62CHL1  H24A 7057   1.602   6.300   8.729 -3.4469  1.5634 -1.3367
   62CHL1  H24B 7058   1.661   6.128   8.755 -0.0286 -1.3222 -1.7711
   62CHL1   C25 7059   1.509   6.145   8.595 -0.3296  0.4389 -0.4995
   62CHL1   H25 7060   1.584   6.145   8.513 -0.0435 -1.9344 -0.3043
   62CHL1   C26 7061   1.443   6.004   8.607  0.2142 -0.0409  0.0553
   62CHL1  H26A 7062   1.432   5.957   8.507 -0.8171  0.3662 -0.0275
   62CHL1  H26B 7063   1.513   5.935   8.660 -0.0296 -1.7121 -1.6898
   62CHL1  H26C 7064   1.347   6.005   8.663  1.2035  2.0408  1.8939
   62CHL1   C27 7065   1.389   6.222   8.536  0.3020  0.3106 -0.1622
   62CHL1  H27A 7066   1.418   6.328   8.524 -2.1002  1.1404  0.7988
   62CHL1  H27B 7067   1.356   6.180   8.439  1.5858  2.2653 -1.5076
   62CHL1  H27C 7068   1.303   6.219   8.606  0.7407 -3.3788  0.4617
   63CHL1    C3 7069   3.855   2.405  10.241  0.1191  0.3899  0.6117
   63CHL1    H3 7070   3.857   2.298  10.210 -0.8285  0.0201  1.7649
   63CHL1    O3 7071   3.872   2.410  10.381 -0.2996  0.3534  0.1029
   63CHL1   H3' 7072   3.886   2.503  10.396 -1.9516  0.6085  0.1741
   63CHL1    C4 7073   3.970   2.480  10.168  0.4814  0.4544  0.2500
   63CHL1   H4A 7074   3.982   2.580  10.215 -1.8229  1.5668 -1.4025
   63CHL1   H4B 7075   4.067   2.432  10.194  0.6255 -0.5836 -2.0322
   63CHL1    C5 7076   3.953   2.499  10.018  0.1192  0.4832  1.0281
   63CHL1    C6 7077   4.044   2.457   9.931  0.1899 -0.1008 -0.7649
   63CHL1    H6 7078   4.137   2.429   9.983 -0.5520  1.9033  1.8484
   63CHL1    C7 7079   4.041   2.466   9.780 -0.3481 -0.1241  0.2177
   63CHL1   H7A 7080   4.135   2.517   9.749  0.5844 -1.0160  1.4533
   63CHL1   H7B 7081   4.046   2.365   9.732  2.4383  0.6702 -1.4341
   63CHL1    C8 7082   3.924   2.554   9.733 -0.1567  0.3207 -0.4151
   63CHL1    H8 7083   3.955   2.660   9.744  0.0528  0.1096  1.2519
   63CHL1   C14 7084   3.889   2.510   9.587  0.1710 -0.3697  0.3110
   63CHL1   H14 7085   3.846   2.408   9.589 -1.5702  0.3110 -0.4886
   63CHL1   C15 7086   3.998   2.488   9.489  0.6575 -0.5401  0.1028
   63CHL1  H15A 7087   4.062   2.578   9.499 -1.6380  1.5774 -2.3939
   63CHL1  H15B 7088   4.058   2.398   9.515  2.4096  0.9690  1.5218
   63CHL1   C16 7089   3.919   2.480   9.360  0.0361  1.0151  0.1364
   63CHL1  H16A 7090   3.968   2.530   9.274  1.1272 -1.2703 -0.6451
   63CHL1  H16B 7091   3.917   2.372   9.333  2.2026  0.9901 -0.1152
   63CHL1   C17 7092   3.777   2.532   9.380  0.2650 -0.1381 -0.2078
   63CHL1   H17 7093   3.710   2.445   9.395 -3.5426  2.5674  0.0328
   63CHL1   C13 7094   3.776   2.597   9.522  0.2222  0.1250 -0.3654
   63CHL1   C18 7095   3.814   2.744   9.509  0.3749  0.0479 -0.0966
   63CHL1  H18A 7096   3.883   2.750   9.423  1.1291  0.2797  0.5151
   63CHL1  H18B 7097   3.720   2.803   9.498  1.1431  1.3466  0.1354
   63CHL1  H18C 7098   3.875   2.784   9.593 -0.8790 -1.4487  1.6171
   63CHL1   C12 7099   3.650   2.575   9.611  0.8272  0.5985 -0.0440
   63CHL1  H12A 7100   3.559   2.630   9.578 -0.1616 -1.2931 -0.5784
   63CHL1  H12B 7101   3.605   2.474   9.601  1.0775  0.4253  0.5781
   63CHL1   C11 7102   3.672   2.608   9.759 -0.0193  0.2415 -0.3161
   63CHL1  H11A 7103   3.693   2.716   9.769  0.9079  0.0420 -0.0355
   63CHL1  H11B 7104   3.583   2.571   9.814  0.5425 -1.6000 -0.5617
   63CHL1    C9 7105   3.798   2.533   9.816  0.0503 -0.1991 -0.2244
   63CHL1    H9 7106   3.766   2.428   9.798 -0.9068  0.1613 -0.6837
   63CHL1   C10 7107   3.813   2.538   9.969 -0.8644 -0.6223 -1.0105
   63CHL1   C19 7108   3.799   2.687  10.005  0.2314 -0.3763  0.9449
   63CHL1  H19A 7109   3.804   2.712  10.113 -2.7525 -0.8501  1.2779
   63CHL1  H19B 7110   3.872   2.760   9.963 -0.5229  1.1663  2.2101
   63CHL1  H19C 7111   3.695   2.720   9.982  1.5066  2.8165 -0.9980
   63CHL1    C1 7112   3.703   2.453  10.045  0.1199 -0.2885 -0.1435
   63CHL1   H1A 7113   3.600   2.481  10.015  0.3380 -0.7938 -1.4364
   63CHL1   H1B 7114   3.708   2.352   9.999 -0.9083  0.4839 -2.0642
   63CHL1    C2 7115   3.713   2.452  10.201 -1.1165 -0.0364  0.3818
   63CHL1   H2A 7116   3.632   2.392  10.248 -0.9549  0.0670  0.7977
   63CHL1   H2B 7117   3.704   2.556  10.239  0.3254 -0.4121  1.8744
   63CHL1   C20 7118   3.715   2.615   9.262 -0.1177  0.0263 -0.3358
   63CHL1   H20 7119   3.775   2.708   9.255  0.6196 -0.4762 -0.7294
   63CHL1   C21 7120   3.569   2.651   9.291  0.0208 -0.7451 -0.4746
   63CHL1  H21A 7121   3.508   2.560   9.313  0.7711 -2.2844 -3.9549
   63CHL1  H21B 7122   3.515   2.686   9.201  0.5398 -1.0407 -0.9091
   63CHL1  H21C 7123   3.564   2.716   9.381 -1.7570 -2.4618  0.7444
   63CHL1   C22 7124   3.722   2.548   9.128 -0.0401 -0.5471  0.4314
   63CHL1  H22A 7125   3.656   2.615   9.068 -2.2567 -1.3104  1.9072
   63CHL1  H22B 7126   3.818   2.565   9.073 -1.0063 -0.5277 -1.3228
   63CHL1   C23 7127   3.689   2.404   9.112 -0.2635  0.4300  0.0811
   63CHL1  H23A 7128   3.754   2.337   9.173 -2.4337 -2.1840 -0.2541
   63CHL1  H23B 7129   3.584   2.387   9.142  0.1494  0.2018  1.5099
   63CHL1   C24 7130   3.687   2.359   8.970 -0.0293 -0.1159  0.3897
   63CHL1  H24A 7131   3.781   2.399   8.926  0.1961  2.1222  2.6832
   63CHL1  H24B 7132   3.693   2.248   8.959  1.7525 -0.1928  1.6725
   63CHL1   C25 7133   3.575   2.412   8.881 -0.4264  0.3062 -0.6118
   63CHL1   H25 7134   3.528   2.494   8.939 -0.0788  0.4809 -0.5760
   63CHL1   C26 7135   3.627   2.473   8.747  0.6593  0.3201 -0.2576
   63CHL1  H26A 7136   3.671   2.388   8.691  1.7439 -0.8222  2.1435
   63CHL1  H26B 7137   3.550   2.533   8.693 -1.8380  0.2355  2.8849
   63CHL1  H26C 7138   3.704   2.551   8.764 -0.6625  1.8190 -0.9492
   63CHL1   C27 7139   3.472   2.298   8.859  0.4111 -0.6347 -0.0081
   63CHL1  H27A 7140   3.505   2.211   8.799 -1.5860 -0.8345 -0.9252
   63CHL1  H27B 7141   3.449   2.257   8.959  1.7831 -1.6866 -0.1129
   63CHL1  H27C 7142   3.372   2.340   8.831  1.2950  1.0312 -0.8354
   64CHL1    C3 7143   3.899   1.214  10.203 -0.7694  0.2126  0.1732
   64CHL1    H3 7144   3.988   1.257  10.154  0.5435 -1.0750  1.3485
   64CHL1    O3 7145   3.952   1.173  10.326  0.0380 -0.2402  0.1712
   64CHL1   H3' 7146   3.884   1.192  10.391  0.1795 -1.1949  0.6133
   64CHL1    C4 7147   3.795   1.318  10.212  0.4778  0.2256  0.1413
   64CHL1   H4A 7148   3.705   1.277  10.263  0.4384 -1.7747 -1.3870
   64CHL1   H4B 7149   3.846   1.395  10.274 -0.7722  0.7307  0.5650
   64CHL1    C5 7150   3.758   1.373  10.075  0.0838  0.4352  0.1751
   64CHL1    C6 7151   3.775   1.504  10.045 -0.2684  0.2813 -0.1968
   64CHL1    H6 7152   3.827   1.571  10.115 -2.3617  1.8015 -0.0115
   64CHL1    C7 7153   3.714   1.554   9.917 -0.3375  0.1187  1.2393
   64CHL1   H7A 7154   3.655   1.648   9.922 -1.4352 -0.4954  0.5132
   64CHL1   H7B 7155   3.802   1.591   9.860 -1.1572  0.4005  0.0946
   64CHL1    C8 7156   3.642   1.454   9.824 -0.7355 -0.7873  0.0397
   64CHL1    H8 7157   3.537   1.439   9.857 -1.1626 -0.8294 -1.2790
   64CHL1   C14 7158   3.647   1.495   9.677 -0.5405 -0.2821 -1.5825
   64CHL1   H14 7159   3.756   1.490   9.657 -0.1394  1.8747 -0.2209
   64CHL1   C15 7160   3.595   1.636   9.633 -0.6355 -0.1579  0.5058
   64CHL1  H15A 7161   3.501   1.675   9.679  0.0082 -1.2634  2.8835
   64CHL1  H15B 7162   3.678   1.706   9.657 -0.5524 -0.6601  1.7653
   64CHL1   C16 7163   3.595   1.622   9.478 -0.4846  0.0864 -0.3191
   64CHL1  H16A 7164   3.499   1.666   9.445 -1.5094 -0.4209  1.8166
   64CHL1  H16B 7165   3.681   1.670   9.427 -0.3863 -1.1714 -1.3944
   64CHL1   C17 7166   3.597   1.468   9.444 -0.6114 -0.5168 -0.2948
   64CHL1   H17 7167   3.703   1.451   9.415 -0.4881  0.9654 -0.8210
   64CHL1   C13 7168   3.578   1.396   9.582  0.1345  0.6266 -0.3180
   64CHL1   C18 7169   3.429   1.397   9.623  0.4408  0.5480  0.7676
   64CHL1  H18A 7170   3.402   1.379   9.729  0.4199  1.2820  0.8857
   64CHL1  H18B 7171   3.377   1.489   9.589 -1.2816 -0.7770 -0.3883
   64CHL1  H18C 7172   3.376   1.320   9.564 -0.3923  1.3990  0.3906
   64CHL1   C12 7173   3.643   1.257   9.598  0.0736 -0.5084  0.4629
   64CHL1  H12A 7174   3.576   1.188   9.543  0.6349 -0.7810  0.1143
   64CHL1  H12B 7175   3.743   1.246   9.551 -0.5249  2.9698 -2.0321
   64CHL1   C11 7176   3.650   1.216   9.740  0.4505  0.1795 -0.1888
   64CHL1  H11A 7177   3.544   1.205   9.770  0.1667 -0.4237 -1.3340
   64CHL1  H11B 7178   3.689   1.113   9.751 -0.6627 -0.1722  0.6349
   64CHL1    C9 7179   3.712   1.317   9.839  0.3490 -0.2246 -0.1273
   64CHL1    H9 7180   3.813   1.336   9.799 -0.0227 -0.9935 -1.5051
   64CHL1   C10 7181   3.716   1.263   9.980 -0.0450  0.2473  0.2001
   64CHL1   C19 7182   3.572   1.222  10.037  0.5796  0.0966  0.1581
   64CHL1  H19A 7183   3.570   1.189  10.143  1.8037 -1.1022 -0.1595
   64CHL1  H19B 7184   3.502   1.308  10.033  0.7933  0.2210 -2.7130
   64CHL1  H19C 7185   3.518   1.143   9.980 -0.1952  0.1619  0.7808
   64CHL1    C1 7186   3.810   1.136   9.979 -0.1948  0.6300 -0.1658
   64CHL1   H1A 7187   3.753   1.050   9.937  0.3268  1.5762 -3.0093
   64CHL1   H1B 7188   3.897   1.145   9.912 -1.2099 -1.6520 -1.9432
   64CHL1    C2 7189   3.853   1.093  10.121 -0.0130 -0.9520  0.2834
   64CHL1   H2A 7190   3.914   1.001  10.123  1.0969 -0.3636 -2.5503
   64CHL1   H2B 7191   3.765   1.062  10.182  1.2715 -0.0903  2.6900
   64CHL1   C20 7192   3.516   1.433   9.318  0.5275  0.8102  0.0641
   64CHL1   H20 7193   3.411   1.468   9.332  0.3607  1.3638 -2.1311
   64CHL1   C21 7194   3.523   1.288   9.280 -0.9190  0.2849 -0.0352
   64CHL1  H21A 7195   3.629   1.256   9.275 -1.2028 -0.6422 -0.2949
   64CHL1  H21B 7196   3.470   1.272   9.183 -0.9051  0.4697 -0.0762
   64CHL1  H21C 7197   3.463   1.238   9.359 -2.0289  1.5985  0.0070
   64CHL1   C22 7198   3.559   1.502   9.188 -0.9831 -0.5216 -0.3743
   64CHL1  H22A 7199   3.491   1.471   9.105 -1.0754  0.2203 -0.5878
   64CHL1  H22B 7200   3.545   1.612   9.195 -0.6205 -0.5507  0.9862
   64CHL1   C23 7201   3.706   1.486   9.132  0.3627 -0.6516  1.1951
   64CHL1  H23A 7202   3.779   1.540   9.197  0.3842  0.0073  0.6286
   64CHL1  H23B 7203   3.732   1.378   9.136  0.8757 -0.5627  0.3165
   64CHL1   C24 7204   3.723   1.540   8.987  0.5427 -1.0974  0.9506
   64CHL1  H24A 7205   3.661   1.471   8.928 -0.9518  0.0696  1.0834
   64CHL1  H24B 7206   3.697   1.648   8.980  4.7413  0.0003 -0.5399
   64CHL1   C25 7207   3.867   1.527   8.939  0.2301 -0.1501 -0.6581
   64CHL1   H25 7208   3.906   1.423   8.952 -0.2178 -0.1904  0.4420
   64CHL1   C26 7209   3.861   1.548   8.788 -0.2311  0.2972  0.6879
   64CHL1  H26A 7210   3.788   1.480   8.740 -0.1896  2.4030 -2.6770
   64CHL1  H26B 7211   3.842   1.655   8.764  1.2911  0.1548 -1.4884
   64CHL1  H26C 7212   3.962   1.527   8.747  0.3096 -1.1701  2.6314
   64CHL1   C27 7213   3.969   1.626   9.006  0.0280  0.2890  0.2941
   64CHL1  H27A 7214   3.993   1.607   9.113  0.3564 -0.2306  0.1321
   64CHL1  H27B 7215   4.068   1.625   8.956 -1.0362  1.0686 -1.9850
   64CHL1  H27C 7216   3.928   1.728   8.993 -1.6874 -0.6589 -2.5710
   65CHL1    C3 7217   4.640   5.732  10.070 -0.6507  0.8031 -0.5989
   65CHL1    H3 7218   4.660   5.638  10.013  1.8655  0.4664  0.6882
   65CHL1    O3 7219   4.626   5.694  10.208  0.0701  0.6385 -1.2517
   65CHL1   H3' 7220   4.713   5.678  10.245 -0.5889  0.2701  0.1822
   65CHL1    C4 7221   4.761   5.825  10.041  0.2857  0.4028  0.8927
   65CHL1   H4A 7222   4.758   5.926  10.088  0.2552  2.0600 -2.3491
   65CHL1   H4B 7223   4.852   5.782  10.087  0.5507 -0.5813 -0.4963
   65CHL1    C5 7224   4.778   5.832   9.884 -0.0088  0.3762 -0.4540
   65CHL1    C6 7225   4.892   5.783   9.833  0.0576  0.0259  0.2099
   65CHL1    H6 7226   4.967   5.741   9.902 -0.5972  1.4178  1.8464
   65CHL1    C7 7227   4.916   5.776   9.679 -0.2467  0.7603 -0.6841
   65CHL1   H7A 7228   5.023   5.793   9.658  0.0531  1.9032  1.5550
   65CHL1   H7B 7229   4.891   5.674   9.642  0.6203 -0.7311  2.5371
   65CHL1    C8 7230   4.823   5.863   9.596 -0.4935  0.7384 -0.9930
   65CHL1    H8 7231   4.864   5.965   9.613  0.2760  0.1438  0.9930
   65CHL1   C14 7232   4.835   5.813   9.452 -0.3223 -0.3036  0.2914
   65CHL1   H14 7233   4.811   5.705   9.448  1.1078 -0.6167 -0.5542
   65CHL1   C15 7234   4.976   5.819   9.391  0.6137  0.3392  0.8330
   65CHL1  H15A 7235   5.023   5.916   9.419 -1.5836  0.8595  3.0635
   65CHL1  H15B 7236   5.035   5.731   9.425 -1.0592 -1.3667 -0.4761
   65CHL1   C16 7237   4.955   5.824   9.238 -0.6690 -0.0275  0.2476
   65CHL1  H16A 7238   5.015   5.906   9.193 -0.4526 -0.0320  0.5237
   65CHL1  H16B 7239   4.983   5.727   9.192 -2.8716 -0.2421 -0.7845
   65CHL1   C17 7240   4.797   5.838   9.219  0.1750 -0.1412 -0.1363
   65CHL1   H17 7241   4.755   5.735   9.221 -0.5921  0.1367  3.1175
   65CHL1   C13 7242   4.746   5.891   9.357  0.1106  0.0345 -0.4989
   65CHL1   C18 7243   4.773   6.048   9.354  0.3693 -0.2475  0.1452
   65CHL1  H18A 7244   4.791   6.090   9.455 -0.7804 -0.0178  0.2698
   65CHL1  H18B 7245   4.866   6.059   9.294 -0.0013 -0.0846 -0.4105
   65CHL1  H18C 7246   4.686   6.099   9.307  1.2920  0.9230 -0.3464
   65CHL1   C12 7247   4.601   5.851   9.398  0.1126 -0.3599 -0.0407
   65CHL1  H12A 7248   4.525   5.894   9.329 -0.4591 -0.4465  0.5312
   65CHL1  H12B 7249   4.602   5.739   9.395  0.2022 -0.3396 -0.9466
   65CHL1   C11 7250   4.576   5.890   9.549 -0.5021 -0.0734 -0.1767
   65CHL1  H11A 7251   4.576   6.001   9.552 -1.7818  0.0481 -2.2499
   65CHL1  H11B 7252   4.472   5.858   9.571 -0.0182 -0.7307  1.2527
   65CHL1    C9 7253   4.685   5.841   9.650 -0.5460  0.9995  0.1647
   65CHL1    H9 7254   4.676   5.730   9.654 -2.2487  1.0960 -0.3452
   65CHL1   C10 7255   4.661   5.874   9.804  0.0416  0.0698  0.6571
   65CHL1   C19 7256   4.641   6.028   9.818  0.0277  0.4498 -0.0510
   65CHL1  H19A 7257   4.727   6.084   9.778  1.3480 -0.2037  1.7307
   65CHL1  H19B 7258   4.552   6.072   9.768  1.1537  2.5695 -0.3042
   65CHL1  H19C 7259   4.626   6.049   9.926  2.6417 -1.9516  0.8979
   65CHL1    C1 7260   4.536   5.801   9.857  0.3344  0.0130  0.2400
   65CHL1   H1A 7261   4.451   5.860   9.816  0.1175 -0.4179  0.0749
   65CHL1   H1B 7262   4.539   5.697   9.819 -1.8056  0.1740 -0.4523
   65CHL1    C2 7263   4.520   5.793  10.014  0.3873 -0.2489  0.1366
   65CHL1   H2A 7264   4.424   5.739  10.026  0.6952 -1.5745 -2.5267
   65CHL1   H2B 7265   4.502   5.898  10.047 -1.3496  0.0787 -1.6317
   65CHL1   C20 7266   4.756   5.912   9.089  0.4084 -0.1593  0.0047
   65CHL1   H20 7267   4.792   6.016   9.100  0.2006 -0.0422 -0.4059
   65CHL1   C21 7268   4.604   5.911   9.069  0.5065  0.3127  0.7372
   65CHL1  H21A 7269   4.575   5.956   8.972  0.4775 -1.1809  0.0383
   65CHL1  H21B 7270   4.555   5.971   9.149 -1.8144 -1.2979  0.5916
   65CHL1  H21C 7271   4.572   5.805   9.073 -0.7708  0.7303  2.6995
   65CHL1   C22 7272   4.821   5.840   8.961  0.2521  0.3630  0.1697
   65CHL1  H22A 7273   4.932   5.834   8.973  0.4615 -1.4838 -2.1030
   65CHL1  H22B 7274   4.783   5.737   8.948  0.2791 -0.3689  4.4529
   65CHL1   C23 7275   4.781   5.919   8.830 -0.6130  0.1587  0.1449
   65CHL1  H23A 7276   4.671   5.906   8.819 -0.7648  1.2391  0.2363
   65CHL1  H23B 7277   4.810   6.027   8.826 -0.7557  0.1724 -1.1807
   65CHL1   C24 7278   4.848   5.848   8.707 -0.1692 -0.0573  0.4218
   65CHL1  H24A 7279   4.957   5.861   8.717 -0.0866 -0.1521 -0.3041
   65CHL1  H24B 7280   4.820   5.741   8.698 -0.3145  0.1668 -3.3782
   65CHL1   C25 7281   4.811   5.899   8.572  0.2791  0.1296 -0.2358
   65CHL1   H25 7282   4.862   5.998   8.575  0.0040  0.3922 -2.3808
   65CHL1   C26 7283   4.894   5.822   8.465  0.1210 -0.0498 -0.2176
   65CHL1  H26A 7284   5.002   5.839   8.483 -0.3259  2.1987  0.5888
   65CHL1  H26B 7285   4.862   5.716   8.462 -0.2913  0.0700 -0.0914
   65CHL1  H26C 7286   4.878   5.864   8.364 -1.5577 -0.6452 -0.2210
   65CHL1   C27 7287   4.658   5.910   8.548 -0.8604 -0.4401 -0.0249
   65CHL1  H27A 7288   4.615   5.808   8.559  1.2533 -1.4945 -1.1346
   65CHL1  H27B 7289   4.600   5.979   8.613  1.6672  1.1146  0.6985
   65CHL1  H27C 7290   4.648   5.946   8.443 -0.4006  2.0675  0.7396
   66CHL1    C3 7291   2.519   0.507  10.125  0.6209 -0.5761 -0.7511
   66CHL1    H3 7292   2.607   0.440  10.119 -0.0844 -1.4961 -1.1422
   66CHL1    O3 7293   2.492   0.546  10.257  0.3061 -0.5107  0.4776
   66CHL1   H3' 7294   2.435   0.622  10.243  0.5584 -0.2139  1.0225
   66CHL1    C4 7295   2.553   0.629  10.051  0.8053  0.1032  0.6043
   66CHL1   H4A 7296   2.469   0.701  10.060  1.3879  1.0276 -0.9696
   66CHL1   H4B 7297   2.635   0.684  10.101  1.2417 -1.2616  1.4490
   66CHL1    C5 7298   2.582   0.618   9.903 -0.7826  0.4535  0.4967
   66CHL1    C6 7299   2.690   0.658   9.836 -0.1969  0.6979  0.1151
   66CHL1    H6 7300   2.775   0.702   9.890 -0.0679  2.1654 -1.2083
   66CHL1    C7 7301   2.708   0.650   9.687  0.7317  0.1229  0.5268
   66CHL1   H7A 7302   2.748   0.744   9.645  0.4893 -0.0272 -0.0480
   66CHL1   H7B 7303   2.785   0.572   9.670 -0.7957 -1.6077  1.1099
   66CHL1    C8 7304   2.575   0.613   9.613 -0.1720 -0.0754 -0.0577
   66CHL1    H8 7305   2.504   0.698   9.608 -0.0702 -0.0309 -1.1348
   66CHL1   C14 7306   2.604   0.570   9.475  0.1547  0.0698 -0.5320
   66CHL1   H14 7307   2.668   0.479   9.485 -0.8042 -0.8951 -2.5285
   66CHL1   C15 7308   2.676   0.672   9.382 -0.6129 -0.9287  0.6724
   66CHL1  H15A 7309   2.626   0.771   9.387 -0.3489 -0.7935  0.6683
   66CHL1  H15B 7310   2.780   0.685   9.418 -0.5106  0.3088 -0.0181
   66CHL1   C16 7311   2.675   0.595   9.247 -0.2868 -0.4200  0.5238
   66CHL1  H16A 7312   2.654   0.678   9.176 -0.0932 -3.1276 -2.9791
   66CHL1  H16B 7313   2.773   0.548   9.226  0.0614  0.3074  0.4857
   66CHL1   C17 7314   2.559   0.491   9.254  0.2563 -0.3651  0.0213
   66CHL1   H17 7315   2.606   0.392   9.272  0.4675 -0.1503  0.6566
   66CHL1   C13 7316   2.485   0.520   9.389  0.4641 -0.3296 -0.2213
   66CHL1   C18 7317   2.376   0.627   9.370  0.9225 -0.5827  0.1707
   66CHL1  H18A 7318   2.408   0.700   9.293 -4.5040  0.0373 -1.9673
   66CHL1  H18B 7319   2.280   0.580   9.338 -0.7372  2.3271  0.5780
   66CHL1  H18C 7320   2.363   0.677   9.468  0.2081  0.6219 -0.5096
   66CHL1   C12 7321   2.433   0.394   9.462 -0.2735 -0.4919 -0.4416
   66CHL1  H12A 7322   2.347   0.340   9.416 -0.0849 -0.5325 -0.7543
   66CHL1  H12B 7323   2.519   0.322   9.464  0.2482  0.0089  3.7743
   66CHL1   C11 7324   2.390   0.429   9.610 -0.4682 -0.0127  0.3990
   66CHL1  H11A 7325   2.297   0.489   9.605  0.6303  1.6582 -2.0991
   66CHL1  H11B 7326   2.367   0.333   9.661  0.6378  0.4617  1.8322
   66CHL1    C9 7327   2.501   0.496   9.688 -0.4411 -0.3698  0.2971
   66CHL1    H9 7328   2.583   0.420   9.686  1.3119  1.4606 -0.4547
   66CHL1   C10 7329   2.465   0.536   9.833  0.2925  0.0446 -0.7419
   66CHL1   C19 7330   2.350   0.642   9.827  0.4479  0.7539 -0.0803
   66CHL1  H19A 7331   2.259   0.603   9.776  1.4215 -2.6679  0.5191
   66CHL1  H19B 7332   2.314   0.675   9.927 -2.7952 -1.1393 -0.4884
   66CHL1  H19C 7333   2.380   0.730   9.766 -1.2434  2.8756  1.9676
   66CHL1    C1 7334   2.434   0.404   9.911  0.2840  0.3234 -0.1183
   66CHL1   H1A 7335   2.339   0.362   9.870  0.4098  0.3024 -0.3917
   66CHL1   H1B 7336   2.519   0.335   9.891  0.2180  0.4056 -0.7096
   66CHL1    C2 7337   2.404   0.434  10.062 -0.0373  0.0188  0.9102
   66CHL1   H2A 7338   2.405   0.339  10.119  3.1386 -0.5748  0.0537
   66CHL1   H2B 7339   2.312   0.494  10.079 -0.9623 -0.5619 -1.5733
   66CHL1   C20 7340   2.467   0.467   9.132 -0.3439  0.5247 -0.5034
   66CHL1   H20 7341   2.362   0.463   9.168 -0.4854 -1.9980 -0.9782
   66CHL1   C21 7342   2.491   0.315   9.088  0.4788  0.3105  0.1270
   66CHL1  H21A 7343   2.415   0.304   9.007  0.2793 -0.8670  0.4595
   66CHL1  H21B 7344   2.475   0.237   9.165  0.9331 -1.9375 -1.9441
   66CHL1  H21C 7345   2.594   0.310   9.047  0.4268  0.5920 -0.0379
   66CHL1   C22 7346   2.482   0.558   9.010 -0.0545  0.1779  0.9656
   66CHL1  H22A 7347   2.465   0.664   9.040  1.5869  1.2679 -1.5894
   66CHL1  H22B 7348   2.585   0.536   8.977 -0.0331  0.5691  0.7640
   66CHL1   C23 7349   2.394   0.538   8.891  0.1445 -0.5499  0.2727
   66CHL1  H23A 7350   2.393   0.434   8.852 -0.8423 -0.0177 -1.2214
   66CHL1  H23B 7351   2.288   0.556   8.919 -0.3939 -0.8436 -1.4193
   66CHL1   C24 7352   2.440   0.620   8.767 -0.2578 -0.3030 -0.2048
   66CHL1  H24A 7353   2.444   0.728   8.789  1.8068 -0.8539  2.6196
   66CHL1  H24B 7354   2.538   0.582   8.732  0.1442 -0.5833  1.1675
   66CHL1   C25 7355   2.335   0.623   8.649 -0.2647 -0.3623 -0.0705
   66CHL1   H25 7356   2.361   0.691   8.565 -0.9691 -0.9066 -0.7554
   66CHL1   C26 7357   2.320   0.482   8.594 -0.0074 -0.3241 -0.0188
   66CHL1  H26A 7358   2.266   0.480   8.497 -0.8272  1.2632  0.3667
   66CHL1  H26B 7359   2.419   0.433   8.580  1.5018  1.3593  3.5633
   66CHL1  H26C 7360   2.261   0.419   8.664 -0.8581  0.2128 -0.2373
   66CHL1   C27 7361   2.204   0.676   8.701 -0.1387 -1.1049 -0.1743
   66CHL1  H27A 7362   2.128   0.675   8.620 -0.6621  0.7836  0.2503
   66CHL1  H27B 7363   2.152   0.625   8.785  0.7335  1.2637  1.9418
   66CHL1  H27C 7364   2.197   0.781   8.737 -0.2952 -0.9978 -0.5153
   67CHL1    C3 7365   3.299   6.591  10.158 -0.3458 -0.2573 -0.3292
   67CHL1    H3 7366   3.278   6.700  10.166 -0.8392 -0.4929  2.9897
   67CHL1    O3 7367   3.283   6.529  10.285  0.7833 -0.3115  0.4956
   67CHL1   H3' 7368   3.344   6.456  10.293 -0.3742 -1.2998  0.5034
   67CHL1    C4 7369   3.204   6.533  10.058  0.0759 -0.7429 -0.0053
   67CHL1   H4A 7370   3.224   6.424  10.052  2.7250 -0.3048 -0.7767
   67CHL1   H4B 7371   3.102   6.554  10.095 -0.2397  0.9679 -1.7035
   67CHL1    C5 7372   3.216   6.590   9.919 -0.0283  0.6243 -0.5019
   67CHL1    C6 7373   3.115   6.654   9.858  0.5916 -0.1529  0.1192
   67CHL1    H6 7374   3.015   6.669   9.901 -0.8655 -0.0709 -3.0520
   67CHL1    C7 7375   3.117   6.719   9.719  0.1551 -0.0335 -0.0949
   67CHL1   H7A 7376   3.041   6.672   9.654  0.3997  0.2934 -0.6311
   67CHL1   H7B 7377   3.104   6.828   9.734 -1.3633 -0.3557  1.1825
   67CHL1    C8 7378   3.251   6.689   9.655 -0.3679  0.9093 -0.4475
   67CHL1    H8 7379   3.237   6.587   9.614 -1.8705  1.9420 -2.7082
   67CHL1   C14 7380   3.272   6.784   9.534 -0.8660  0.6451  0.1710
   67CHL1   H14 7381   3.290   6.884   9.579 -0.9744  1.3974 -1.3850
   67CHL1   C15 7382   3.160   6.804   9.434  0.6617  0.6567 -0.3289
   67CHL1  H15A 7383   3.123   6.700   9.420 -1.3684  1.0283  1.6855
   67CHL1  H15B 7384   3.076   6.867   9.469  1.3480  0.4429  1.8618
   67CHL1   C16 7385   3.232   6.859   9.316  0.0956 -0.0500 -0.8751
   67CHL1  H16A 7386   3.212   6.805   9.221 -0.7159 -2.1241  0.4195
   67CHL1  H16B 7387   3.189   6.959   9.291 -1.1115 -0.7941 -1.9036
   67CHL1   C17 7388   3.383   6.860   9.338  0.1695  0.6373 -0.2142
   67CHL1   H17 7389   3.416   6.953   9.388 -0.5418  0.6637  0.2209
   67CHL1   C13 7390   3.393   6.759   9.451 -0.1918  0.2157 -0.0788
   67CHL1   C18 7391   3.398   6.617   9.384 -0.3736  0.0808 -0.1278
   67CHL1  H18A 7392   3.397   6.536   9.460  0.8572 -0.7893 -1.0002
   67CHL1  H18B 7393   3.324   6.610   9.301  2.4176  2.0633 -2.9992
   67CHL1  H18C 7394   3.497   6.598   9.336 -0.3202 -0.0153  0.0179
   67CHL1   C12 7395   3.513   6.777   9.549  0.2369 -0.4233 -0.2843
   67CHL1  H12A 7396   3.608   6.754   9.496 -0.3087  1.3232 -2.1258
   67CHL1  H12B 7397   3.499   6.879   9.590 -1.7758 -1.1147  0.9087
   67CHL1   C11 7398   3.507   6.687   9.666  0.7947  1.0402  0.4489
   67CHL1  H11A 7399   3.537   6.582   9.643  0.8962 -0.0149  4.4787
   67CHL1  H11B 7400   3.584   6.708   9.743  0.7707 -0.1697  0.8236
   67CHL1    C9 7401   3.373   6.684   9.746  1.2705 -0.3239 -0.3026
   67CHL1    H9 7402   3.376   6.790   9.781  1.2871 -0.1044 -0.9528
   67CHL1   C10 7403   3.360   6.592   9.867  0.0655 -0.4363  0.1375
   67CHL1   C19 7404   3.398   6.441   9.830 -0.3576  0.0528 -0.5278
   67CHL1  H19A 7405   3.403   6.384   9.925 -1.8160 -1.4571 -1.2986
   67CHL1  H19B 7406   3.323   6.400   9.759 -0.4103 -0.7052 -0.0429
   67CHL1  H19C 7407   3.500   6.432   9.786  0.8916  0.2959  2.1472
   67CHL1    C1 7408   3.466   6.631   9.976 -0.8138 -0.0670  0.4572
   67CHL1   H1A 7409   3.562   6.591   9.935 -1.4654 -0.9932 -0.1978
   67CHL1   H1B 7410   3.456   6.742   9.979  0.0281  0.0515 -0.3190
   67CHL1    C2 7411   3.448   6.580  10.116 -0.6929 -0.8119  0.0537
   67CHL1   H2A 7412   3.511   6.647  10.179  2.4868 -0.6906 -2.9455
   67CHL1   H2B 7413   3.488   6.477  10.125  0.7266 -0.1302  2.2997
   67CHL1   C20 7414   3.459   6.847   9.204 -0.1016  0.3495 -0.4331
   67CHL1   H20 7415   3.410   6.769   9.142  1.3430  0.6812 -2.0748
   67CHL1   C21 7416   3.609   6.818   9.223  0.7046 -0.7043  0.6309
   67CHL1  H21A 7417   3.648   6.902   9.286  1.2374 -0.7714  0.3947
   67CHL1  H21B 7418   3.668   6.816   9.129  0.3205  0.1413  0.3607
   67CHL1  H21C 7419   3.627   6.724   9.279 -0.9300 -0.1544  2.1897
   67CHL1   C22 7420   3.445   6.973   9.120 -0.0877 -1.0667  0.2353
   67CHL1  H22A 7421   3.343   7.016   9.132 -0.0912 -1.0596  0.1814
   67CHL1  H22B 7422   3.508   7.054   9.161 -1.5091 -0.2984  0.9763
   67CHL1   C23 7423   3.478   6.967   8.975 -0.0871  0.1418 -0.6145
   67CHL1  H23A 7424   3.589   6.972   8.972 -0.0755  3.0987  0.9448
   67CHL1  H23B 7425   3.433   6.874   8.935 -0.1294  1.1663 -3.1780
   67CHL1   C24 7426   3.423   7.086   8.894  0.8195  0.0569 -0.4880
   67CHL1  H24A 7427   3.313   7.095   8.912  1.0281  0.0816  0.8913
   67CHL1  H24B 7428   3.468   7.178   8.938 -0.0712  1.0511 -1.5881
   67CHL1   C25 7429   3.434   7.067   8.741 -0.4838 -0.2479 -0.3112
   67CHL1   H25 7430   3.385   6.976   8.700 -2.6718  0.7305  0.0193
   67CHL1   C26 7431   3.361   7.190   8.673 -0.1616 -0.4182  0.2083
   67CHL1  H26A 7432   3.415   7.285   8.694 -3.2070  1.0124  2.1735
   67CHL1  H26B 7433   3.346   7.186   8.563  0.7120  3.3167 -0.2076
   67CHL1  H26C 7434   3.258   7.206   8.710 -1.0720 -1.5689 -1.6934
   67CHL1   C27 7435   3.576   7.059   8.683  0.3490  0.5577  0.6792
   67CHL1  H27A 7436   3.587   7.028   8.577 -0.1688 -3.8355  1.6930
   67CHL1  H27B 7437   3.623   7.159   8.693  1.4484 -0.0249  1.6686
   67CHL1  H27C 7438   3.638   6.988   8.743 -0.8602 -0.3293  0.9254
   68CHL1    C3 7439   5.010   3.501   9.988 -0.0554 -0.1119 -0.3569
   68CHL1    H3 7440   4.949   3.412  10.011 -0.6514  0.5814  0.8426
   68CHL1    O3 7441   4.980   3.599  10.090 -0.4125 -0.4049  0.3853
   68CHL1   H3' 7442   4.939   3.672  10.044  1.8252 -0.4052 -1.8621
   68CHL1    C4 7443   5.160   3.472   9.986 -0.6187 -0.4803  0.3181
   68CHL1   H4A 7444   5.217   3.568   9.985  0.3206 -1.0342 -0.2821
   68CHL1   H4B 7445   5.180   3.423  10.083  0.7119  0.4028  0.5211
   68CHL1    C5 7446   5.205   3.404   9.856 -0.1705 -0.2639  0.6237
   68CHL1    C6 7447   5.293   3.303   9.876  0.6743  0.3073 -0.1603
   68CHL1    H6 7448   5.327   3.276   9.977 -0.4277 -1.0825 -0.1179
   68CHL1    C7 7449   5.347   3.216   9.768  0.2937 -0.1171 -0.4948
   68CHL1   H7A 7450   5.453   3.185   9.778 -0.0494 -0.9132  0.9830
   68CHL1   H7B 7451   5.306   3.113   9.785  0.4949  0.0177  0.9775
   68CHL1    C8 7452   5.311   3.258   9.627 -0.0298 -0.5596 -0.1364
   68CHL1    H8 7453   5.373   3.347   9.601 -2.5950  1.2657 -0.3434
   68CHL1   C14 7454   5.331   3.145   9.531 -0.0812 -0.1638  0.2085
   68CHL1   H14 7455   5.248   3.078   9.564  1.2321 -2.4910 -0.9396
   68CHL1   C15 7456   5.454   3.052   9.546  0.2446  0.0861 -0.4863
   68CHL1  H15A 7457   5.543   3.119   9.551 -0.7564  1.3915  0.3175
   68CHL1  H15B 7458   5.450   2.987   9.636 -0.0512  1.0149  0.1769
   68CHL1   C16 7459   5.462   2.980   9.412  0.5118  0.8115  0.5052
   68CHL1  H16A 7460   5.550   3.019   9.355  0.5755  0.0400  0.0650
   68CHL1  H16B 7461   5.460   2.869   9.420 -1.0999  0.8493  0.8398
   68CHL1   C17 7462   5.346   3.034   9.324  0.2137  0.5210 -0.7374
   68CHL1   H17 7463   5.254   2.978   9.351  0.8375  0.3151  1.1564
   68CHL1   C13 7464   5.317   3.179   9.380  0.2441  0.3545  0.3077
   68CHL1   C18 7465   5.421   3.274   9.325 -0.3580  0.6144  0.1903
   68CHL1  H18A 7466   5.524   3.236   9.338 -0.6960 -0.9055 -1.2677
   68CHL1  H18B 7467   5.417   3.286   9.215 -0.7862  0.2554  0.1655
   68CHL1  H18C 7468   5.420   3.368   9.384  1.7701  0.7152  0.1438
   68CHL1   C12 7469   5.176   3.230   9.364 -0.5106  0.2052 -0.2320
   68CHL1  H12A 7470   5.157   3.267   9.261 -0.8361 -1.0921 -0.6542
   68CHL1  H12B 7471   5.104   3.148   9.385  0.5351 -0.7497 -0.3148
   68CHL1   C11 7472   5.151   3.346   9.458  0.1962 -0.0766  0.0995
   68CHL1  H11A 7473   5.225   3.424   9.430 -0.0835 -0.4726 -1.9073
   68CHL1  H11B 7474   5.048   3.385   9.448  0.1061  0.3749  2.3216
   68CHL1    C9 7475   5.164   3.316   9.613  0.5033 -0.1654  0.4486
   68CHL1    H9 7476   5.096   3.234   9.642 -0.6902  1.0911  1.2924
   68CHL1   C10 7477   5.134   3.430   9.715  0.2256  0.2180  0.0222
   68CHL1   C19 7478   5.193   3.554   9.658 -0.7274 -0.1892 -0.0180
   68CHL1  H19A 7479   5.197   3.640   9.727 -2.0351 -1.8525  2.2646
   68CHL1  H19B 7480   5.295   3.532   9.621 -0.9234 -0.6982 -0.2711
   68CHL1  H19C 7481   5.127   3.591   9.576 -3.0404 -1.7125  1.0231
   68CHL1    C1 7482   4.985   3.463   9.742  0.1115 -0.6674 -0.2288
   68CHL1   H1A 7483   4.934   3.492   9.648  1.0869 -2.8883 -1.5294
   68CHL1   H1B 7484   4.926   3.378   9.783  1.2760 -0.6209  1.6684
   68CHL1    C2 7485   4.958   3.560   9.857 -0.5384  0.3168 -0.0963
   68CHL1   H2A 7486   4.848   3.577   9.867 -0.0900  2.1369  3.1111
   68CHL1   H2B 7487   5.001   3.658   9.831 -0.1024  0.0572 -0.3559
   68CHL1   C20 7488   5.367   3.016   9.179 -0.2472 -0.3655 -0.0182
   68CHL1   H20 7489   5.450   3.085   9.154 -0.1621 -0.5785 -0.3318
   68CHL1   C21 7490   5.246   3.055   9.094  0.2909  0.4550 -1.0293
   68CHL1  H21A 7491   5.236   3.164   9.075  1.2357  0.6677 -0.3619
   68CHL1  H21B 7492   5.157   3.018   9.149  0.3087  0.8774 -0.7158
   68CHL1  H21C 7493   5.256   3.007   8.995  0.2022 -3.4766  0.6896
   68CHL1   C22 7494   5.394   2.865   9.152 -0.0567  0.5440  0.1781
   68CHL1  H22A 7495   5.450   2.803   9.226  0.3570 -0.2372 -0.7666
   68CHL1  H22B 7496   5.295   2.817   9.161  1.2771 -2.1655  1.8044
   68CHL1   C23 7497   5.444   2.832   9.012 -0.7121  0.8298  0.4403
   68CHL1  H23A 7498   5.392   2.881   8.927 -0.0192 -0.6232 -0.8646
   68CHL1  H23B 7499   5.546   2.875   9.002 -0.3946 -0.3074 -1.7337
   68CHL1   C24 7500   5.455   2.678   8.980  0.4867  0.1473 -0.6895
   68CHL1  H24A 7501   5.502   2.671   8.880  1.5690  0.8221 -0.2484
   68CHL1  H24B 7502   5.532   2.641   9.051 -0.2886  0.5172  0.3750
   68CHL1   C25 7503   5.324   2.586   8.979  0.3622 -0.0378 -0.6755
   68CHL1   H25 7504   5.279   2.589   9.081 -0.4290  1.4741 -1.0403
   68CHL1   C26 7505   5.211   2.649   8.892 -0.0090  0.0122  0.5768
   68CHL1  H26A 7506   5.184   2.753   8.921 -0.3673 -0.7018  3.0352
   68CHL1  H26B 7507   5.237   2.646   8.784 -1.5726 -0.7577  0.1915
   68CHL1  H26C 7508   5.115   2.594   8.898 -1.0008  1.4533 -1.1157
   68CHL1   C27 7509   5.340   2.442   8.928  0.6834 -0.7342 -0.1297
   68CHL1  H27A 7510   5.359   2.448   8.819 -0.8186  1.1850 -0.3406
   68CHL1  H27B 7511   5.434   2.408   8.976  1.2248 -0.3665 -0.9041
   68CHL1  H27C 7512   5.251   2.376   8.938 -0.4848  0.9943  1.6123
   69CHL1    C3 7513   2.762   6.062   6.837 -0.1316  0.3515  0.7046
   69CHL1    H3 7514   2.829   6.147   6.860  1.8920 -1.1518  0.6895
   69CHL1    O3 7515   2.753   6.051   6.695  0.0134 -0.2625  0.1548
   69CHL1   H3' 7516   2.672   6.003   6.680 -0.6527  0.7739  0.3270
   69CHL1    C4 7517   2.825   5.931   6.891 -0.1530  0.2675  0.0804
   69CHL1   H4A 7518   2.780   5.844   6.839 -2.3198  0.6799  1.1465
   69CHL1   H4B 7519   2.931   5.921   6.860 -0.5256  2.3022 -2.1715
   69CHL1    C5 7520   2.820   5.916   7.041 -0.0919 -0.4180  0.0115
   69CHL1    C6 7521   2.931   5.900   7.112 -0.5679  0.8870 -1.2840
   69CHL1    H6 7522   3.032   5.908   7.070  0.5037  2.8442  1.3938
   69CHL1    C7 7523   2.931   5.864   7.259  0.1115  0.1655  0.1079
   69CHL1   H7A 7524   2.993   5.773   7.275  1.0660  1.0032  1.3436
   69CHL1   H7B 7525   2.978   5.945   7.318  1.6613 -1.3107  1.0046
   69CHL1    C8 7526   2.795   5.837   7.327 -0.1383  0.8957  0.8074
   69CHL1    H8 7527   2.769   5.730   7.310  0.8220  0.7958 -0.1680
   69CHL1   C14 7528   2.804   5.867   7.477 -0.0788 -0.5902 -0.5538
   69CHL1   H14 7529   2.812   5.978   7.487 -1.6417 -0.3784 -1.2400
   69CHL1   C15 7530   2.918   5.807   7.554 -0.5346 -0.3845 -0.2020
   69CHL1  H15A 7531   2.923   5.698   7.534 -2.7855 -0.5348 -0.1638
   69CHL1  H15B 7532   3.013   5.862   7.534 -0.0145 -0.2828  2.2311
   69CHL1   C16 7533   2.873   5.836   7.697 -0.8025  0.3546 -0.4440
   69CHL1  H16A 7534   2.891   5.741   7.751 -0.1193  1.7662  1.9489
   69CHL1  H16B 7535   2.932   5.912   7.752 -0.6825 -1.3850  1.9585
   69CHL1   C17 7536   2.722   5.881   7.697  0.1725  0.0096 -0.6701
   69CHL1   H17 7537   2.731   5.991   7.702 -1.0399  0.0710  0.5053
   69CHL1   C13 7538   2.676   5.849   7.559 -0.1637 -0.5957 -0.5832
   69CHL1   C18 7539   2.629   5.705   7.554  0.0147  0.0312 -0.1507
   69CHL1  H18A 7540   2.596   5.685   7.450 -4.0680  0.5697  0.8536
   69CHL1  H18B 7541   2.705   5.631   7.585 -0.5068 -1.3039 -1.8875
   69CHL1  H18C 7542   2.543   5.705   7.624 -0.4980  3.4364 -0.5795
   69CHL1   C12 7543   2.561   5.931   7.499  0.1605 -0.1852 -0.7689
   69CHL1  H12A 7544   2.461   5.912   7.544  1.4280 -1.0829  1.9033
   69CHL1  H12B 7545   2.584   6.039   7.506 -1.9026  0.3638 -1.7086
   69CHL1   C11 7546   2.553   5.913   7.343 -0.4714  0.2617  0.0934
   69CHL1  H11A 7547   2.506   5.814   7.326  2.5113 -0.9905 -1.8198
   69CHL1  H11B 7548   2.483   5.989   7.303 -0.7017 -0.0294 -0.0585
   69CHL1    C9 7549   2.688   5.927   7.264  0.0489  0.1473 -0.3984
   69CHL1    H9 7550   2.713   6.033   7.287  0.2427 -0.3139  1.7706
   69CHL1   C10 7551   2.686   5.921   7.106  0.8596  0.5707 -0.2970
   69CHL1   C19 7552   2.607   5.801   7.056 -0.1081 -0.1461  0.2615
   69CHL1  H19A 7553   2.585   5.798   6.948 -0.3619 -0.4607  0.3214
   69CHL1  H19B 7554   2.653   5.706   7.091 -0.3005 -0.0190  0.8884
   69CHL1  H19C 7555   2.505   5.806   7.101 -0.8464 -1.4264 -1.1982
   69CHL1    C1 7556   2.621   6.053   7.054  0.0709 -0.3280  0.2115
   69CHL1   H1A 7557   2.513   6.056   7.077  0.3233  1.8259  1.3994
   69CHL1   H1B 7558   2.657   6.145   7.103  1.2059 -1.0340  0.7589
   69CHL1    C2 7559   2.622   6.073   6.898  0.5703 -0.1525  0.4197
   69CHL1   H2A 7560   2.564   6.167   6.880  0.1750 -0.0975  1.8310
   69CHL1   H2B 7561   2.558   5.997   6.849  1.2046  0.6602 -1.7794
   69CHL1   C20 7562   2.644   5.839   7.826 -0.3302  0.4415 -0.8212
   69CHL1   H20 7563   2.632   5.732   7.851  1.9722  0.6770  1.9173
   69CHL1   C21 7564   2.500   5.887   7.818  0.7273  0.7400 -0.3463
   69CHL1  H21A 7565   2.447   5.870   7.914  1.6757 -0.8969 -0.0659
   69CHL1  H21B 7566   2.442   5.839   7.737  0.2136  1.1409 -0.2185
   69CHL1  H21C 7567   2.508   5.996   7.800  1.8711  0.8001  0.3930
   69CHL1   C22 7568   2.735   5.893   7.948 -0.6669  0.0733 -0.1691
   69CHL1  H22A 7569   2.837   5.848   7.944 -0.4311  0.6887 -1.8919
   69CHL1  H22B 7570   2.740   6.004   7.937  1.0739  0.0677  0.1675
   69CHL1   C23 7571   2.675   5.866   8.093 -0.4906 -0.6583 -0.0238
   69CHL1  H23A 7572   2.572   5.907   8.098  0.3162  1.4144  0.7444
   69CHL1  H23B 7573   2.670   5.759   8.120  2.4859 -0.9954 -0.4765
   69CHL1   C24 7574   2.764   5.943   8.195 -0.6931 -0.2837 -0.2674
   69CHL1  H24A 7575   2.872   5.917   8.192 -0.8793 -1.3471  1.3770
   69CHL1  H24B 7576   2.765   6.049   8.162 -0.4504  0.1267  1.0329
   69CHL1   C25 7577   2.721   5.910   8.340 -0.5491  0.1479  1.0117
   69CHL1   H25 7578   2.617   5.946   8.355 -1.2203 -1.5011  0.5984
   69CHL1   C26 7579   2.741   5.764   8.379 -0.7745 -0.3475 -0.0412
   69CHL1  H26A 7580   2.845   5.730   8.358 -0.2155  1.4196 -0.3974
   69CHL1  H26B 7581   2.721   5.767   8.488  0.6499  3.9780  0.3125
   69CHL1  H26C 7582   2.676   5.687   8.333 -1.5708  1.8587 -2.9821
   69CHL1   C27 7583   2.801   5.999   8.434 -0.3012  0.6400 -0.0986
   69CHL1  H27A 7584   2.776   6.105   8.411 -1.3693  0.8802  1.9431
   69CHL1  H27B 7585   2.785   5.977   8.542  0.5253 -0.6291 -0.2135
   69CHL1  H27C 7586   2.909   5.990   8.410 -0.3338 -0.2440  0.0568
   70CHL1    C3 7587   3.291   5.619   6.873 -0.0213  0.1358 -0.4413
   70CHL1    H3 7588   3.184   5.649   6.867 -0.7380 -1.9578  0.5808
   70CHL1    O3 7589   3.319   5.570   6.747  0.6820  0.1320  0.3797
   70CHL1   H3' 7590   3.414   5.552   6.752  0.9600  1.0115 -1.0803
   70CHL1    C4 7591   3.384   5.728   6.906 -1.4218 -0.5885 -0.2749
   70CHL1   H4A 7592   3.492   5.707   6.892 -1.0635  1.7216 -1.4576
   70CHL1   H4B 7593   3.357   5.811   6.837  3.5213  0.4746 -1.3263
   70CHL1    C5 7594   3.365   5.772   7.057 -0.4197  0.4184 -0.1506
   70CHL1    C6 7595   3.331   5.896   7.091  0.6014  0.3117 -0.0794
   70CHL1    H6 7596   3.325   5.969   7.009  2.1259  0.9247  0.3035
   70CHL1    C7 7597   3.327   5.945   7.235 -0.8792 -0.4853 -0.3624
   70CHL1   H7A 7598   3.383   6.040   7.247 -0.4260 -0.8934  0.8726
   70CHL1   H7B 7599   3.221   5.973   7.248 -1.0359 -1.0556 -0.3902
   70CHL1    C8 7600   3.375   5.840   7.338 -0.3358  0.0016  0.2002
   70CHL1    H8 7601   3.486   5.842   7.337 -0.3396  0.3183 -1.3949
   70CHL1   C14 7602   3.340   5.887   7.478 -0.3156  0.5287  0.3812
   70CHL1   H14 7603   3.229   5.880   7.476 -0.2654 -0.5435 -1.4404
   70CHL1   C15 7604   3.367   6.025   7.528 -0.1423 -0.0681  0.2446
   70CHL1  H15A 7605   3.471   6.064   7.516 -0.8845  1.0798 -4.0781
   70CHL1  H15B 7606   3.299   6.102   7.484 -0.0180  0.6089  1.2018
   70CHL1   C16 7607   3.340   6.018   7.673  0.1029  1.0824 -0.9057
   70CHL1  H16A 7608   3.427   6.064   7.725  0.9621 -1.9678  0.5905
   70CHL1  H16B 7609   3.244   6.066   7.701  0.0887  0.2674  0.5236
   70CHL1   C17 7610   3.324   5.865   7.709 -1.0388 -0.4715  0.3660
   70CHL1   H17 7611   3.214   5.850   7.704 -1.1255  0.2697 -0.3172
   70CHL1   C13 7612   3.384   5.786   7.586  0.1221 -0.1090  0.2504
   70CHL1   C18 7613   3.537   5.778   7.586 -0.7856  0.2472  0.6964
   70CHL1  H18A 7614   3.575   5.760   7.484 -0.1817 -1.0167  1.1165
   70CHL1  H18B 7615   3.572   5.880   7.613  1.0316  0.2117 -1.3033
   70CHL1  H18C 7616   3.581   5.702   7.655 -1.1891  1.4528  2.3534
   70CHL1   C12 7617   3.329   5.641   7.552 -0.7595  0.2611  0.7255
   70CHL1  H12A 7618   3.365   5.561   7.620 -0.2381  0.7481  1.0383
   70CHL1  H12B 7619   3.219   5.652   7.562 -0.7799 -0.3690  1.3109
   70CHL1   C11 7620   3.367   5.593   7.414  0.3230 -0.0161 -0.0124
   70CHL1  H11A 7621   3.477   5.581   7.405  0.6182  3.2504 -3.5512
   70CHL1  H11B 7622   3.310   5.502   7.387  1.1017  0.3756 -3.5187
   70CHL1    C9 7623   3.328   5.698   7.305  0.2068  0.1582 -0.2901
   70CHL1    H9 7624   3.219   5.715   7.314  0.3187  0.4887  0.6811
   70CHL1   C10 7625   3.381   5.660   7.159 -0.1419 -0.1923 -0.1409
   70CHL1   C19 7626   3.529   5.623   7.154 -0.1677 -0.3593 -0.8405
   70CHL1  H19A 7627   3.558   5.538   7.219  1.5311  0.5454 -0.3679
   70CHL1  H19B 7628   3.567   5.606   7.051  1.1360 -0.7246 -0.3129
   70CHL1  H19C 7629   3.581   5.717   7.183 -1.6224 -0.1552  1.3897
   70CHL1    C1 7630   3.289   5.542   7.116 -0.8370 -0.1196  0.5995
   70CHL1   H1A 7631   3.310   5.456   7.184 -1.4076 -0.5539  0.2354
   70CHL1   H1B 7632   3.181   5.562   7.135 -0.5477  0.4000  1.7783
   70CHL1    C2 7633   3.308   5.504   6.968  0.6389 -0.0639 -0.3458
   70CHL1   H2A 7634   3.222   5.436   6.950 -0.5317  1.3360 -0.1872
   70CHL1   H2B 7635   3.402   5.448   6.948  0.4322 -0.8732  0.8523
   70CHL1   C20 7636   3.369   5.824   7.846 -0.4324 -0.1927  0.1227
   70CHL1   H20 7637   3.480   5.828   7.855 -0.5946  0.3355  3.2539
   70CHL1   C21 7638   3.334   5.685   7.889 -0.6020 -0.3136 -0.2695
   70CHL1  H21A 7639   3.228   5.665   7.916  0.1251 -1.8489  1.6984
   70CHL1  H21B 7640   3.386   5.652   7.981  0.8749 -0.5563 -1.1643
   70CHL1  H21C 7641   3.371   5.623   7.805 -0.8411 -0.3009 -0.3859
   70CHL1   C22 7642   3.308   5.919   7.956  0.7762 -0.0305  0.3436
   70CHL1  H22A 7643   3.353   6.019   7.934 -0.4458  0.6678  0.9269
   70CHL1  H22B 7644   3.198   5.932   7.949  1.1108  3.1621 -0.6558
   70CHL1   C23 7645   3.330   5.898   8.101  0.6733  0.0375 -0.7493
   70CHL1  H23A 7646   3.281   5.804   8.136 -0.2710  1.1497  1.1074
   70CHL1  H23B 7647   3.440   5.894   8.117  0.5524  0.7056  0.3833
   70CHL1   C24 7648   3.280   6.024   8.175 -0.4326  0.5607 -0.6924
   70CHL1  H24A 7649   3.332   6.115   8.139  2.1898 -0.2122  0.9199
   70CHL1  H24B 7650   3.170   6.028   8.155  0.1124 -0.7877 -5.0373
   70CHL1   C25 7651   3.291   6.024   8.328  0.2673  0.4865  1.3221
   70CHL1   H25 7652   3.244   6.120   8.361 -1.1838  1.5572 -3.0889
   70CHL1   C26 7653   3.213   5.907   8.394  0.6201 -0.1536 -0.6182
   70CHL1  H26A 7654   3.225   5.917   8.504 -0.1535 -1.0279 -0.4491
   70CHL1  H26B 7655   3.107   5.900   8.363  0.9641 -1.6695 -1.5277
   70CHL1  H26C 7656   3.256   5.812   8.356  2.8663 -0.0080  1.3165
   70CHL1   C27 7657   3.437   5.998   8.374 -0.4903 -0.2533 -0.1631
   70CHL1  H27A 7658   3.504   6.084   8.349  1.3444 -2.0985 -1.9930
   70CHL1  H27B 7659   3.436   5.986   8.485  0.5933 -1.9671 -0.3133
   70CHL1  H27C 7660   3.480   5.904   8.336  1.7455  1.2211 -1.5116
   71CHL1    C3 7661   2.064   0.221   6.843  0.1078  0.2923  0.4959
   71CHL1    H3 7662   1.984   0.145   6.847  1.2010 -0.9082  0.3688
   71CHL1    O3 7663   2.103   0.253   6.707  0.0903  0.2725  0.0964
   71CHL1   H3' 7664   2.114   0.170   6.660  1.0776  1.6144 -2.2381
   71CHL1    C4 7665   2.019   0.347   6.926 -0.1887  1.0398  0.2184
   71CHL1   H4A 7666   2.088   0.432   6.907 -0.0919  1.0185  0.4774
   71CHL1   H4B 7667   1.925   0.385   6.880 -1.7129 -1.2477  1.2051
   71CHL1    C5 7668   2.010   0.314   7.075 -0.7674 -0.4780  0.1643
   71CHL1    C6 7669   1.892   0.345   7.135 -0.8382  0.6049 -0.0095
   71CHL1    H6 7670   1.814   0.386   7.069 -1.4824 -0.4900  0.0370
   71CHL1    C7 7671   1.863   0.324   7.282 -0.0557 -0.0874  0.2308
   71CHL1   H7A 7672   1.828   0.418   7.328 -3.5870 -0.3387 -1.5865
   71CHL1   H7B 7673   1.781   0.251   7.297 -0.9354  1.4690  4.3590
   71CHL1    C8 7674   1.994   0.267   7.358 -0.2819 -0.2706  0.1679
   71CHL1    H8 7675   2.057   0.355   7.382 -0.5943 -0.2140  0.7792
   71CHL1   C14 7676   1.955   0.197   7.488 -0.3458 -0.6971  0.4118
   71CHL1   H14 7677   1.905   0.108   7.443  1.1466  0.1443 -3.2821
   71CHL1   C15 7678   1.860   0.275   7.583 -0.3730  0.5272  0.4815
   71CHL1  H15A 7679   1.908   0.375   7.581 -0.7447  0.7703  2.1702
   71CHL1  H15B 7680   1.751   0.273   7.561 -0.4605 -0.3856  0.9577
   71CHL1   C16 7681   1.883   0.207   7.718 -0.3798  0.3575  0.2089
   71CHL1  H16A 7682   1.935   0.286   7.777 -0.7600  0.9769 -0.2818
   71CHL1  H16B 7683   1.787   0.182   7.768 -1.1254  2.6411  0.0512
   71CHL1   C17 7684   1.977   0.088   7.691  0.5504  0.7153  0.3678
   71CHL1   H17 7685   1.918   0.002   7.653  0.2372 -0.0397  2.4590
   71CHL1   C13 7686   2.068   0.128   7.568 -0.3057  0.1891 -0.3251
   71CHL1   C18 7687   2.174   0.229   7.609 -0.5498 -0.4734 -0.6057
   71CHL1  H18A 7688   2.260   0.187   7.665 -2.0939 -0.7595  1.6871
   71CHL1  H18B 7689   2.198   0.281   7.513 -1.6451 -0.7762 -1.0644
   71CHL1  H18C 7690   2.126   0.311   7.666 -0.8281 -1.2782  0.3417
   71CHL1   C12 7691   2.131   0.025   7.468  0.2507  0.2905  0.3241
   71CHL1  H12A 7692   2.203  -0.045   7.516  0.3971  2.1305  2.9990
   71CHL1  H12B 7693   2.047  -0.039   7.433  0.2282  0.5280 -0.0644
   71CHL1   C11 7694   2.184   0.083   7.344 -0.0275 -0.3049  0.0433
   71CHL1  H11A 7695   2.274   0.138   7.378 -0.3683  0.1496  0.2245
   71CHL1  H11B 7696   2.215   0.001   7.277 -0.6217 -0.9645  0.5601
   71CHL1    C9 7697   2.077   0.169   7.270  0.0607 -0.2338 -0.1469
   71CHL1    H9 7698   2.001   0.094   7.238 -0.4319  0.2574 -0.1272
   71CHL1   C10 7699   2.123   0.225   7.139 -0.0091  0.4369  0.4434
   71CHL1   C19 7700   2.253   0.316   7.156  0.5676  0.2446 -0.4901
   71CHL1  H19A 7701   2.341   0.249   7.168  0.2059 -0.2732 -0.6931
   71CHL1  H19B 7702   2.272   0.376   7.065 -0.5721  0.1088 -0.8296
   71CHL1  H19C 7703   2.235   0.386   7.240  0.0279  1.4591 -1.5891
   71CHL1    C1 7704   2.156   0.110   7.036 -0.0462 -0.3724  0.0011
   71CHL1   H1A 7705   2.237   0.045   7.075 -1.2286 -1.7161  0.2938
   71CHL1   H1B 7706   2.066   0.048   7.022  0.1491 -0.4690 -0.9146
   71CHL1    C2 7707   2.191   0.154   6.895 -0.3621 -0.2071  0.1003
   71CHL1   H2A 7708   2.224   0.074   6.825  1.8398 -1.0760  2.0099
   71CHL1   H2B 7709   2.271   0.231   6.904 -0.1530 -0.4384  0.2266
   71CHL1   C20 7710   2.053   0.032   7.819  0.7912 -0.5180  0.8712
   71CHL1   H20 7711   2.129   0.111   7.833 -0.3199  0.5650  0.9493
   71CHL1   C21 7712   2.111  -0.101   7.778 -0.9580  0.0772 -0.0555
   71CHL1  H21A 7713   2.148  -0.165   7.861 -0.8114  0.6575  0.3339
   71CHL1  H21B 7714   2.202  -0.086   7.718 -0.5136  0.5879  0.7251
   71CHL1  H21C 7715   2.033  -0.160   7.724  1.1632 -1.5704 -1.4771
   71CHL1   C22 7716   1.965   0.019   7.941  0.0279 -0.4275 -0.0890
   71CHL1  H22A 7717   1.922   0.122   7.947  1.2721  0.0592  1.0332
   71CHL1  H22B 7718   1.892  -0.060   7.913 -0.8103  0.1744  0.3216
   71CHL1   C23 7719   2.050  -0.011   8.060  0.1285  0.0142 -0.5080
   71CHL1  H23A 7720   2.131  -0.085   8.041 -0.5057 -0.2483 -2.3508
   71CHL1  H23B 7721   2.116   0.075   8.081 -0.8382  0.2296  2.0553
   71CHL1   C24 7722   1.987  -0.048   8.198 -0.0838  0.3132 -0.0100
   71CHL1  H24A 7723   2.074  -0.042   8.267  0.9055  1.8187 -1.3076
   71CHL1  H24B 7724   1.916   0.033   8.224 -1.8238 -1.2245  0.1681
   71CHL1   C25 7725   1.923  -0.187   8.195 -0.3082 -0.3551 -0.2948
   71CHL1   H25 7726   1.832  -0.187   8.130  0.2107  1.1449 -1.0675
   71CHL1   C26 7727   2.003  -0.305   8.137  0.1740 -0.0075 -0.4735
   71CHL1  H26A 7728   2.023  -0.293   8.029 -0.7713  0.6761 -0.5875
   71CHL1  H26B 7729   2.101  -0.307   8.189 -0.3179  1.2121  0.5938
   71CHL1  H26C 7730   1.957  -0.405   8.154  1.9199 -0.5945  1.0475
   71CHL1   C27 7731   1.883  -0.221   8.341 -0.9194  0.3022  0.0616
   71CHL1  H27A 7732   1.974  -0.212   8.405  0.0917  0.7703 -1.3735
   71CHL1  H27B 7733   1.813  -0.147   8.384 -0.5263  0.3677  0.6064
   71CHL1  H27C 7734   1.856  -0.328   8.348 -2.2251  0.4299 -2.1005
   72CHL1    C3 7735   3.589   6.595   6.996 -0.3700 -0.0868 -0.3104
   72CHL1    H3 7736   3.631   6.693   7.029 -3.6189  1.4893 -0.4289
   72CHL1    O3 7737   3.593   6.573   6.860 -0.5046  0.2120  0.8353
   72CHL1   H3' 7738   3.530   6.502   6.843 -2.2080  2.1569 -1.7231
   72CHL1    C4 7739   3.664   6.483   7.069  0.1561  0.4709 -0.0119
   72CHL1   H4A 7740   3.624   6.381   7.047 -1.2754  1.0586 -0.2336
   72CHL1   H4B 7741   3.769   6.487   7.032  0.4582 -0.0946  0.7509
   72CHL1    C5 7742   3.662   6.493   7.214  0.0531 -0.7137  0.5628
   72CHL1    C6 7743   3.777   6.492   7.290  0.1231  0.0238 -0.0586
   72CHL1    H6 7744   3.872   6.485   7.234 -0.1042 -0.3123 -0.4043
   72CHL1    C7 7745   3.779   6.503   7.440 -0.6898 -0.0000  0.1960
   72CHL1   H7A 7746   3.849   6.430   7.487  0.8482  1.4496  0.2559
   72CHL1   H7B 7747   3.827   6.596   7.478  1.1008 -0.3888 -1.0133
   72CHL1    C8 7748   3.630   6.479   7.496 -0.4685 -0.9240 -0.5018
   72CHL1    H8 7749   3.609   6.371   7.476  1.2877 -1.2562 -0.7200
   72CHL1   C14 7750   3.626   6.512   7.647  0.7602  0.5154 -0.4792
   72CHL1   H14 7751   3.670   6.613   7.660  0.6025  0.3688  1.5029
   72CHL1   C15 7752   3.707   6.418   7.736  0.3861 -0.2133  0.1198
   72CHL1  H15A 7753   3.680   6.314   7.706 -1.3933  0.0030  0.8822
   72CHL1  H15B 7754   3.817   6.434   7.732  0.1519  2.2005  1.4099
   72CHL1   C16 7755   3.653   6.460   7.872  0.4267 -0.0810 -0.3162
   72CHL1  H16A 7756   3.622   6.368   7.925 -1.1073 -0.0546 -1.1212
   72CHL1  H16B 7757   3.735   6.499   7.937 -0.1206 -0.2122  0.4626
   72CHL1   C17 7758   3.523   6.546   7.857 -0.0724  0.3864  0.0214
   72CHL1   H17 7759   3.555   6.652   7.862  1.1539 -0.0220  3.1787
   72CHL1   C13 7760   3.486   6.521   7.707 -0.4258  0.1710  0.3281
   72CHL1   C18 7761   3.420   6.382   7.694 -0.0758 -0.1799  0.0100
   72CHL1  H18A 7762   3.317   6.375   7.736  0.1947 -1.6752  0.4764
   72CHL1  H18B 7763   3.412   6.350   7.588  0.1717 -0.2133  0.0010
   72CHL1  H18C 7764   3.487   6.301   7.731  1.9535  0.1734 -2.6319
   72CHL1   C12 7765   3.420   6.635   7.641 -0.1324 -0.3575  0.7770
   72CHL1  H12A 7766   3.317   6.646   7.680  0.2504  0.9582  1.4752
   72CHL1  H12B 7767   3.477   6.730   7.655  1.2846 -0.6806 -1.9921
   72CHL1   C11 7768   3.401   6.600   7.490 -0.4481 -0.2121  0.0202
   72CHL1  H11A 7769   3.336   6.511   7.477  0.7173 -0.7175 -3.2270
   72CHL1  H11B 7770   3.358   6.693   7.445  0.5729  1.1155  1.6668
   72CHL1    C9 7771   3.532   6.566   7.417 -0.3283  0.1482 -0.4001
   72CHL1    H9 7772   3.587   6.663   7.415 -0.1862  0.0739 -0.0709
   72CHL1   C10 7773   3.525   6.523   7.268  0.3276 -0.7340 -0.1259
   72CHL1   C19 7774   3.434   6.399   7.265  0.8601 -0.9313 -0.6765
   72CHL1  H19A 7775   3.470   6.321   7.336  0.8508 -1.9417 -1.7472
   72CHL1  H19B 7776   3.332   6.427   7.300  0.1130 -2.3061 -1.6446
   72CHL1  H19C 7777   3.424   6.362   7.161 -0.1721  0.1639 -0.9834
   72CHL1    C1 7778   3.450   6.629   7.192  0.0588 -0.1137  0.0515
   72CHL1   H1A 7779   3.346   6.634   7.230  0.1975 -0.0799  0.4333
   72CHL1   H1B 7780   3.496   6.730   7.198 -1.4072  0.4918  3.2326
   72CHL1    C2 7781   3.442   6.597   7.043  0.5603  0.4168  0.1378
   72CHL1   H2A 7782   3.389   6.681   6.993 -1.0877  0.1460  1.3759
   72CHL1   H2B 7783   3.390   6.505   7.008  1.1597  0.2381 -0.3033
   72CHL1   C20 7784   3.427   6.528   7.969  0.4821 -0.1268  0.2322
   72CHL1   H20 7785   3.388   6.424   7.965 -0.2923  0.1879 -1.7519
   72CHL1   C21 7786   3.293   6.610   7.956 -0.2828 -0.1067 -0.1844
   72CHL1  H21A 7787   3.219   6.586   8.035 -2.0983  2.6279 -0.9425
   72CHL1  H21B 7788   3.238   6.586   7.863 -0.1465 -2.1009  0.1994
   72CHL1  H21C 7789   3.308   6.719   7.966  1.3357 -0.2842 -0.3799
   72CHL1   C22 7790   3.497   6.557   8.104 -0.9820 -0.5057  0.1119
   72CHL1  H22A 7791   3.587   6.493   8.117 -1.2946 -0.7787  1.0175
   72CHL1  H22B 7792   3.544   6.654   8.077 -1.2136 -0.8038 -1.4598
   72CHL1   C23 7793   3.416   6.542   8.230  0.8389 -0.1942 -0.3383
   72CHL1  H23A 7794   3.329   6.610   8.219 -0.0158 -1.2097  0.0102
   72CHL1  H23B 7795   3.375   6.441   8.247  1.6403 -0.6358 -0.9436
   72CHL1   C24 7796   3.496   6.589   8.352 -0.0283  0.4864  0.8602
   72CHL1  H24A 7797   3.597   6.543   8.342 -1.2663 -2.0152 -1.3177
   72CHL1  H24B 7798   3.529   6.696   8.349  0.6927  0.3243  2.0748
   72CHL1   C25 7799   3.422   6.562   8.482  0.1736  0.3718  0.5152
   72CHL1   H25 7800   3.316   6.590   8.465  0.3321  0.3554 -0.5667
   72CHL1   C26 7801   3.429   6.417   8.531 -0.2134 -0.2910 -0.1274
   72CHL1  H26A 7802   3.369   6.403   8.623 -1.3467  0.3168 -0.7527
   72CHL1  H26B 7803   3.390   6.355   8.447 -0.1235 -2.3673  1.2974
   72CHL1  H26C 7804   3.536   6.389   8.541 -0.6525 -2.1464 -0.2095
   72CHL1   C27 7805   3.475   6.645   8.595 -0.2816 -0.1368  1.2957
   72CHL1  H27A 7806   3.478   6.752   8.565  1.4175  0.2264  2.5695
   72CHL1  H27B 7807   3.429   6.645   8.696  1.0166  0.1591  1.9142
   72CHL1  H27C 7808   3.577   6.611   8.622  0.6178 -0.0956 -1.6945
   73CHL1    C3 7809   4.529   1.401   6.916 -0.7563 -0.0563  0.8211
   73CHL1    H3 7810   4.468   1.314   6.949 -1.7288  0.2793 -0.0379
   73CHL1    O3 7811   4.502   1.424   6.777 -0.2961 -0.5203 -0.0917
   73CHL1   H3' 7812   4.452   1.505   6.768 -1.4599 -1.4006 -2.4537
   73CHL1    C4 7813   4.499   1.525   7.001 -0.5008 -0.4730  0.0871
   73CHL1   H4A 7814   4.551   1.611   6.953  1.4907 -1.1222  0.9998
   73CHL1   H4B 7815   4.393   1.560   6.996  0.5394  3.0766 -0.6207
   73CHL1    C5 7816   4.545   1.502   7.141 -0.1073  0.9144  0.1048
   73CHL1    C6 7817   4.459   1.509   7.245 -0.2391 -0.3762 -0.0027
   73CHL1    H6 7818   4.355   1.534   7.221 -0.4419  0.4456  1.5711
   73CHL1    C7 7819   4.495   1.496   7.391  0.4786 -0.5794 -0.3038
   73CHL1   H7A 7820   4.447   1.577   7.449 -1.2084 -0.3056 -1.9900
   73CHL1   H7B 7821   4.448   1.406   7.438 -1.5550  0.2881 -0.5896
   73CHL1    C8 7822   4.645   1.499   7.416  0.1982 -0.2075 -0.0482
   73CHL1    H8 7823   4.678   1.602   7.392 -1.7575  0.1186 -1.5567
   73CHL1   C14 7824   4.672   1.453   7.553 -0.3997  0.0935 -0.7378
   73CHL1   H14 7825   4.623   1.355   7.568 -0.3610  0.4952  3.0686
   73CHL1   C15 7826   4.601   1.525   7.669  0.1850  0.3980  0.7494
   73CHL1  H15A 7827   4.623   1.632   7.648 -3.5877  1.2849  0.5580
   73CHL1  H15B 7828   4.492   1.505   7.681  0.1447  0.2143  0.1214
   73CHL1   C16 7829   4.683   1.472   7.788  0.0131 -0.4501  0.6539
   73CHL1  H16A 7830   4.702   1.561   7.850  1.3718  0.5000 -1.0185
   73CHL1  H16B 7831   4.625   1.407   7.857 -1.2142 -1.5078 -1.2668
   73CHL1   C17 7832   4.806   1.390   7.736 -0.3950 -0.0508  0.2950
   73CHL1   H17 7833   4.777   1.283   7.740 -0.2173 -0.0645  1.9522
   73CHL1   C13 7834   4.816   1.432   7.588 -0.4216  0.4597 -0.0842
   73CHL1   C18 7835   4.883   1.572   7.586  0.4584  0.8229  0.6649
   73CHL1  H18A 7836   4.872   1.636   7.676  1.8560  1.9424  0.0886
   73CHL1  H18B 7837   4.994   1.568   7.585  0.5138  1.9783  0.7032
   73CHL1  H18C 7838   4.857   1.631   7.496  2.8003 -1.3032 -1.6183
   73CHL1   C12 7839   4.884   1.342   7.475  0.2646 -0.6022  0.7136
   73CHL1  H12A 7840   4.994   1.346   7.487  0.5595 -1.4267 -1.2532
   73CHL1  H12B 7841   4.857   1.234   7.470  0.7678 -0.6846 -1.8294
   73CHL1   C11 7842   4.868   1.401   7.333 -0.0209  0.9318  0.0754
   73CHL1  H11A 7843   4.921   1.497   7.317 -0.7629  1.1321 -1.3458
   73CHL1  H11B 7844   4.918   1.331   7.263  1.6310  2.6354 -0.5244
   73CHL1    C9 7845   4.722   1.419   7.306  0.1834  0.0252 -0.1320
   73CHL1    H9 7846   4.675   1.318   7.313  0.2298  0.1097  1.9600
   73CHL1   C10 7847   4.690   1.463   7.158 -0.4324 -0.9396 -0.9857
   73CHL1   C19 7848   4.785   1.584   7.127 -0.1358  0.5564 -0.0464
   73CHL1  H19A 7849   4.889   1.551   7.112 -0.7717 -0.4776 -2.6328
   73CHL1  H19B 7850   4.753   1.635   7.034 -0.8437  1.2149  0.5380
   73CHL1  H19C 7851   4.774   1.657   7.210 -0.3095  0.9553 -0.4143
   73CHL1    C1 7852   4.730   1.347   7.061  0.3612 -0.2695  0.1118
   73CHL1   H1A 7853   4.839   1.325   7.061  0.3266 -0.4411  0.0220
   73CHL1   H1B 7854   4.678   1.257   7.101 -1.6588 -0.0889 -1.9315
   73CHL1    C2 7855   4.669   1.362   6.921 -0.4544  0.5297 -0.6727
   73CHL1   H2A 7856   4.687   1.268   6.865  0.0600  0.7420 -0.8703
   73CHL1   H2B 7857   4.735   1.432   6.865  0.3770 -0.5060 -1.0245
   73CHL1   C20 7858   4.923   1.400   7.833 -0.3340 -0.1006  0.6055
   73CHL1   H20 7859   4.970   1.501   7.829  0.7922 -0.5897 -3.6451
   73CHL1   C21 7860   5.024   1.302   7.777 -0.2844  0.0419 -0.0751
   73CHL1  H21A 7861   5.040   1.334   7.672 -1.3047  0.0685 -0.2381
   73CHL1  H21B 7862   4.982   1.198   7.777  0.5074 -0.3220  2.0019
   73CHL1  H21C 7863   5.117   1.313   7.836  0.1489 -1.3881 -0.4437
   73CHL1   C22 7864   4.895   1.357   7.977 -0.2392  0.3312  0.5568
   73CHL1  H22A 7865   4.995   1.337   8.020 -0.0725  1.1326  0.5612
   73CHL1  H22B 7866   4.857   1.446   8.031  0.2360  2.2353 -2.0436
   73CHL1   C23 7867   4.790   1.250   8.003 -0.2226  0.2375 -0.3228
   73CHL1  H23A 7868   4.691   1.301   8.014 -2.3454 -3.7084  0.5185
   73CHL1  H23B 7869   4.780   1.178   7.919 -0.1610 -0.4300  0.2420
   73CHL1   C24 7870   4.825   1.162   8.124  0.0592  0.4022 -0.3080
   73CHL1  H24A 7871   4.744   1.086   8.126 -1.8526  2.3197 -0.9926
   73CHL1  H24B 7872   4.920   1.107   8.108  0.8208  1.3293  0.9104
   73CHL1   C25 7873   4.834   1.239   8.257 -0.8769  0.0845  0.4474
   73CHL1   H25 7874   4.927   1.299   8.257  0.0376 -1.2810 -0.1180
   73CHL1   C26 7875   4.712   1.325   8.289 -0.0300  0.2456 -0.3839
   73CHL1  H26A 7876   4.710   1.356   8.396  1.9831  2.9454 -1.0210
   73CHL1  H26B 7877   4.704   1.426   8.242 -0.5507  0.6023  0.4452
   73CHL1  H26C 7878   4.615   1.272   8.278 -1.4831  2.5456  0.6155
   73CHL1   C27 7879   4.853   1.131   8.367  0.3037 -0.2776 -0.0668
   73CHL1  H27A 7880   4.862   1.168   8.471 -1.7523 -1.4815  0.6020
   73CHL1  H27B 7881   4.770   1.056   8.368  0.3343 -0.3207 -0.5238
   73CHL1  H27C 7882   4.945   1.072   8.349  0.9067 -0.0817  2.1380
   74CHL1    C3 7883   2.558   4.518   6.659 -0.2784  1.0386  0.1576
   74CHL1    H3 7884   2.644   4.589   6.663  0.7763 -0.1687 -0.2727
   74CHL1    O3 7885   2.541   4.503   6.517  0.2717  0.1138 -0.2898
   74CHL1   H3' 7886   2.534   4.596   6.494  0.2520  0.8046  2.1752
   74CHL1    C4 7887   2.593   4.384   6.723  1.0535 -0.1803  0.5873
   74CHL1   H4A 7888   2.507   4.316   6.707  1.0089 -0.0083  0.0781
   74CHL1   H4B 7889   2.669   4.336   6.658 -0.0827  0.7458 -1.5279
   74CHL1    C5 7890   2.634   4.399   6.866 -0.1723  0.0094  0.5923
   74CHL1    C6 7891   2.759   4.383   6.920  0.3390 -0.3882  0.6000
   74CHL1    H6 7892   2.835   4.356   6.845 -1.6318  0.4887 -1.8563
   74CHL1    C7 7893   2.795   4.382   7.057 -0.1413 -0.4247  0.5417
   74CHL1   H7A 7894   2.860   4.297   7.084  0.8367 -0.0125 -0.4119
   74CHL1   H7B 7895   2.842   4.480   7.081  0.7988 -1.0617  1.3641
   74CHL1    C8 7896   2.669   4.386   7.149  0.0444 -0.3797 -0.5147
   74CHL1    H8 7897   2.620   4.287   7.156  1.6064 -1.0903  1.2693
   74CHL1   C14 7898   2.708   4.453   7.281 -0.5019  0.6152  1.3133
   74CHL1   H14 7899   2.742   4.555   7.253  0.8091 -0.2774 -0.5611
   74CHL1   C15 7900   2.830   4.386   7.357 -0.0641 -0.6238  0.8275
   74CHL1  H15A 7901   2.798   4.279   7.361  0.4460 -0.9117 -1.3732
   74CHL1  H15B 7902   2.930   4.382   7.309 -0.4055 -0.7974  0.1111
   74CHL1   C16 7903   2.834   4.448   7.492  0.3158  0.4720  0.4763
   74CHL1  H16A 7904   2.840   4.360   7.560 -0.9335  0.3930  0.4998
   74CHL1  H16B 7905   2.921   4.514   7.513 -0.3488  1.3164  0.6547
   74CHL1   C17 7906   2.692   4.509   7.511 -0.2795 -0.2728 -0.1662
   74CHL1   H17 7907   2.703   4.618   7.494 -0.8275 -0.5468 -2.5853
   74CHL1   C13 7908   2.601   4.464   7.389  0.0306  0.2130 -0.1974
   74CHL1   C18 7909   2.529   4.321   7.423  0.1444 -0.1973  0.6546
   74CHL1  H18A 7910   2.489   4.273   7.331 -1.1950 -1.9877  2.1149
   74CHL1  H18B 7911   2.595   4.241   7.464  2.8890  1.4697 -0.2539
   74CHL1  H18C 7912   2.437   4.343   7.480  0.2362 -1.9842  1.5651
   74CHL1   C12 7913   2.509   4.572   7.328  0.5326 -0.2220 -0.5136
   74CHL1  H12A 7914   2.422   4.594   7.393 -0.2332  0.2924 -1.6954
   74CHL1  H12B 7915   2.565   4.667   7.313 -1.5741  1.0529 -0.6665
   74CHL1   C11 7916   2.452   4.518   7.187  0.1306  0.7239  0.0075
   74CHL1  H11A 7917   2.389   4.431   7.215  1.7555 -0.5775 -0.1570
   74CHL1  H11B 7918   2.386   4.593   7.139  1.3092  1.6741 -0.1930
   74CHL1    C9 7919   2.564   4.482   7.089  0.6211  0.2680 -0.5160
   74CHL1    H9 7920   2.625   4.571   7.064  3.9978 -1.6528  0.2778
   74CHL1   C10 7921   2.516   4.444   6.951 -0.5937 -0.1895  0.0421
   74CHL1   C19 7922   2.407   4.333   6.969  0.1769  0.3173  0.2300
   74CHL1  H19A 7923   2.315   4.380   7.010 -0.5078 -2.0537  1.6399
   74CHL1  H19B 7924   2.380   4.301   6.866 -1.7616 -1.6762  1.2709
   74CHL1  H19C 7925   2.444   4.248   7.031 -0.2513 -1.1753 -1.4847
   74CHL1    C1 7926   2.449   4.569   6.880 -0.6473  0.3206 -0.2666
   74CHL1   H1A 7927   2.351   4.587   6.929  0.0142  2.1705  0.4354
   74CHL1   H1B 7928   2.508   4.662   6.894 -1.3640  0.9047 -1.0154
   74CHL1    C2 7929   2.428   4.561   6.729  0.5308  0.4868 -0.5164
   74CHL1   H2A 7930   2.385   4.660   6.701  0.7455  1.3544  2.0374
   74CHL1   H2B 7931   2.351   4.493   6.689 -0.3333  1.5254 -0.6677
   74CHL1   C20 7932   2.639   4.485   7.653 -0.2314 -0.2774  0.0141
   74CHL1   H20 7933   2.621   4.376   7.662  0.6225 -0.4198  0.1566
   74CHL1   C21 7934   2.506   4.555   7.674  0.2201  0.5294 -0.6911
   74CHL1  H21A 7935   2.476   4.542   7.780 -0.8578 -0.1299 -1.0562
   74CHL1  H21B 7936   2.426   4.505   7.614  2.2304 -0.1676 -2.9499
   74CHL1  H21C 7937   2.527   4.663   7.657  0.4888  0.8844  1.6437
   74CHL1   C22 7938   2.745   4.529   7.762  0.0763  0.1316  0.2969
   74CHL1  H22A 7939   2.829   4.457   7.756  1.7580  2.0582 -0.2880
   74CHL1  H22B 7940   2.790   4.627   7.734  0.4088 -0.3436 -0.8739
   74CHL1   C23 7941   2.706   4.508   7.913 -0.0358 -0.7497  0.4065
   74CHL1  H23A 7942   2.600   4.539   7.928  0.2502  0.0852  0.7525
   74CHL1  H23B 7943   2.718   4.402   7.946  1.8323 -0.9543 -0.8176
   74CHL1   C24 7944   2.801   4.593   8.003 -0.0525 -0.0313  0.1193
   74CHL1  H24A 7945   2.905   4.576   7.970 -0.3927  1.9797 -2.2518
   74CHL1  H24B 7946   2.772   4.699   7.984  0.1300 -0.2083 -1.2026
   74CHL1   C25 7947   2.797   4.566   8.157  0.2920 -0.8116 -0.4219
   74CHL1   H25 7948   2.812   4.457   8.176 -1.4357 -0.7454  1.8402
   74CHL1   C26 7949   2.913   4.646   8.223  0.6258 -0.0244 -0.0278
   74CHL1  H26A 7950   2.919   4.610   8.328  2.3440 -2.1064 -0.7696
   74CHL1  H26B 7951   2.999   4.613   8.162  1.0735 -0.2342  0.7044
   74CHL1  H26C 7952   2.901   4.756   8.214 -3.4591 -0.3061  0.1268
   74CHL1   C27 7953   2.666   4.598   8.224  0.0309 -0.6136 -0.6653
   74CHL1  H27A 7954   2.644   4.705   8.201 -0.8454 -0.8869 -1.1107
   74CHL1  H27B 7955   2.580   4.539   8.187 -1.0877  0.3828  0.2509
   74CHL1  H27C 7956   2.686   4.597   8.334  1.9873  1.1609 -0.9273
   75CHL1    C3 7957   4.479   2.077   6.968 -0.5440  0.4116  0.1673
   75CHL1    H3 7958   4.378   2.121   6.987  0.3224  2.4418  0.3030
   75CHL1    O3 7959   4.487   2.064   6.827 -0.7677 -0.3966  0.1603
   75CHL1   H3' 7960   4.421   1.997   6.808  0.4616 -1.2507 -1.3786
   75CHL1    C4 7961   4.588   2.170   7.013  0.0738 -0.0977 -0.3168
   75CHL1   H4A 7962   4.689   2.141   6.977  1.4170  1.1640  2.2131
   75CHL1   H4B 7963   4.561   2.265   6.961 -2.2878 -0.5746 -0.0520
   75CHL1    C5 7964   4.599   2.182   7.167 -0.0117  0.9083 -0.2199
   75CHL1    C6 7965   4.608   2.303   7.224  0.1528  0.1053 -0.7750
   75CHL1    H6 7966   4.599   2.388   7.155  0.7339  0.9829  0.2040
   75CHL1    C7 7967   4.633   2.324   7.369  0.0126  0.1594  0.0383
   75CHL1   H7A 7968   4.713   2.397   7.394 -1.2546  1.5197  0.2662
   75CHL1   H7B 7969   4.541   2.378   7.399  1.3902  1.7163  1.6940
   75CHL1    C8 7970   4.670   2.190   7.442  0.2192 -0.1224 -0.0820
   75CHL1    H8 7971   4.780   2.181   7.427  0.6824  4.0807 -0.5269
   75CHL1   C14 7972   4.651   2.202   7.594  0.1023 -1.5002  0.4195
   75CHL1   H14 7973   4.543   2.211   7.614 -0.2009 -0.9903 -1.2983
   75CHL1   C15 7974   4.708   2.328   7.675 -0.6700 -0.0007 -0.1136
   75CHL1  H15A 7975   4.810   2.364   7.653 -0.4819 -0.4750 -0.0222
   75CHL1  H15B 7976   4.653   2.424   7.664  1.1256  1.0833  0.0339
   75CHL1   C16 7977   4.703   2.283   7.829  0.0250 -0.4565  0.2102
   75CHL1  H16A 7978   4.806   2.310   7.861 -0.2065  1.6702 -0.6591
   75CHL1  H16B 7979   4.626   2.333   7.892 -0.4022 -0.7660 -0.0604
   75CHL1   C17 7980   4.683   2.137   7.828 -0.0569  0.1537 -0.7359
   75CHL1   H17 7981   4.575   2.116   7.840  0.0363  1.2155  3.7941
   75CHL1   C13 7982   4.703   2.090   7.683  0.4420 -1.2500  0.3951
   75CHL1   C18 7983   4.857   2.070   7.661 -0.4795  0.5434 -0.8841
   75CHL1  H18A 7984   4.919   2.151   7.705 -1.8517  0.0509  2.1848
   75CHL1  H18B 7985   4.880   1.970   7.704 -2.3667  0.7956  0.8583
   75CHL1  H18C 7986   4.883   2.077   7.553 -0.5191  0.7448 -0.8800
   75CHL1   C12 7987   4.622   1.963   7.635 -0.1945  0.1519  0.0187
   75CHL1  H12A 7988   4.646   1.865   7.681  0.9148  0.8688  1.0506
   75CHL1  H12B 7989   4.513   1.975   7.656 -0.1862  0.4210 -0.0929
   75CHL1   C11 7990   4.640   1.935   7.483 -0.1979 -0.0783  0.1375
   75CHL1  H11A 7991   4.746   1.907   7.467 -0.6531 -0.5888 -2.4659
   75CHL1  H11B 7992   4.573   1.854   7.446  1.3502 -1.2638 -0.1757
   75CHL1    C9 7993   4.595   2.064   7.396  0.0258  0.6286 -0.2523
   75CHL1    H9 7994   4.490   2.089   7.419  0.2352  1.5504 -0.2729
   75CHL1   C10 7995   4.610   2.045   7.236 -0.6356 -0.3708  0.3877
   75CHL1   C19 7996   4.749   1.985   7.196 -0.4388 -0.1298 -0.0478
   75CHL1  H19A 7997   4.771   1.887   7.244 -3.0115  0.1814  1.9880
   75CHL1  H19B 7998   4.759   1.958   7.089  2.5845  1.6217 -0.3432
   75CHL1  H19C 7999   4.829   2.061   7.213 -1.6104  1.3405 -0.9566
   75CHL1    C1 8000   4.487   1.966   7.193 -0.0458  0.1553  0.0150
   75CHL1   H1A 8001   4.495   1.867   7.243  0.9955  0.5581  0.6938
   75CHL1   H1B 8002   4.394   2.008   7.236 -0.1423  0.2820 -0.3163
   75CHL1    C2 8003   4.480   1.934   7.042 -0.6179  0.0021 -0.5323
   75CHL1   H2A 8004   4.387   1.880   7.013  0.1393 -1.2456 -0.7094
   75CHL1   H2B 8005   4.569   1.874   7.014  0.5661  1.9220 -1.0671
   75CHL1   C20 8006   4.763   2.063   7.932  0.1250  0.9412 -0.5386
   75CHL1   H20 8007   4.870   2.054   7.902  0.7878  0.7021  1.6749
   75CHL1   C21 8008   4.729   1.916   7.941 -0.4118 -0.1852  0.3299
   75CHL1  H21A 8009   4.623   1.899   7.970 -0.6667 -0.5154 -0.7234
   75CHL1  H21B 8010   4.792   1.859   8.012 -0.4589  3.3278  3.4516
   75CHL1  H21C 8011   4.742   1.869   7.841 -0.1943  0.3713  0.0954
   75CHL1   C22 8012   4.747   2.130   8.071 -0.2545  0.0800 -0.6608
   75CHL1  H22A 8013   4.799   2.060   8.140 -0.1263  0.0556 -0.7828
   75CHL1  H22B 8014   4.799   2.227   8.078  1.3738 -0.4216 -3.8680
   75CHL1   C23 8015   4.603   2.138   8.124 -0.1732 -0.5574 -0.8522
   75CHL1  H23A 8016   4.554   2.232   8.091 -1.5701 -1.7466 -2.3107
   75CHL1  H23B 8017   4.559   2.051   8.070  0.4168 -0.7816 -0.9705
   75CHL1   C24 8018   4.601   2.116   8.269  0.3016 -0.2834 -0.5361
   75CHL1  H24A 8019   4.632   2.011   8.289  1.6825  0.3665  0.9745
   75CHL1  H24B 8020   4.669   2.186   8.322 -1.5817  1.3056 -0.0937
   75CHL1   C25 8021   4.463   2.139   8.331  0.6542  0.4840  0.2268
   75CHL1   H25 8022   4.424   2.241   8.314 -0.3445  0.7798  3.6565
   75CHL1   C26 8023   4.363   2.033   8.304  0.0501 -0.5772  0.2624
   75CHL1  H26A 8024   4.396   1.932   8.337  1.4383 -0.0969  0.4021
   75CHL1  H26B 8025   4.265   2.053   8.353  0.6801  1.0165  0.9345
   75CHL1  H26C 8026   4.346   2.023   8.195  1.2582  1.1375 -0.1145
   75CHL1   C27 8027   4.476   2.150   8.484 -0.3512 -0.3654  0.6116
   75CHL1  H27A 8028   4.544   2.234   8.511 -2.2987  0.7553  2.2835
   75CHL1  H27B 8029   4.376   2.176   8.524  0.2200  0.6593  1.4408
   75CHL1  H27C 8030   4.500   2.051   8.528 -0.5911 -0.7799 -0.1768
   76CHL1    C3 8031   3.318   2.680   7.136  0.3931  0.4826 -0.2875
   76CHL1    H3 8032   3.212   2.648   7.140  0.0886  1.5019  0.3231
   76CHL1    O3 8033   3.369   2.675   7.006 -0.0880 -0.0079  0.5775
   76CHL1   H3' 8034   3.305   2.709   6.943 -0.6338 -3.1549 -0.7239
   76CHL1    C4 8035   3.328   2.825   7.193  0.6368 -0.2292  0.1538
   76CHL1   H4A 8036   3.432   2.865   7.186 -0.3055  2.2702 -0.6666
   76CHL1   H4B 8037   3.267   2.882   7.120 -1.6895 -1.0505  1.3561
   76CHL1    C5 8038   3.276   2.826   7.341  0.4915  0.2064  0.0849
   76CHL1    C6 8039   3.165   2.893   7.379 -0.0694  0.0606  1.3311
   76CHL1    H6 8040   3.115   2.955   7.303 -2.8536  0.5163  3.3947
   76CHL1    C7 8041   3.123   2.907   7.520  0.1529 -0.1740 -0.1077
   76CHL1   H7A 8042   3.092   3.007   7.559 -1.3634 -0.4146 -0.6185
   76CHL1   H7B 8043   3.028   2.851   7.535  0.6994 -0.3683  3.7242
   76CHL1    C8 8044   3.224   2.854   7.621  0.0284 -0.0235 -0.1659
   76CHL1    H8 8045   3.300   2.935   7.628  1.9524 -1.8090  0.9092
   76CHL1   C14 8046   3.157   2.821   7.754  0.0149  0.0143 -0.2160
   76CHL1   H14 8047   3.091   2.736   7.726  0.9661 -0.8373  0.0728
   76CHL1   C15 8048   3.061   2.932   7.808  0.1267  0.4156  0.4193
   76CHL1  H15A 8049   3.117   3.028   7.809 -2.8257  2.2895  2.2724
   76CHL1  H15B 8050   2.968   2.939   7.748  0.3024 -0.1746  0.0718
   76CHL1   C16 8051   3.031   2.888   7.943 -0.0953  0.5738 -0.0684
   76CHL1  H16A 8052   3.055   2.974   8.011 -1.8262  0.6431  0.4900
   76CHL1  H16B 8053   2.934   2.838   7.961  0.6810 -0.9906 -0.0724
   76CHL1   C17 8054   3.134   2.774   7.975  0.7004  0.4446 -0.2755
   76CHL1   H17 8055   3.072   2.683   7.955  1.5117 -0.0371 -0.6262
   76CHL1   C13 8056   3.245   2.769   7.873  0.1641 -0.0324  0.5040
   76CHL1   C18 8057   3.349   2.875   7.905 -0.1709  0.0329 -0.0256
   76CHL1  H18A 8058   3.392   2.902   7.807  0.0780 -2.7893 -0.7908
   76CHL1  H18B 8059   3.309   2.966   7.954 -1.1888 -0.7248  0.5859
   76CHL1  H18C 8060   3.436   2.835   7.962 -1.6103 -2.0046  0.9190
   76CHL1   C12 8061   3.297   2.634   7.823 -0.5223 -0.1143 -0.3772
   76CHL1  H12A 8062   3.370   2.597   7.899 -1.6597 -0.0957  0.7497
   76CHL1  H12B 8063   3.222   2.553   7.812 -0.1459 -0.4307 -0.6509
   76CHL1   C11 8064   3.361   2.646   7.687 -0.3960 -0.1303  0.0110
   76CHL1  H11A 8065   3.456   2.701   7.704 -1.0878  1.9750 -2.2879
   76CHL1  H11B 8066   3.385   2.541   7.661 -0.6595  0.1826 -1.5799
   76CHL1    C9 8067   3.278   2.722   7.572 -0.4369 -0.4678 -0.3313
   76CHL1    H9 8068   3.187   2.663   7.547 -1.0718  1.4324 -3.0178
   76CHL1   C10 8069   3.347   2.738   7.437 -0.7476  0.1019 -0.1801
   76CHL1   C19 8070   3.486   2.793   7.460  0.3676 -0.3796 -0.5102
   76CHL1  H19A 8071   3.546   2.813   7.369  1.9299  3.0353  1.0795
   76CHL1  H19B 8072   3.485   2.894   7.507  0.1592 -0.6155  0.0018
   76CHL1  H19C 8073   3.556   2.727   7.516  0.3146 -1.2986 -1.5020
   76CHL1    C1 8074   3.362   2.594   7.376  0.2425 -0.1263  0.5094
   76CHL1   H1A 8075   3.433   2.532   7.436  1.5998 -1.1270 -2.0063
   76CHL1   H1B 8076   3.270   2.532   7.369  0.1623  0.0698 -0.2058
   76CHL1    C2 8077   3.406   2.590   7.225 -0.6967 -0.4376 -0.1424
   76CHL1   H2A 8078   3.405   2.488   7.182 -3.2057 -0.4329 -0.2613
   76CHL1   H2B 8079   3.510   2.628   7.222 -0.4327 -1.1018  0.4279
   76CHL1   C20 8080   3.180   2.764   8.119  0.6127 -0.0882  0.3327
   76CHL1   H20 8081   3.241   2.853   8.145 -1.0612  1.0982  0.3617
   76CHL1   C21 8082   3.255   2.636   8.145 -0.4776 -0.1470  0.2016
   76CHL1  H21A 8083   3.351   2.637   8.088  0.4261  0.5700  1.6875
   76CHL1  H21B 8084   3.197   2.548   8.110 -0.1178 -0.7993  1.1908
   76CHL1  H21C 8085   3.291   2.611   8.247 -1.5126  1.6480  1.0474
   76CHL1   C22 8086   3.060   2.767   8.217 -0.5598  0.4464 -0.5838
   76CHL1  H22A 8087   2.983   2.846   8.200 -1.2867 -0.1612 -0.2291
   76CHL1  H22B 8088   3.011   2.667   8.216  2.0641 -0.9068 -0.9263
   76CHL1   C23 8089   3.109   2.783   8.365  0.0919  0.6088 -0.3482
   76CHL1  H23A 8090   3.184   2.705   8.389 -1.0204  0.8190  5.1742
   76CHL1  H23B 8091   3.170   2.876   8.373 -0.0446  0.6268  0.6914
   76CHL1   C24 8092   3.000   2.788   8.472 -0.3952  0.6779 -0.2242
   76CHL1  H24A 8093   2.932   2.873   8.450 -0.2184  0.3085 -2.3940
   76CHL1  H24B 8094   2.943   2.692   8.467  2.8195 -1.5952  2.1524
   76CHL1   C25 8095   3.046   2.813   8.610 -0.7324  0.0402  0.2392
   76CHL1   H25 8096   3.120   2.896   8.609  0.4125 -0.9617  0.6241
   76CHL1   C26 8097   2.925   2.850   8.704  0.1265  0.0170  1.0515
   76CHL1  H26A 8098   2.852   2.911   8.645  1.6240 -0.9754 -2.0506
   76CHL1  H26B 8099   2.869   2.766   8.750 -1.7020  0.0828 -0.9330
   76CHL1  H26C 8100   2.957   2.911   8.792  0.2278  0.9260  0.4041
   76CHL1   C27 8101   3.122   2.696   8.661  0.1320  0.8220 -0.4767
   76CHL1  H27A 8102   3.054   2.609   8.679  1.0211 -0.1826 -1.7662
   76CHL1  H27B 8103   3.195   2.655   8.588  0.8743  3.3524 -1.2333
   76CHL1  H27C 8104   3.169   2.713   8.760  0.3320  1.3392 -0.6613
   77CHL1    C3 8105   5.695   0.911   6.996  0.2287  0.3385 -0.2620
   77CHL1    H3 8106   5.790   0.969   6.988  0.6308 -0.0796  1.2030
   77CHL1    O3 8107   5.644   0.882   6.870  0.5467  0.2496 -0.0020
   77CHL1   H3' 8108   5.605   0.958   6.826 -1.5129 -1.1206 -0.7048
   77CHL1    C4 8109   5.736   0.781   7.054  0.1431  0.5361 -0.0137
   77CHL1   H4A 8110   5.647   0.714   7.056 -1.8961  3.0914  0.7009
   77CHL1   H4B 8111   5.815   0.741   6.987 -0.2052 -0.5510  0.1989
   77CHL1    C5 8112   5.780   0.794   7.199  0.1254  0.1692  0.1018
   77CHL1    C6 8113   5.887   0.729   7.243 -0.5276 -0.9845  0.1259
   77CHL1    H6 8114   5.939   0.655   7.179  1.7167 -0.2640  0.9929
   77CHL1    C7 8115   5.941   0.738   7.381  0.4266 -0.3035  0.5382
   77CHL1   H7A 8116   5.975   0.637   7.414  1.1846  0.2894  1.6432
   77CHL1   H7B 8117   6.028   0.807   7.388  0.1594  0.1809 -0.6954
   77CHL1    C8 8118   5.846   0.810   7.486 -0.2155  0.0320  0.0161
   77CHL1    H8 8119   5.773   0.731   7.511 -0.1764 -0.2672 -0.7850
   77CHL1   C14 8120   5.920   0.851   7.610 -0.4726 -0.3635 -0.7056
   77CHL1   H14 8121   5.982   0.936   7.574  0.8273 -0.1204  1.8276
   77CHL1   C15 8122   6.004   0.749   7.688  0.1423  0.2057  0.1400
   77CHL1  H15A 8123   5.936   0.663   7.707 -0.7314  0.8932  0.1797
   77CHL1  H15B 8124   6.096   0.724   7.630  1.0990  0.0919  1.6613
   77CHL1   C16 8125   6.016   0.812   7.827 -0.1677  0.5206 -0.9607
   77CHL1  H16A 8126   6.000   0.725   7.893  0.3781  1.6540  0.7319
   77CHL1  H16B 8127   6.120   0.851   7.837  1.2241 -3.1241  0.2245
   77CHL1   C17 8128   5.913   0.935   7.840 -0.2661 -0.2550  0.6910
   77CHL1   H17 8129   5.969   1.028   7.817  0.1994 -0.4333  1.0952
   77CHL1   C13 8130   5.823   0.919   7.716  0.2930 -0.8938 -0.3309
   77CHL1   C18 8131   5.705   0.825   7.755  0.3492  0.2102 -0.3117
   77CHL1  H18A 8132   5.635   0.874   7.826  1.0424  0.5606  0.1404
   77CHL1  H18B 8133   5.635   0.801   7.671 -0.4033  1.0081  0.0690
   77CHL1  H18C 8134   5.746   0.732   7.799  1.5533 -0.4147 -2.6039
   77CHL1   C12 8135   5.773   1.048   7.645 -0.2820 -0.6592 -0.3305
   77CHL1  H12A 8136   5.697   1.105   7.704 -1.3222 -0.0549 -2.1411
   77CHL1  H12B 8137   5.851   1.121   7.614 -0.3034 -0.3451  0.3341
   77CHL1   C11 8138   5.692   1.010   7.516 -0.0401 -0.0821 -0.1245
   77CHL1  H11A 8139   5.600   0.959   7.551 -0.3610  2.6105  3.6297
   77CHL1  H11B 8140   5.652   1.106   7.477 -1.1149 -0.1084  0.8508
   77CHL1    C9 8141   5.774   0.929   7.416 -0.0702 -0.5009  0.1699
   77CHL1    H9 8142   5.853   0.991   7.370  0.7038 -1.9730 -0.5575
   77CHL1   C10 8143   5.697   0.894   7.282  0.7088  0.1542  0.0393
   77CHL1   C19 8144   5.577   0.791   7.318 -1.0572  0.0419  0.1175
   77CHL1  H19A 8145   5.511   0.756   7.235  1.2121 -3.2463 -0.4724
   77CHL1  H19B 8146   5.610   0.699   7.370  1.7843  1.6221  1.3258
   77CHL1  H19C 8147   5.509   0.848   7.385  0.0469  0.4615  0.8994
   77CHL1    C1 8148   5.651   1.023   7.211 -0.0082  0.2102 -0.7787
   77CHL1   H1A 8149   5.578   1.064   7.284  1.3733 -0.5525  1.1419
   77CHL1   H1B 8150   5.736   1.095   7.214 -0.2535  0.4764  1.0948
   77CHL1    C2 8151   5.589   0.995   7.077 -0.9880 -1.0159  0.2353
   77CHL1   H2A 8152   5.566   1.086   7.017 -1.1203 -2.4591 -1.9882
   77CHL1   H2B 8153   5.491   0.944   7.091 -2.2086  0.9593 -0.5851
   77CHL1   C20 8154   5.856   0.948   7.976  0.2586  0.3083  0.7363
   77CHL1   H20 8155   5.790   0.860   7.990  1.3791 -0.4423  1.4623
   77CHL1   C21 8156   5.776   1.077   8.007 -0.6005 -0.3167 -0.1856
   77CHL1  H21A 8157   5.749   1.070   8.115 -2.4227 -1.6304 -0.6773
   77CHL1  H21B 8158   5.677   1.094   7.961 -0.4914  3.5160  0.6411
   77CHL1  H21C 8159   5.843   1.166   8.003  0.0912 -0.8152  0.0186
   77CHL1   C22 8160   5.969   0.926   8.084  0.4188 -0.7109 -0.7966
   77CHL1  H22A 8161   5.915   0.921   8.181 -0.1838 -0.0561 -1.0885
   77CHL1  H22B 8162   6.005   0.821   8.076 -1.0289 -1.2524 -0.6086
   77CHL1   C23 8163   6.091   1.020   8.082  0.1383  0.5677  0.3273
   77CHL1  H23A 8164   6.158   0.998   7.996  0.4065  2.3285  0.0492
   77CHL1  H23B 8165   6.046   1.121   8.075 -2.3272 -0.5019 -0.4690
   77CHL1   C24 8166   6.180   1.020   8.206  0.2008  0.4708 -0.5018
   77CHL1  H24A 8167   6.108   1.023   8.291 -0.3778  0.8841 -1.0005
   77CHL1  H24B 8168   6.243   0.929   8.213  1.2771  1.0258 -2.4134
   77CHL1   C25 8169   6.280   1.140   8.216  0.5250 -0.1699 -0.2534
   77CHL1   H25 8170   6.340   1.149   8.122  1.6341  4.8180  0.6426
   77CHL1   C26 8171   6.227   1.281   8.234 -0.0038  0.2657 -0.8033
   77CHL1  H26A 8172   6.155   1.279   8.319 -1.9345 -1.1266 -2.4010
   77CHL1  H26B 8173   6.316   1.345   8.254 -1.4406  1.4808  2.6046
   77CHL1  H26C 8174   6.178   1.305   8.138  0.1677  1.2755 -0.6569
   77CHL1   C27 8175   6.385   1.091   8.315  0.2758  1.1954 -0.9822
   77CHL1  H27A 8176   6.454   1.173   8.345  0.2271  1.0553 -0.4721
   77CHL1  H27B 8177   6.332   1.066   8.410  1.1661  1.6032 -0.3637
   77CHL1  H27C 8178   6.439   1.006   8.270  2.0260  0.2960  2.4839
   78CHL1    C3 8179   0.209   3.354   6.903 -0.0350  0.6409 -0.1050
   78CHL1    H3 8180   0.297   3.388   6.962  1.3806 -0.5115 -1.4772
   78CHL1    O3 8181   0.239   3.395   6.770 -0.3657 -0.3838 -0.1507
   78CHL1   H3' 8182   0.158   3.379   6.721 -1.7766  1.6602  1.3330
   78CHL1    C4 8183   0.188   3.205   6.907  0.3846  0.2377 -0.6935
   78CHL1   H4A 8184   0.101   3.181   6.843  0.2137  0.4192 -0.5328
   78CHL1   H4B 8185   0.278   3.155   6.866  0.0748  0.8328 -2.1556
   78CHL1    C5 8186   0.162   3.162   7.052  0.1787  0.4422 -0.0665
   78CHL1    C6 8187   0.222   3.056   7.114  0.1844  0.1725  0.2620
   78CHL1    H6 8188   0.303   3.012   7.054 -0.0964 -0.1728  0.1396
   78CHL1    C7 8189   0.194   3.018   7.254 -0.6668  0.0524 -0.0649
   78CHL1   H7A 8190   0.187   2.907   7.249 -1.7726  0.1497 -1.4044
   78CHL1   H7B 8191   0.273   3.054   7.323 -0.8842  2.3513 -0.9209
   78CHL1    C8 8192   0.062   3.074   7.306 -0.1903 -1.2081 -0.0800
   78CHL1    H8 8193  -0.011   3.010   7.252 -1.2804  0.1902 -0.2989
   78CHL1   C14 8194   0.067   3.053   7.459  0.2838  0.5839 -0.1708
   78CHL1   H14 8195   0.135   3.132   7.498  0.0597  1.2029 -0.9961
   78CHL1   C15 8196   0.110   2.917   7.514 -0.2940  0.0340  0.8303
   78CHL1  H15A 8197   0.057   2.847   7.447 -2.1240  1.8690  0.2707
   78CHL1  H15B 8198   0.218   2.893   7.505 -0.5567 -1.1567  0.7063
   78CHL1   C16 8199   0.049   2.912   7.654  0.4469  0.4478  0.3928
   78CHL1  H16A 8200  -0.012   2.820   7.664  1.4556 -0.4946 -1.6243
   78CHL1  H16B 8201   0.113   2.920   7.744  0.4673 -0.4465  0.4638
   78CHL1   C17 8202  -0.037   3.041   7.666 -0.5911  0.0586  0.5677
   78CHL1   H17 8203   0.035   3.117   7.704  1.4652 -1.0924 -0.8261
   78CHL1   C13 8204  -0.068   3.085   7.522  0.3217 -0.2329  0.0270
   78CHL1   C18 8205  -0.186   2.988   7.479  0.2538 -0.4545  0.5210
   78CHL1  H18A 8206  -0.175   2.880   7.501  0.6271 -0.2191  1.5480
   78CHL1  H18B 8207  -0.280   3.029   7.521  0.6025  2.1808 -1.0211
   78CHL1  H18C 8208  -0.187   3.001   7.368  2.8732 -1.6158  0.2830
   78CHL1   C12 8209  -0.112   3.233   7.488  0.4116  0.9103  0.4243
   78CHL1  H12A 8210  -0.219   3.246   7.514  0.6547  2.9803  0.5476
   78CHL1  H12B 8211  -0.062   3.305   7.556  0.5341  1.1192  0.1180
   78CHL1   C11 8212  -0.103   3.267   7.334  0.1449 -0.0231  0.0193
   78CHL1  H11A 8213  -0.188   3.239   7.268 -0.2021 -0.6229  0.7033
   78CHL1  H11B 8214  -0.102   3.377   7.323 -0.8640 -0.1646 -1.7101
   78CHL1    C9 8215   0.035   3.216   7.271  0.3024 -0.5226  0.7700
   78CHL1    H9 8216   0.121   3.270   7.317  0.4149 -0.9233  1.0368
   78CHL1   C10 8217   0.043   3.245   7.116  0.5159  0.1643  0.4411
   78CHL1   C19 8218  -0.086   3.202   7.039 -0.2840  0.1461  0.9336
   78CHL1  H19A 8219  -0.167   3.267   7.078 -0.2417 -0.4517  2.0396
   78CHL1  H19B 8220  -0.070   3.220   6.930  0.7791  0.0845  1.0667
   78CHL1  H19C 8221  -0.123   3.099   7.060 -1.2368  0.1413 -0.5782
   78CHL1    C1 8222   0.069   3.396   7.097  0.4306 -0.1498 -0.6592
   78CHL1   H1A 8223  -0.022   3.445   7.139 -1.7256 -3.7867 -0.6080
   78CHL1   H1B 8224   0.167   3.418   7.144  0.2134  0.1616 -0.3468
   78CHL1    C2 8225   0.084   3.427   6.949  0.1337 -0.3761 -0.5875
   78CHL1   H2A 8226   0.098   3.538   6.948  1.5867 -0.4754  1.5838
   78CHL1   H2B 8227  -0.011   3.394   6.902  0.5006 -3.8518  0.8354
   78CHL1   C20 8228  -0.143   3.029   7.774 -0.4710  0.7259 -0.0519
   78CHL1   H20 8229  -0.214   2.955   7.733 -1.0525 -0.0708  2.2435
   78CHL1   C21 8230  -0.188   3.177   7.807  0.5444 -0.5566  0.8171
   78CHL1  H21A 8231  -0.097   3.228   7.847  0.5858  0.3430 -0.3915
   78CHL1  H21B 8232  -0.266   3.184   7.886  1.1710  1.8466  1.3094
   78CHL1  H21C 8233  -0.229   3.234   7.721  1.4399  0.9568  1.3444
   78CHL1   C22 8234  -0.097   2.963   7.896  0.0330 -0.3236 -0.1931
   78CHL1  H22A 8235  -0.037   2.870   7.887  0.2900 -0.0631 -1.3673
   78CHL1  H22B 8236  -0.032   3.028   7.958 -1.4305 -0.2077  1.2801
   78CHL1   C23 8237  -0.220   2.938   7.996  0.1902 -0.7692  0.1480
   78CHL1  H23A 8238  -0.286   3.027   8.008 -1.0356 -1.4449 -1.2451
   78CHL1  H23B 8239  -0.281   2.854   7.957 -1.7632  1.0185 -0.8608
   78CHL1   C24 8240  -0.170   2.892   8.133  0.2643  0.7751 -0.5011
   78CHL1  H24A 8241  -0.249   2.827   8.178  1.9609 -0.2031  1.2364
   78CHL1  H24B 8242  -0.084   2.823   8.116 -1.7327 -2.5754  1.6954
   78CHL1   C25 8243  -0.132   2.997   8.229 -0.8856  0.1488 -1.2206
   78CHL1   H25 8244  -0.070   3.071   8.174 -0.0110 -0.0663 -0.5390
   78CHL1   C26 8245  -0.248   3.078   8.285  0.0244 -0.0021  0.3053
   78CHL1  H26A 8246  -0.300   3.132   8.203  2.6327  2.9353  0.3686
   78CHL1  H26B 8247  -0.316   3.005   8.333  0.8673 -1.7814 -1.0900
   78CHL1  H26C 8248  -0.216   3.159   8.354  2.3015  1.4063 -2.2095
   78CHL1   C27 8249  -0.040   2.937   8.333 -0.3552  0.1174  0.4221
   78CHL1  H27A 8250  -0.002   3.026   8.387  0.2868  0.1158 -0.0139
   78CHL1  H27B 8251  -0.081   2.880   8.420 -0.9639 -1.2640 -0.7327
   78CHL1  H27C 8252   0.047   2.884   8.288 -2.1372 -0.2027 -2.9754
   79CHL1    C3 8253   4.235   2.751   7.156  0.0026 -0.3168 -0.5435
   79CHL1    H3 8254   4.185   2.658   7.193  0.7072 -0.1121  0.9931
   79CHL1    O3 8255   4.287   2.733   7.029  0.1708  0.1199 -0.4007
   79CHL1   H3' 8256   4.329   2.817   7.009 -1.3460  0.5442 -2.1736
   79CHL1    C4 8257   4.144   2.869   7.164 -0.6993  1.1256  0.6702
   79CHL1   H4A 8258   4.191   2.962   7.125 -1.1987  0.6998 -1.0371
   79CHL1   H4B 8259   4.062   2.847   7.092  1.1964  0.9469 -1.5127
   79CHL1    C5 8260   4.081   2.886   7.297  0.4860  0.8245  0.0261
   79CHL1    C6 8261   3.947   2.883   7.311 -0.0966  0.3988  0.5180
   79CHL1    H6 8262   3.879   2.871   7.225  0.5575  1.2378 -0.1365
   79CHL1    C7 8263   3.877   2.880   7.442  0.6814 -0.1675  0.0571
   79CHL1   H7A 8264   3.777   2.929   7.442  0.2125 -1.0790 -1.3831
   79CHL1   H7B 8265   3.859   2.776   7.476  2.1209  0.0157  1.5272
   79CHL1    C8 8266   3.967   2.936   7.553  0.0055 -0.7468 -0.3715
   79CHL1    H8 8267   3.973   3.045   7.532 -1.2814 -0.2004  1.8049
   79CHL1   C14 8268   3.901   2.922   7.689 -0.0665 -0.2608 -0.3834
   79CHL1   H14 8269   3.895   2.813   7.712 -1.6381 -0.1649 -0.2303
   79CHL1   C15 8270   3.765   2.983   7.712  0.1710  0.5724  0.0709
   79CHL1  H15A 8271   3.764   3.087   7.675  0.4708 -0.1322 -2.0347
   79CHL1  H15B 8272   3.690   2.921   7.658  0.9733  0.2513 -0.7023
   79CHL1   C16 8273   3.745   2.988   7.864  0.2124 -0.0953 -0.0673
   79CHL1  H16A 8274   3.733   3.092   7.901  4.1609  0.0472  1.3695
   79CHL1  H16B 8275   3.664   2.921   7.899  0.5712 -0.7498 -0.4627
   79CHL1   C17 8276   3.884   2.942   7.922 -0.2605 -0.4910 -0.3274
   79CHL1   H17 8277   3.869   2.832   7.915 -1.4223 -0.4788  1.4871
   79CHL1   C13 8278   3.990   2.972   7.807  0.1200 -0.0591 -0.1227
   79CHL1   C18 8279   4.011   3.121   7.807  0.4493 -0.0938  0.0825
   79CHL1  H18A 8280   3.913   3.169   7.828  1.6291  1.9292  1.3619
   79CHL1  H18B 8281   4.076   3.147   7.893 -0.5468 -1.2738  1.2390
   79CHL1  H18C 8282   4.056   3.157   7.711 -0.3285  2.9459  0.7332
   79CHL1   C12 8283   4.117   2.886   7.809 -0.2915 -0.4929  0.4243
   79CHL1  H12A 8284   4.178   2.914   7.898  0.8265  1.4639 -0.8709
   79CHL1  H12B 8285   4.089   2.779   7.818  0.6541 -0.8106 -0.2726
   79CHL1   C11 8286   4.192   2.906   7.678 -0.4266  0.2069  0.0521
   79CHL1  H11A 8287   4.215   3.013   7.660 -0.5458 -0.1694 -2.8781
   79CHL1  H11B 8288   4.290   2.854   7.676  0.9037  2.5954 -1.5539
   79CHL1    C9 8289   4.107   2.876   7.545  0.7814  0.0202 -0.5280
   79CHL1    H9 8290   4.088   2.767   7.552 -0.4637 -0.1635 -4.4021
   79CHL1   C10 8291   4.183   2.903   7.411 -0.6477  0.2841  0.1567
   79CHL1   C19 8292   4.241   3.047   7.409 -0.2625 -0.3649  0.4515
   79CHL1  H19A 8293   4.289   3.072   7.312 -0.8711 -1.5231 -0.1617
   79CHL1  H19B 8294   4.161   3.122   7.428  0.5456  0.2280  1.6577
   79CHL1  H19C 8295   4.320   3.059   7.486  0.2270 -0.0776 -0.0860
   79CHL1    C1 8296   4.304   2.801   7.396 -0.5116  0.4455 -0.1776
   79CHL1   H1A 8297   4.379   2.827   7.474 -2.7475 -1.0108  2.5964
   79CHL1   H1B 8298   4.279   2.702   7.437  1.3130 -0.9114 -2.1045
   79CHL1    C2 8299   4.350   2.781   7.259  0.5910 -1.0107 -0.2436
   79CHL1   H2A 8300   4.433   2.709   7.244  2.3443  1.1794 -1.7965
   79CHL1   H2B 8301   4.400   2.872   7.218 -1.4816  0.4330  0.2521
   79CHL1   C20 8302   3.928   2.983   8.067 -0.3206 -0.3137  0.9260
   79CHL1   H20 8303   4.039   2.979   8.078  0.0796 -1.2599 -2.2700
   79CHL1   C21 8304   3.891   2.869   8.165 -0.2495 -0.2354  0.1575
   79CHL1  H21A 8305   3.944   2.772   8.155 -3.4582 -2.1143  0.1552
   79CHL1  H21B 8306   3.784   2.842   8.157 -0.1701  0.1500 -3.6544
   79CHL1  H21C 8307   3.914   2.898   8.271  2.0319  0.9362 -0.5798
   79CHL1   C22 8308   3.873   3.124   8.120  0.1450 -0.2079  0.0731
   79CHL1  H22A 8309   3.896   3.195   8.037 -2.2886 -0.4092 -0.8313
   79CHL1  H22B 8310   3.764   3.113   8.132 -0.0846  1.7138  0.0729
   79CHL1   C23 8311   3.925   3.166   8.258  0.2974 -0.4172 -0.0766
   79CHL1  H23A 8312   3.870   3.254   8.296  0.9974  0.1827 -0.4164
   79CHL1  H23B 8313   3.925   3.083   8.331 -0.2258  0.5718  1.0788
   79CHL1   C24 8314   4.069   3.213   8.240  0.1327 -0.6196 -0.5532
   79CHL1  H24A 8315   4.142   3.130   8.229 -0.1408 -0.6377 -2.6886
   79CHL1  H24B 8316   4.080   3.275   8.148 -0.7393  0.1292 -0.1678
   79CHL1   C25 8317   4.123   3.312   8.346  0.6573 -0.0935  0.3079
   79CHL1   H25 8318   4.063   3.406   8.346  2.1677  0.9180 -1.2634
   79CHL1   C26 8319   4.129   3.250   8.481  0.0858 -0.0530 -0.8558
   79CHL1  H26A 8320   4.078   3.315   8.555  0.1773 -2.1964  1.1699
   79CHL1  H26B 8321   4.069   3.157   8.486 -0.0944  0.0696 -0.7321
   79CHL1  H26C 8322   4.233   3.236   8.516 -0.5713  3.1202  3.1176
   79CHL1   C27 8323   4.263   3.371   8.308 -0.2863 -0.6943  0.3075
   79CHL1  H27A 8324   4.333   3.285   8.308  1.4844  0.6703  1.8914
   79CHL1  H27B 8325   4.255   3.414   8.206 -1.1518  1.0185  1.0541
   79CHL1  H27C 8326   4.292   3.453   8.377 -0.1896  1.2499 -1.9199
   80CHL1    C3 8327   0.869   3.862   6.808 -0.1031  0.3560 -0.8191
   80CHL1    H3 8328   0.774   3.810   6.786 -0.0223  0.0961 -0.5658
   80CHL1    O3 8329   0.941   3.890   6.694  0.8461 -0.3505 -0.4546
   80CHL1   H3' 8330   0.990   3.970   6.717 -0.7407  0.0003  2.1218
   80CHL1    C4 8331   0.851   3.983   6.903  0.2489 -0.3530  0.1265
   80CHL1   H4A 8332   0.936   4.055   6.910 -0.0597  0.2492 -1.8279
   80CHL1   H4B 8333   0.782   4.045   6.843  1.9614 -1.0169 -2.7243
   80CHL1    C5 8334   0.792   3.944   7.036  0.0428 -0.6186  0.1089
   80CHL1    C6 8335   0.676   4.002   7.080  0.0342 -0.4305 -0.1391
   80CHL1    H6 8336   0.621   4.072   7.014 -1.0831  0.0861  1.2906
   80CHL1    C7 8337   0.619   3.976   7.216 -0.3073  0.3304 -0.2049
   80CHL1   H7A 8338   0.588   4.073   7.262 -3.2131 -0.4104 -0.4263
   80CHL1   H7B 8339   0.519   3.928   7.210 -1.7727  3.1906 -0.3263
   80CHL1    C8 8340   0.725   3.913   7.317  1.2072 -0.3309 -0.3447
   80CHL1    H8 8341   0.799   3.988   7.353  0.3125  0.3650  0.0861
   80CHL1   C14 8342   0.647   3.855   7.437 -0.0745  1.1998  0.2379
   80CHL1   H14 8343   0.575   3.778   7.401 -0.9909  0.7611  2.8505
   80CHL1   C15 8344   0.559   3.953   7.516 -0.1338  0.0674  0.6325
   80CHL1  H15A 8345   0.629   4.036   7.538  1.4359 -1.5869  2.2769
   80CHL1  H15B 8346   0.463   3.992   7.477 -0.3433  0.0636  1.1299
   80CHL1   C16 8347   0.536   3.886   7.651 -0.0920 -0.3455  1.2271
   80CHL1  H16A 8348   0.567   3.956   7.731  1.9532  0.5795 -0.2803
   80CHL1  H16B 8349   0.429   3.855   7.647  0.0477 -0.8457 -2.3229
   80CHL1   C17 8350   0.625   3.762   7.646 -0.0999 -0.9348  0.2328
   80CHL1   H17 8351   0.559   3.686   7.599 -2.1490  0.0709  1.3368
   80CHL1   C13 8352   0.738   3.782   7.541  0.4239 -0.7164 -0.0325
   80CHL1   C18 8353   0.847   3.882   7.603  0.4139  0.5319  0.2489
   80CHL1  H18A 8354   0.793   3.966   7.652 -2.7935 -0.9889 -0.3727
   80CHL1  H18B 8355   0.909   3.829   7.678 -0.7742 -0.4409  0.5795
   80CHL1  H18C 8356   0.920   3.926   7.532  0.6150  0.6993  0.5628
   80CHL1   C12 8357   0.800   3.664   7.467  0.2697 -0.5767 -0.2775
   80CHL1  H12A 8358   0.870   3.617   7.539 -1.7497  0.7965  2.7951
   80CHL1  H12B 8359   0.722   3.592   7.434 -0.9421  0.8831 -0.6992
   80CHL1   C11 8360   0.893   3.712   7.348  0.2604 -0.0974 -0.4141
   80CHL1  H11A 8361   0.980   3.771   7.383  0.2247  1.2512 -2.4804
   80CHL1  H11B 8362   0.926   3.621   7.294  0.6572 -0.0700 -0.2234
   80CHL1    C9 8363   0.801   3.799   7.255  0.2605  0.3270 -0.1579
   80CHL1    H9 8364   0.721   3.726   7.229  1.8611 -0.7658 -2.2916
   80CHL1   C10 8365   0.873   3.844   7.124 -0.0213  0.6459 -0.6911
   80CHL1   C19 8366   1.022   3.888   7.166 -0.4640 -0.1782 -0.1386
   80CHL1  H19A 8367   1.088   3.807   7.203  1.0549  1.3129  0.5670
   80CHL1  H19B 8368   1.078   3.942   7.086  0.6969  0.6079  1.1418
   80CHL1  H19C 8369   1.011   3.969   7.242 -2.4112  0.6895 -1.2791
   80CHL1    C1 8370   0.890   3.722   7.022  0.1451  0.3402 -0.3970
   80CHL1   H1A 8371   0.953   3.644   7.069 -0.7718 -1.5617 -2.1814
   80CHL1   H1B 8372   0.792   3.671   7.011  0.6798 -0.3684 -2.3590
   80CHL1    C2 8373   0.952   3.758   6.883 -0.0529 -0.4651  0.1511
   80CHL1   H2A 8374   0.965   3.659   6.835  1.5580  0.3058 -1.0883
   80CHL1   H2B 8375   1.059   3.785   6.891  0.3214 -1.4742 -1.1733
   80CHL1   C20 8376   0.660   3.706   7.786 -0.1551 -0.1633  0.6194
   80CHL1   H20 8377   0.723   3.783   7.836 -2.8210  2.1606  0.6175
   80CHL1   C21 8378   0.736   3.565   7.782 -0.0220 -0.5282 -0.3763
   80CHL1  H21A 8379   0.830   3.575   7.724 -0.6771 -0.5738 -1.4657
   80CHL1  H21B 8380   0.672   3.492   7.729 -1.2298  0.6230 -0.5578
   80CHL1  H21C 8381   0.752   3.521   7.883  1.1922 -0.7643 -0.6537
   80CHL1   C22 8382   0.542   3.683   7.878 -0.1595  0.1729 -0.4256
   80CHL1  H22A 8383   0.455   3.749   7.863 -1.3039 -1.3460 -0.7027
   80CHL1  H22B 8384   0.500   3.580   7.870 -1.6632  0.5749  1.6892
   80CHL1   C23 8385   0.573   3.700   8.035 -0.3918  0.9448 -0.6440
   80CHL1  H23A 8386   0.475   3.680   8.085 -1.1880 -0.0105 -2.4865
   80CHL1  H23B 8387   0.640   3.616   8.063 -2.5019 -0.6809 -0.2328
   80CHL1   C24 8388   0.626   3.833   8.075 -0.4339 -0.7332 -1.2169
   80CHL1  H24A 8389   0.736   3.826   8.066 -0.4571 -2.2387 -0.6583
   80CHL1  H24B 8390   0.596   3.915   8.007  3.1668  1.3194 -0.5488
   80CHL1   C25 8391   0.588   3.881   8.219 -0.4451  0.2024 -0.2398
   80CHL1   H25 8392   0.478   3.899   8.220 -0.8400 -1.7386 -1.8885
   80CHL1   C26 8393   0.616   3.769   8.321  0.0476 -0.0099 -0.0531
   80CHL1  H26A 8394   0.721   3.736   8.308  0.4819  1.9297 -2.0290
   80CHL1  H26B 8395   0.603   3.809   8.424 -2.4858  0.8477 -0.6381
   80CHL1  H26C 8396   0.561   3.674   8.306  1.6463 -0.9691 -0.0344
   80CHL1   C27 8397   0.671   4.009   8.252  0.1722  0.1670  0.3788
   80CHL1  H27A 8398   0.773   3.971   8.277  0.7395  1.3807 -0.0452
   80CHL1  H27B 8399   0.679   4.082   8.170 -0.4142  0.2693  0.4085
   80CHL1  H27C 8400   0.623   4.059   8.340 -2.8355  0.0008 -1.0356
   81CHL1    C3 8401   2.371   1.654   6.840  0.4301  0.2102 -1.1290
   81CHL1    H3 8402   2.450   1.584   6.874 -0.6232 -1.0759 -1.2277
   81CHL1    O3 8403   2.368   1.649   6.698  0.3339  0.2301 -0.3428
   81CHL1   H3' 8404   2.328   1.567   6.669 -1.0351  0.9440 -0.5141
   81CHL1    C4 8405   2.242   1.605   6.903  0.4604 -0.4125  0.0442
   81CHL1   H4A 8406   2.159   1.649   6.844  1.4559  0.3843 -0.8088
   81CHL1   H4B 8407   2.236   1.497   6.877  1.6235 -0.2402 -1.0737
   81CHL1    C5 8408   2.228   1.622   7.057 -0.7561 -1.3341  0.1782
   81CHL1    C6 8409   2.206   1.520   7.137  0.3597 -0.3236  0.2784
   81CHL1    H6 8410   2.207   1.414   7.107  2.7633 -0.3552  0.2490
   81CHL1    C7 8411   2.175   1.537   7.286 -0.3055  0.4137 -0.0535
   81CHL1   H7A 8412   2.083   1.483   7.320  1.0424 -1.1797  1.2590
   81CHL1   H7B 8413   2.252   1.468   7.327 -0.4574 -0.5260 -1.2688
   81CHL1    C8 8414   2.180   1.675   7.347 -0.5332 -0.7609 -0.6439
   81CHL1    H8 8415   2.077   1.717   7.351 -0.5089 -0.7622  0.7093
   81CHL1   C14 8416   2.232   1.672   7.492  0.1922  0.2162  0.5343
   81CHL1   H14 8417   2.337   1.636   7.492  0.3190 -0.0846 -4.2541
   81CHL1   C15 8418   2.161   1.573   7.598  0.1873  0.6119  0.5605
   81CHL1  H15A 8419   2.050   1.579   7.589 -0.1708 -0.9230  3.1357
   81CHL1  H15B 8420   2.188   1.465   7.593  0.6310  0.7663 -1.0228
   81CHL1   C16 8421   2.202   1.620   7.733 -0.1268  0.5797  0.1944
   81CHL1  H16A 8422   2.107   1.615   7.791 -1.1907 -0.4689 -1.5375
   81CHL1  H16B 8423   2.283   1.555   7.772  2.1651  2.0870 -1.7837
   81CHL1   C17 8424   2.257   1.767   7.710 -0.8012 -0.2720 -0.2082
   81CHL1   H17 8425   2.367   1.753   7.709 -0.5724  1.0427  1.6593
   81CHL1   C13 8426   2.222   1.812   7.563 -0.1535  0.8005  0.0753
   81CHL1   C18 8427   2.086   1.869   7.564 -0.2551 -0.4994  0.7223
   81CHL1  H18A 8428   2.041   1.879   7.463 -0.7160 -3.2484  0.5652
   81CHL1  H18B 8429   2.016   1.798   7.612  0.5976 -0.7881  1.5814
   81CHL1  H18C 8430   2.075   1.963   7.621  2.8933 -0.1860  0.9724
   81CHL1   C12 8431   2.316   1.908   7.486 -0.1856 -0.6055 -0.4879
   81CHL1  H12A 8432   2.303   2.012   7.520  2.2116  0.1307 -1.6052
   81CHL1  H12B 8433   2.421   1.878   7.508 -0.1213  0.5661  0.8588
   81CHL1   C11 8434   2.287   1.909   7.332 -0.5097  0.2985  0.4202
   81CHL1  H11A 8435   2.198   1.974   7.322 -0.0635  0.8170 -0.2788
   81CHL1  H11B 8436   2.377   1.949   7.281  1.0430 -2.4040  0.8226
   81CHL1    C9 8437   2.271   1.766   7.266  0.5938  0.1491 -0.2895
   81CHL1    H9 8438   2.370   1.721   7.287  1.4006  0.8111 -2.4847
   81CHL1   C10 8439   2.255   1.767   7.111  0.2489  0.6203  0.1802
   81CHL1   C19 8440   2.140   1.864   7.063 -0.0832  0.3138 -0.1794
   81CHL1  H19A 8441   2.046   1.838   7.116  0.3487 -0.9147  0.0233
   81CHL1  H19B 8442   2.173   1.967   7.090  0.2743 -0.5178  3.0611
   81CHL1  H19C 8443   2.131   1.862   6.953  2.4313  1.1908 -0.4721
   81CHL1    C1 8444   2.384   1.817   7.046  0.5020 -0.2675  0.1576
   81CHL1   H1A 8445   2.402   1.923   7.073  1.9846 -0.4356 -0.0512
   81CHL1   H1B 8446   2.470   1.761   7.089 -0.4255 -1.5684  0.3459
   81CHL1    C2 8447   2.402   1.797   6.890  0.0705 -0.8078 -0.1127
   81CHL1   H2A 8448   2.498   1.836   6.851 -1.8842  2.5189 -2.0206
   81CHL1   H2B 8449   2.322   1.852   6.837 -0.7975 -2.7666 -0.9359
   81CHL1   C20 8450   2.218   1.853   7.829 -0.3622  0.1716 -0.1552
   81CHL1   H20 8451   2.108   1.866   7.818 -0.6276 -1.0968  0.7880
   81CHL1   C21 8452   2.291   1.994   7.828 -0.2851  0.1419 -0.4833
   81CHL1  H21A 8453   2.259   2.049   7.919 -0.0421  0.8526 -0.8171
   81CHL1  H21B 8454   2.273   2.048   7.732  1.4613 -1.8121 -2.0232
   81CHL1  H21C 8455   2.400   1.969   7.833 -0.6119 -1.1735  3.4676
   81CHL1   C22 8456   2.239   1.784   7.965  0.0010  0.5434 -0.2723
   81CHL1  H22A 8457   2.196   1.682   7.973 -0.0213  0.6802  1.9234
   81CHL1  H22B 8458   2.348   1.776   7.982 -0.0554  0.2440 -0.0404
   81CHL1   C23 8459   2.171   1.850   8.082 -0.1093 -0.5980  0.1983
   81CHL1  H23A 8460   2.198   1.958   8.081  0.6402 -0.7827 -0.1574
   81CHL1  H23B 8461   2.061   1.837   8.075  0.1781 -2.3970 -1.7520
   81CHL1   C24 8462   2.221   1.796   8.217 -0.2899 -0.2238 -0.3664
   81CHL1  H24A 8463   2.179   1.694   8.231  0.5675 -0.3054  1.9890
   81CHL1  H24B 8464   2.329   1.771   8.219 -0.5947 -2.2310  4.3106
   81CHL1   C25 8465   2.170   1.867   8.341 -0.0852  0.2548 -0.7353
   81CHL1   H25 8466   2.060   1.862   8.326 -0.1461  1.6926 -0.9144
   81CHL1   C26 8467   2.218   1.793   8.467 -0.2650  0.0230  0.4910
   81CHL1  H26A 8468   2.329   1.804   8.472 -0.4828  2.3044  1.3491
   81CHL1  H26B 8469   2.166   1.835   8.555 -2.3496 -2.0579  0.3683
   81CHL1  H26C 8470   2.189   1.685   8.464 -2.5037  0.4721  2.7511
   81CHL1   C27 8471   2.209   2.006   8.340  0.1084  0.3380 -0.4107
   81CHL1  H27A 8472   2.191   2.050   8.440 -1.3933 -0.5754 -0.2525
   81CHL1  H27B 8473   2.318   2.008   8.318  0.2691  4.4940  0.0818
   81CHL1  H27C 8474   2.150   2.075   8.275 -2.7570  0.6991  2.3718
   82CHL1    C3 8475   0.179   0.269   7.004 -0.6430  0.7200 -0.3069
   82CHL1    H3 8476   0.136   0.370   7.022  0.8529  1.3014  0.1228
   82CHL1    O3 8477   0.146   0.210   6.882 -0.3304 -0.4723  0.2732
   82CHL1   H3' 8478   0.123   0.287   6.829 -0.2607 -1.2963 -0.9901
   82CHL1    C4 8479   0.331   0.279   7.038  0.1579  0.4216  0.1753
   82CHL1   H4A 8480   0.379   0.182   7.012  0.2714  0.8673 -1.3362
   82CHL1   H4B 8481   0.376   0.337   6.955 -1.7623 -0.1900 -1.3599
   82CHL1    C5 8482   0.366   0.316   7.184  0.4776  0.7386  0.9723
   82CHL1    C6 8483   0.439   0.420   7.215  0.3783 -0.2382  0.4784
   82CHL1    H6 8484   0.487   0.480   7.137 -1.5486 -0.0495 -0.6125
   82CHL1    C7 8485   0.469   0.458   7.355 -0.1909 -0.0912  0.3135
   82CHL1   H7A 8486   0.576   0.472   7.380  0.2538 -0.9309 -1.0740
   82CHL1   H7B 8487   0.406   0.545   7.385 -0.7339 -0.1951 -0.4768
   82CHL1    C8 8488   0.455   0.339   7.462  0.4690  0.0442  0.7338
   82CHL1    H8 8489   0.529   0.260   7.440  0.2425 -0.3969  1.5425
   82CHL1   C14 8490   0.463   0.378   7.607 -0.4330 -0.4334 -0.1898
   82CHL1   H14 8491   0.379   0.451   7.610 -0.9299 -1.0412  1.6865
   82CHL1   C15 8492   0.590   0.444   7.649 -0.1713  0.3464 -0.4717
   82CHL1  H15A 8493   0.668   0.385   7.596  1.6185  0.1974  2.1216
   82CHL1  H15B 8494   0.602   0.546   7.607  1.3700  0.4496  0.1606
   82CHL1   C16 8495   0.597   0.431   7.801  0.1505  0.1316  0.7251
   82CHL1  H16A 8496   0.689   0.383   7.842 -0.8095 -1.8379  0.7114
   82CHL1  H16B 8497   0.587   0.527   7.856 -0.0575  0.4374  0.1592
   82CHL1   C17 8498   0.470   0.348   7.845  0.6308 -0.2627  0.1803
   82CHL1   H17 8499   0.391   0.421   7.873 -0.0624 -0.6167 -0.7977
   82CHL1   C13 8500   0.430   0.276   7.716  0.4102  0.1193 -0.4994
   82CHL1   C18 8501   0.522   0.148   7.713  0.4298  0.3185 -0.6022
   82CHL1  H18A 8502   0.485   0.071   7.784  1.2710  0.5447  0.1147
   82CHL1  H18B 8503   0.540   0.104   7.613  0.9363 -0.3688 -0.2181
   82CHL1  H18C 8504   0.621   0.183   7.751 -0.1748  2.3493 -0.8121
   82CHL1   C12 8505   0.276   0.247   7.693 -0.3849  0.0590  0.0001
   82CHL1  H12A 8506   0.249   0.180   7.777  0.2108 -0.6764 -0.3817
   82CHL1  H12B 8507   0.213   0.337   7.681  1.5295  1.2541 -1.9730
   82CHL1   C11 8508   0.271   0.185   7.557 -0.1714  0.1047  0.1121
   82CHL1  H11A 8509   0.324   0.087   7.554 -1.6223 -0.6866 -1.0834
   82CHL1  H11B 8510   0.166   0.156   7.534  0.2471 -0.5977 -0.9885
   82CHL1    C9 8511   0.310   0.283   7.437  1.3250 -0.6315 -0.2136
   82CHL1    H9 8512   0.239   0.367   7.450  1.0263 -0.5357 -2.1129
   82CHL1   C10 8513   0.288   0.232   7.289 -1.4138  1.1871 -0.3842
   82CHL1   C19 8514   0.348   0.082   7.294  0.3754  0.5009 -0.5690
   82CHL1  H19A 8515   0.358   0.045   7.189 -0.0918  0.7524 -0.7072
   82CHL1  H19B 8516   0.450   0.063   7.331  1.5872  0.4857 -3.6120
   82CHL1  H19C 8517   0.274   0.019   7.348  0.4911  1.8464  1.2211
   82CHL1    C1 8518   0.141   0.240   7.254 -0.5781 -0.5864 -0.5570
   82CHL1   H1A 8519   0.082   0.181   7.327  2.1920 -0.6093  1.8476
   82CHL1   H1B 8520   0.110   0.347   7.255  0.1169 -0.3642  1.8492
   82CHL1    C2 8521   0.112   0.190   7.115  0.2773  0.8727 -1.1570
   82CHL1   H2A 8522   0.003   0.191   7.094 -0.1213  0.9086  0.7507
   82CHL1   H2B 8523   0.150   0.086   7.099 -0.2305  0.1833  1.5668
   82CHL1   C20 8524   0.494   0.259   7.972 -0.0110 -0.6831  0.5743
   82CHL1   H20 8525   0.569   0.179   7.953 -0.2480 -0.8189  0.2006
   82CHL1   C21 8526   0.374   0.184   8.024  0.5174  0.3875  0.0307
   82CHL1  H21A 8527   0.277   0.238   8.020 -0.2535 -0.9153  0.4971
   82CHL1  H21B 8528   0.378   0.142   8.127 -0.1610  0.7701  0.2232
   82CHL1  H21C 8529   0.360   0.092   7.962  1.7287 -0.3903  0.8794
   82CHL1   C22 8530   0.556   0.337   8.088 -0.1147  0.0765  0.1936
   82CHL1  H22A 8531   0.582   0.271   8.174 -0.9216  0.8477  1.0523
   82CHL1  H22B 8532   0.647   0.396   8.063 -0.3251  0.4093  0.2089
   82CHL1   C23 8533   0.462   0.435   8.157  0.5927 -0.7233  0.1035
   82CHL1  H23A 8534   0.421   0.510   8.087  2.6220  0.2790 -0.0735
   82CHL1  H23B 8535   0.374   0.385   8.203  0.8780 -1.9206 -0.6145
   82CHL1   C24 8536   0.546   0.498   8.272  0.8240  0.2526  0.0383
   82CHL1  H24A 8537   0.545   0.420   8.352  1.6287  1.5449  1.3468
   82CHL1  H24B 8538   0.649   0.516   8.233  0.2983 -1.0781 -2.1610
   82CHL1   C25 8539   0.486   0.624   8.330 -0.5287  0.0596  0.0828
   82CHL1   H25 8540   0.557   0.656   8.410  0.9008 -1.6798 -0.4197
   82CHL1   C26 8541   0.497   0.736   8.223  0.6759  0.6851  0.3404
   82CHL1  H26A 8542   0.595   0.785   8.213 -0.2920  2.3547 -1.5147
   82CHL1  H26B 8543   0.467   0.701   8.122 -1.4196 -0.0603  1.1592
   82CHL1  H26C 8544   0.432   0.813   8.270  0.1835 -0.4212  1.5462
   82CHL1   C27 8545   0.345   0.613   8.379  0.0780  0.1439  0.4443
   82CHL1  H27A 8546   0.280   0.580   8.295  0.3817 -2.2302  1.0607
   82CHL1  H27B 8547   0.330   0.534   8.456 -0.0804 -2.5185 -2.1395
   82CHL1  H27C 8548   0.309   0.713   8.412  0.8860  1.4960 -2.4349
   83CHL1    C3 8549   3.792   5.336   7.075  0.1017 -0.2062 -0.0123
   83CHL1    H3 8550   3.697   5.367   7.124  0.0607 -1.1763  0.5435
   83CHL1    O3 8551   3.763   5.313   6.938 -0.0913  0.0027  0.2859
   83CHL1   H3' 8552   3.840   5.355   6.900  1.5319  0.5858  3.8392
   83CHL1    C4 8553   3.901   5.441   7.095 -0.7481 -0.1849 -0.5216
   83CHL1   H4A 8554   3.994   5.427   7.036  0.7685  1.3296  1.3446
   83CHL1   H4B 8555   3.860   5.540   7.065  1.1386  0.2684 -1.8075
   83CHL1    C5 8556   3.941   5.456   7.237  0.3420 -0.2199 -0.7113
   83CHL1    C6 8557   3.924   5.568   7.309 -0.4615 -0.5927  0.1116
   83CHL1    H6 8558   3.885   5.661   7.264  1.7168  0.2325 -0.2265
   83CHL1    C7 8559   3.981   5.577   7.449  0.5548 -0.9419  0.2254
   83CHL1   H7A 8560   4.044   5.666   7.471  1.0856 -1.1991 -0.2352
   83CHL1   H7B 8561   3.894   5.577   7.518  0.4330 -3.3484  0.1593
   83CHL1    C8 8562   4.070   5.462   7.492 -0.5772 -0.7628 -0.2200
   83CHL1    H8 8563   4.170   5.486   7.450 -0.1365 -1.8254  0.1864
   83CHL1   C14 8564   4.095   5.468   7.643  0.5032  0.5845 -0.3173
   83CHL1   H14 8565   3.995   5.445   7.684  1.1392  0.8981  1.4971
   83CHL1   C15 8566   4.145   5.600   7.703 -0.1453 -0.7831 -0.6665
   83CHL1  H15A 8567   4.236   5.630   7.647 -1.5477 -0.3432 -2.8271
   83CHL1  H15B 8568   4.068   5.679   7.712  0.6706  0.0250 -0.7053
   83CHL1   C16 8569   4.190   5.562   7.844  0.6691 -0.3556 -0.3034
   83CHL1  H16A 8570   4.293   5.598   7.864  1.2166 -0.4777 -2.6526
   83CHL1  H16B 8571   4.115   5.609   7.912 -0.1170  1.0992 -2.0717
   83CHL1   C17 8572   4.183   5.409   7.852 -0.0552 -0.2035 -0.5024
   83CHL1   H17 8573   4.086   5.376   7.894 -0.8447  0.3763 -1.8217
   83CHL1   C13 8574   4.182   5.360   7.705 -0.4156 -0.5784  0.2410
   83CHL1   C18 8575   4.328   5.364   7.656 -0.4118 -0.5994 -0.1286
   83CHL1  H18A 8576   4.391   5.292   7.711  2.3017  2.4088  1.0498
   83CHL1  H18B 8577   4.332   5.343   7.547 -1.2030 -4.0061  0.3789
   83CHL1  H18C 8578   4.383   5.459   7.675 -0.2460 -0.9674  1.3313
   83CHL1   C12 8579   4.112   5.225   7.680 -0.4496 -0.1065  0.3646
   83CHL1  H12A 8580   4.163   5.142   7.734  0.9748  1.8929  2.2951
   83CHL1  H12B 8581   4.017   5.234   7.738 -2.8354 -0.9973 -3.1272
   83CHL1   C11 8582   4.070   5.199   7.535  0.2269 -0.3749 -0.4826
   83CHL1  H11A 8583   4.165   5.165   7.490  0.7057  0.1215  0.1450
   83CHL1  H11B 8584   3.983   5.129   7.542 -1.0868  1.1870 -0.5894
   83CHL1    C9 8585   4.016   5.327   7.461  0.7812  0.1586 -0.6766
   83CHL1    H9 8586   3.909   5.328   7.492  0.9002  2.8788 -0.1514
   83CHL1   C10 8587   3.988   5.323   7.308  0.3693  0.8771 -0.7937
   83CHL1   C19 8588   4.122   5.279   7.242  1.0541 -1.1778 -0.6187
   83CHL1  H19A 8589   4.112   5.263   7.133 -2.6126 -0.1104 -0.5441
   83CHL1  H19B 8590   4.196   5.360   7.264 -0.7848  0.4382 -0.0982
   83CHL1  H19C 8591   4.170   5.186   7.280  1.0453 -1.2165 -0.7031
   83CHL1    C1 8592   3.877   5.213   7.287  0.2007 -0.3805  0.2240
   83CHL1   H1A 8593   3.908   5.117   7.334 -2.8224 -1.6110 -0.0851
   83CHL1   H1B 8594   3.786   5.259   7.330 -0.4906 -1.0107 -0.5252
   83CHL1    C2 8595   3.832   5.198   7.138 -0.5301  0.3887 -0.6191
   83CHL1   H2A 8596   3.744   5.132   7.141  0.7861 -1.4254  2.0054
   83CHL1   H2B 8597   3.903   5.145   7.071 -0.7089 -0.5370 -0.0940
   83CHL1   C20 8598   4.283   5.355   7.952 -0.0485  0.5248  0.2916
   83CHL1   H20 8599   4.382   5.370   7.903 -1.1001  0.4949 -1.9514
   83CHL1   C21 8600   4.260   5.210   7.984 -0.5402  0.6558 -0.7011
   83CHL1  H21A 8601   4.323   5.179   8.069  0.6436  2.0161 -1.0458
   83CHL1  H21B 8602   4.268   5.144   7.895  2.6284 -0.3485  0.2150
   83CHL1  H21C 8603   4.156   5.213   8.023 -1.7590  1.5747 -3.6672
   83CHL1   C22 8604   4.300   5.428   8.089 -0.0902 -0.3289 -0.0935
   83CHL1  H22A 8605   4.390   5.389   8.141  0.4952  0.8043 -0.2234
   83CHL1  H22B 8606   4.327   5.534   8.067  0.9455 -0.0098  2.4142
   83CHL1   C23 8607   4.177   5.417   8.184 -0.5458 -0.5818 -0.5407
   83CHL1  H23A 8608   4.087   5.393   8.124  0.1550  0.1402 -1.9317
   83CHL1  H23B 8609   4.176   5.327   8.250 -1.0980 -1.0705 -1.1987
   83CHL1   C24 8610   4.171   5.552   8.262  0.0145 -0.2705  0.7753
   83CHL1  H24A 8611   4.270   5.562   8.312 -0.6234  2.5967  1.7029
   83CHL1  H24B 8612   4.167   5.644   8.200  0.5876  0.5931  1.9641
   83CHL1   C25 8613   4.058   5.567   8.379 -0.0934  0.5562 -0.0335
   83CHL1   H25 8614   3.975   5.503   8.341  1.5990 -1.2166 -0.9282
   83CHL1   C26 8615   4.106   5.501   8.501  0.1336 -0.4211  0.3037
   83CHL1  H26A 8616   4.211   5.534   8.519  0.6222 -0.9934 -1.2994
   83CHL1  H26B 8617   4.038   5.517   8.587 -1.5104 -0.8995 -0.8625
   83CHL1  H26C 8618   4.113   5.393   8.475 -1.5325 -0.1190 -1.6145
   83CHL1   C27 8619   4.017   5.712   8.400  0.3759 -1.1967 -0.4197
   83CHL1  H27A 8620   3.963   5.756   8.313 -0.4454 -1.3264  0.0240
   83CHL1  H27B 8621   3.943   5.728   8.481 -2.0661  0.9441 -2.8530
   83CHL1  H27C 8622   4.105   5.777   8.419 -0.6203  0.1591 -0.2640
   84CHL1    C3 8623   0.224   4.738   6.861  1.0799  0.6529 -0.4066
   84CHL1    H3 8624   0.166   4.662   6.919  2.0694  0.6254  0.5710
   84CHL1    O3 8625   0.193   4.720   6.717 -0.4839  0.2430  0.0209
   84CHL1   H3' 8626   0.098   4.712   6.706 -0.5337 -0.9428  1.0509
   84CHL1    C4 8627   0.177   4.877   6.896 -0.0578 -0.2241 -0.1532
   84CHL1   H4A 8628   0.220   4.945   6.819  0.6954  1.6359  1.8074
   84CHL1   H4B 8629   0.068   4.890   6.877  0.1469  2.2176 -0.0225
   84CHL1    C5 8630   0.226   4.919   7.030  0.0487  0.2176 -0.4016
   84CHL1    C6 8631   0.147   4.970   7.122  1.0951 -0.5034  0.4289
   84CHL1    H6 8632   0.043   4.993   7.094  1.0692 -1.8961 -0.7501
   84CHL1    C7 8633   0.175   5.016   7.260 -0.4925 -0.9462  0.6959
   84CHL1   H7A 8634   0.140   5.120   7.280  0.1562 -0.7055  0.5846
   84CHL1   H7B 8635   0.137   4.948   7.340 -0.5441  0.7691  2.1931
   84CHL1    C8 8636   0.334   5.013   7.282  0.8366 -0.2406 -0.1001
   84CHL1    H8 8637   0.384   5.104   7.243  2.8778 -0.6430  1.4034
   84CHL1   C14 8638   0.363   5.015   7.433  0.0725 -0.1209  0.4003
   84CHL1   H14 8639   0.313   4.922   7.465 -1.1924  0.0541 -0.9665
   84CHL1   C15 8640   0.292   5.118   7.516  0.4225 -0.5807  0.2156
   84CHL1  H15A 8641   0.283   5.217   7.466 -0.0399  0.0462  1.5064
   84CHL1  H15B 8642   0.192   5.073   7.530  0.1850 -0.9312 -2.1618
   84CHL1   C16 8643   0.371   5.127   7.644 -1.0671  0.6310 -0.4463
   84CHL1  H16A 8644   0.406   5.233   7.649 -0.1168  0.3531 -0.8818
   84CHL1  H16B 8645   0.320   5.111   7.742 -1.7163 -0.3731 -0.9423
   84CHL1   C17 8646   0.495   5.028   7.626 -0.8036  0.7370 -0.3650
   84CHL1   H17 8647   0.459   4.925   7.645 -1.9230  0.6945 -2.3667
   84CHL1   C13 8648   0.507   5.019   7.475  0.0475 -0.7144  0.0439
   84CHL1   C18 8649   0.583   5.147   7.430  0.0203 -0.4668  0.1403
   84CHL1  H18A 8650   0.551   5.247   7.467 -0.0536  0.3621 -2.0123
   84CHL1  H18B 8651   0.689   5.138   7.462  0.1812 -1.5070 -0.6106
   84CHL1  H18C 8652   0.577   5.158   7.319 -0.4751 -1.6239  0.0426
   84CHL1   C12 8653   0.588   4.906   7.408  0.0641 -0.8561 -0.0422
   84CHL1  H12A 8654   0.699   4.904   7.411  0.3010 -0.2179 -3.4600
   84CHL1  H12B 8655   0.547   4.817   7.459 -2.7179  0.3480  0.0087
   84CHL1   C11 8656   0.561   4.901   7.254 -0.3961 -0.6723 -0.6088
   84CHL1  H11A 8657   0.598   4.988   7.195  0.3039 -0.1684  0.5337
   84CHL1  H11B 8658   0.601   4.806   7.214  0.8449  0.1050 -1.2923
   84CHL1    C9 8659   0.409   4.899   7.219  0.2468 -0.3116 -0.2498
   84CHL1    H9 8660   0.374   4.803   7.263 -3.3181  0.1912 -1.6528
   84CHL1   C10 8661   0.374   4.881   7.066  0.5751  0.0201  0.0670
   84CHL1   C19 8662   0.460   4.981   6.986 -0.5490 -0.1149  0.9181
   84CHL1  H19A 8663   0.456   5.084   7.027  0.1539  0.1217  0.4125
   84CHL1  H19B 8664   0.569   4.957   6.983 -0.2063  1.3988  0.2944
   84CHL1  H19C 8665   0.422   4.980   6.882  1.5700 -1.2930  0.0916
   84CHL1    C1 8666   0.408   4.735   7.019  0.2254  0.0618  0.6343
   84CHL1   H1A 8667   0.518   4.745   7.029  0.3803  1.5677 -1.8676
   84CHL1   H1B 8668   0.358   4.665   7.089  0.1179 -0.0573  0.4403
   84CHL1    C2 8669   0.370   4.708   6.879  0.1539 -0.1190  0.2242
   84CHL1   H2A 8670   0.397   4.601   6.871  0.9903  0.0526  0.7253
   84CHL1   H2B 8671   0.425   4.771   6.805 -1.3618  0.5496 -0.3802
   84CHL1   C20 8672   0.619   5.051   7.710 -0.0689  0.4640 -0.3869
   84CHL1   H20 8673   0.700   5.103   7.655  0.0426 -0.2010 -0.8706
   84CHL1   C21 8674   0.674   4.911   7.735  0.0850  0.2853 -0.0458
   84CHL1  H21A 8675   0.755   4.909   7.811 -2.7431 -1.7091  3.2080
   84CHL1  H21B 8676   0.700   4.853   7.643 -0.4649 -1.6048  0.9447
   84CHL1  H21C 8677   0.597   4.856   7.793  0.0610 -0.9749 -1.2066
   84CHL1   C22 8678   0.606   5.144   7.835 -0.3668 -0.8308  0.0348
   84CHL1  H22A 8679   0.712   5.151   7.869 -0.4291 -1.8183  0.4652
   84CHL1  H22B 8680   0.568   5.244   7.805  2.8560 -0.5130 -3.8133
   84CHL1   C23 8681   0.525   5.081   7.952  0.4934  0.4682 -0.4602
   84CHL1  H23A 8682   0.432   5.032   7.918  1.3156 -1.7925  0.3441
   84CHL1  H23B 8683   0.580   4.998   8.002 -0.4116  0.4190  0.4954
   84CHL1   C24 8684   0.499   5.178   8.062 -0.1733 -0.0078  0.1483
   84CHL1  H24A 8685   0.427   5.260   8.039 -0.0602 -0.0858 -0.4921
   84CHL1  H24B 8686   0.447   5.124   8.144 -0.9021 -3.6966 -2.5273
   84CHL1   C25 8687   0.628   5.255   8.113  0.3486  0.4671  0.1248
   84CHL1   H25 8688   0.658   5.329   8.035  1.8867  0.2506  0.4713
   84CHL1   C26 8689   0.598   5.328   8.242 -0.2019  0.0329  0.4549
   84CHL1  H26A 8690   0.529   5.415   8.232  2.0401  1.7404 -0.9157
   84CHL1  H26B 8691   0.558   5.267   8.326 -0.7083  1.3767  1.2292
   84CHL1  H26C 8692   0.688   5.372   8.289 -0.2455 -1.6160  2.2077
   84CHL1   C27 8693   0.735   5.159   8.154  0.2685  0.6132  0.6319
   84CHL1  H27A 8694   0.779   5.110   8.065  1.5798  0.7761  1.1731
   84CHL1  H27B 8695   0.820   5.195   8.216 -0.5589  2.3649  0.8212
   84CHL1  H27C 8696   0.686   5.079   8.213 -1.0042  1.0562  0.2029
   85CHL1    C3 8697   0.951   2.801   6.841 -0.1003  0.2547  0.9581
   85CHL1    H3 8698   0.893   2.894   6.860 -0.3801  0.1257  0.7481
   85CHL1    O3 8699   0.975   2.784   6.698  0.3083 -0.1994  0.0950
   85CHL1   H3' 8700   1.023   2.701   6.701  2.8820  1.1692  2.6363
   85CHL1    C4 8701   1.087   2.796   6.919 -0.0144  0.8765  0.4087
   85CHL1   H4A 8702   1.153   2.714   6.883  0.8178  1.6637  0.1393
   85CHL1   H4B 8703   1.140   2.890   6.897  0.8969  0.0891 -0.9164
   85CHL1    C5 8704   1.057   2.775   7.069 -0.1805  0.6491  0.3549
   85CHL1    C6 8705   1.108   2.875   7.148 -0.6644  0.1890  0.9105
   85CHL1    H6 8706   1.164   2.959   7.104 -0.9670  0.2541  0.6452
   85CHL1    C7 8707   1.090   2.872   7.292  0.2323 -0.0593 -0.0978
   85CHL1   H7A 8708   1.185   2.900   7.344 -1.7643  4.0875  1.8612
   85CHL1   H7B 8709   1.024   2.957   7.320  1.6012  1.9188 -2.4595
   85CHL1    C8 8710   1.039   2.746   7.357  0.8269  0.7763  0.0083
   85CHL1    H8 8711   1.125   2.677   7.361  1.5416  1.6717  0.5023
   85CHL1   C14 8712   0.985   2.763   7.499  0.2298  0.5817 -0.1242
   85CHL1   H14 8713   0.892   2.824   7.495 -3.0995 -3.9390 -0.0569
   85CHL1   C15 8714   1.067   2.840   7.600  0.2544 -0.7534 -0.0583
   85CHL1  H15A 8715   1.175   2.816   7.595  0.5657  0.5675 -0.2182
   85CHL1  H15B 8716   1.075   2.946   7.566  3.3051 -1.6486 -2.5294
   85CHL1   C16 8717   1.011   2.808   7.737  0.2400  0.1158  0.4226
   85CHL1  H16A 8718   1.087   2.762   7.804  1.6848  0.4045 -0.9467
   85CHL1  H16B 8719   0.970   2.898   7.789 -0.3656  0.1417 -0.0911
   85CHL1   C17 8720   0.903   2.696   7.701  0.8381  0.1522  0.0462
   85CHL1   H17 8721   0.813   2.760   7.688  1.6427  0.8240 -3.0175
   85CHL1   C13 8722   0.938   2.636   7.568  0.1237 -0.5800  0.1768
   85CHL1   C18 8723   1.047   2.528   7.581 -0.3845  0.4788 -0.2906
   85CHL1  H18A 8724   1.069   2.482   7.483 -0.8478 -1.3433  0.4203
   85CHL1  H18B 8725   1.137   2.577   7.625  0.1392 -0.0773 -0.7292
   85CHL1  H18C 8726   1.009   2.452   7.652  0.5345 -0.2927 -0.6058
   85CHL1   C12 8727   0.814   2.592   7.479  0.1894  0.2842  0.4732
   85CHL1  H12A 8728   0.760   2.502   7.517  1.0248  0.1963  1.4916
   85CHL1  H12B 8729   0.744   2.679   7.476  1.5665  1.5791  2.9487
   85CHL1   C11 8730   0.864   2.564   7.336 -0.3461 -0.2261 -0.4190
   85CHL1  H11A 8731   0.921   2.469   7.341 -0.5725 -0.3871 -0.8756
   85CHL1  H11B 8732   0.770   2.541   7.280 -0.8249 -1.5457  0.8623
   85CHL1    C9 8733   0.932   2.681   7.269 -0.4926  1.0274 -0.4756
   85CHL1    H9 8734   0.857   2.763   7.258 -0.3487  0.8245 -3.9971
   85CHL1   C10 8735   0.964   2.662   7.118  0.6490 -0.8873 -0.2614
   85CHL1   C19 8736   1.025   2.525   7.101  0.2209  0.1245 -0.8920
   85CHL1  H19A 8737   1.051   2.502   6.995 -0.8755 -1.2087 -0.8967
   85CHL1  H19B 8738   1.113   2.523   7.168 -0.8356  1.3564  0.5898
   85CHL1  H19C 8739   0.961   2.438   7.125 -0.7239  0.7874 -0.9519
   85CHL1    C1 8740   0.829   2.676   7.029 -0.6627 -0.1380  0.5063
   85CHL1   H1A 8741   0.768   2.589   7.063 -0.0255 -0.6609  0.3424
   85CHL1   H1B 8742   0.776   2.766   7.064  1.0690  0.5907  1.3811
   85CHL1    C2 8743   0.858   2.686   6.874  0.0659  0.4430 -0.1684
   85CHL1   H2A 8744   0.760   2.696   6.823 -0.1273 -1.5857 -0.2818
   85CHL1   H2B 8745   0.906   2.590   6.845 -0.8435 -0.3856  0.9949
   85CHL1   C20 8746   0.880   2.606   7.831 -0.3660  0.2811  0.0115
   85CHL1   H20 8747   0.961   2.532   7.845 -0.5333  0.1225  0.1443
   85CHL1   C21 8748   0.750   2.523   7.803  0.3650 -0.2791 -0.3973
   85CHL1  H21A 8749   0.724   2.466   7.895  0.8805 -0.1488 -0.1653
   85CHL1  H21B 8750   0.770   2.450   7.722  0.2780 -1.3443  0.5160
   85CHL1  H21C 8751   0.661   2.580   7.768 -0.0060 -0.2374  0.5791
   85CHL1   C22 8752   0.863   2.689   7.966 -0.1364  0.1701  0.3152
   85CHL1  H22A 8753   0.961   2.732   7.995 -0.5994  1.6868 -0.2714
   85CHL1  H22B 8754   0.791   2.770   7.944 -1.3808 -0.9058  0.2656
   85CHL1   C23 8755   0.802   2.617   8.089 -0.0228 -0.3774 -0.5472
   85CHL1  H23A 8756   0.706   2.571   8.055 -1.7775 -0.4962  3.8263
   85CHL1  H23B 8757   0.858   2.528   8.125 -1.7811 -0.9925  0.8517
   85CHL1   C24 8758   0.801   2.717   8.206  0.4504  0.1050  0.3589
   85CHL1  H24A 8759   0.902   2.751   8.239  0.8006 -0.4994 -0.0621
   85CHL1  H24B 8760   0.743   2.802   8.165 -1.3576 -1.4853 -0.4986
   85CHL1   C25 8761   0.737   2.649   8.331 -0.4992  0.1235  0.3057
   85CHL1   H25 8762   0.635   2.616   8.303 -0.5351  1.7519 -1.7160
   85CHL1   C26 8763   0.803   2.518   8.390 -0.3949 -0.6301 -0.1681
   85CHL1  H26A 8764   0.794   2.425   8.330  3.0346 -0.6744 -0.8100
   85CHL1  H26B 8765   0.909   2.553   8.388 -0.7306  0.4949  0.6098
   85CHL1  H26C 8766   0.769   2.495   8.493 -1.6456  3.0210  0.3891
   85CHL1   C27 8767   0.741   2.759   8.438  0.0478 -0.0549 -0.4699
   85CHL1  H27A 8768   0.842   2.773   8.482 -0.1289  3.5869 -0.8977
   85CHL1  H27B 8769   0.719   2.860   8.398  0.8074  0.3716  0.1559
   85CHL1  H27C 8770   0.670   2.741   8.522 -0.0339  0.3291 -0.4541
   86CHL1    C3 8771   2.614   6.507   6.850 -0.0539  0.0985 -0.3432
   86CHL1    H3 8772   2.668   6.412   6.870 -1.5271 -0.4767  1.1127
   86CHL1    O3 8773   2.622   6.529   6.711 -0.2559  0.9538 -0.0015
   86CHL1   H3' 8774   2.549   6.478   6.675 -0.9337  0.5511  1.8097
   86CHL1    C4 8775   2.468   6.500   6.886 -0.7390 -1.1388  0.0586
   86CHL1   H4A 8776   2.419   6.598   6.868  2.3595  0.3014 -1.3930
   86CHL1   H4B 8777   2.419   6.425   6.820 -0.8170  1.1188 -2.5969
   86CHL1    C5 8778   2.459   6.465   7.034 -0.7632  0.4039  0.3942
   86CHL1    C6 8779   2.400   6.355   7.078  0.1436 -0.6414  0.5229
   86CHL1    H6 8780   2.345   6.299   7.000  1.8766 -0.6835 -0.7441
   86CHL1    C7 8781   2.387   6.319   7.222 -0.7811  0.2656  0.3377
   86CHL1   H7A 8782   2.280   6.294   7.238 -0.6548 -1.4976 -1.2343
   86CHL1   H7B 8783   2.451   6.232   7.247 -2.0623  0.0737  3.3492
   86CHL1    C8 8784   2.423   6.430   7.320  0.2205 -0.3052  0.6780
   86CHL1    H8 8785   2.355   6.518   7.325  1.8473  1.0914 -0.4766
   86CHL1   C14 8786   2.460   6.383   7.458 -0.0961  0.2868 -0.4300
   86CHL1   H14 8787   2.549   6.318   7.443  0.7361  1.9742 -3.5948
   86CHL1   C15 8788   2.359   6.283   7.526  0.0309 -0.3483  0.1006
   86CHL1  H15A 8789   2.254   6.294   7.493 -1.2458 -2.3410  3.0743
   86CHL1  H15B 8790   2.385   6.178   7.503  1.5171 -0.3720  1.6659
   86CHL1   C16 8791   2.394   6.291   7.675  0.6317  0.0331  0.4870
   86CHL1  H16A 8792   2.303   6.335   7.722 -0.3785 -2.1723  0.7318
   86CHL1  H16B 8793   2.406   6.195   7.731  2.5225 -0.7413 -1.1377
   86CHL1   C17 8794   2.511   6.381   7.693 -0.0144  0.0818  0.5730
   86CHL1   H17 8795   2.603   6.319   7.684 -0.6765 -1.1327  1.8211
   86CHL1   C13 8796   2.499   6.483   7.573 -0.4904  0.4309  0.2561
   86CHL1   C18 8797   2.385   6.585   7.595 -0.2399 -0.4056  0.1712
   86CHL1  H18A 8798   2.287   6.532   7.600 -0.4689 -0.0013  0.0278
   86CHL1  H18B 8799   2.393   6.635   7.694 -2.0485 -0.6499  0.4883
   86CHL1  H18C 8800   2.389   6.669   7.522  0.2517 -0.3345  0.2784
   86CHL1   C12 8801   2.627   6.548   7.512  0.7781  0.4571 -0.2806
   86CHL1  H12A 8802   2.647   6.636   7.577  0.9864 -0.0156  0.3000
   86CHL1  H12B 8803   2.709   6.477   7.493 -1.0326 -1.1485 -2.7951
   86CHL1   C11 8804   2.597   6.608   7.376  1.2198  0.3954 -0.6169
   86CHL1  H11A 8805   2.519   6.685   7.388  2.5390  1.6819  0.0542
   86CHL1  H11B 8806   2.690   6.660   7.343  2.8364 -0.2469  2.5780
   86CHL1    C9 8807   2.549   6.508   7.273  0.0968  0.4185 -0.0790
   86CHL1    H9 8808   2.618   6.423   7.256 -0.1964  0.3314 -0.8705
   86CHL1   C10 8809   2.535   6.563   7.130  1.0025 -0.4223 -0.3016
   86CHL1   C19 8810   2.451   6.699   7.139  0.3488  0.4472  0.3114
   86CHL1  H19A 8811   2.406   6.716   7.039 -2.4647  1.1236  1.6081
   86CHL1  H19B 8812   2.366   6.692   7.209 -1.4032 -0.1270 -1.7796
   86CHL1  H19C 8813   2.514   6.786   7.167  1.6812 -0.7785  1.3319
   86CHL1    C1 8814   2.677   6.600   7.076 -0.9281  0.4784  0.5125
   86CHL1   H1A 8815   2.720   6.684   7.136 -1.7503  0.4209  1.2022
   86CHL1   H1B 8816   2.732   6.507   7.099 -1.9282 -1.1590 -3.0620
   86CHL1    C2 8817   2.686   6.623   6.924 -0.0470 -0.1752 -0.3640
   86CHL1   H2A 8818   2.794   6.635   6.902  0.2078 -1.4250  0.1213
   86CHL1   H2B 8819   2.641   6.716   6.884 -0.3173 -1.0129 -2.0877
   86CHL1   C20 8820   2.513   6.447   7.832  0.3065  0.3487  0.4562
   86CHL1   H20 8821   2.433   6.524   7.837  1.3294  1.4617  0.1210
   86CHL1   C21 8822   2.645   6.524   7.848 -0.0277  0.5090  0.1935
   86CHL1  H21A 8823   2.649   6.613   7.780 -1.5984  0.2195 -0.3108
   86CHL1  H21B 8824   2.724   6.454   7.813 -0.2402  0.3187  0.0974
   86CHL1  H21C 8825   2.663   6.569   7.948  0.2386 -0.7665  0.7401
   86CHL1   C22 8826   2.496   6.339   7.947  0.2647  0.6163  0.2296
   86CHL1  H22A 8827   2.401   6.289   7.921  2.1442 -1.5575 -3.0806
   86CHL1  H22B 8828   2.570   6.257   7.943 -0.0370  0.3942 -2.0333
   86CHL1   C23 8829   2.492   6.405   8.088 -0.5808  0.4835  0.0531
   86CHL1  H23A 8830   2.598   6.428   8.115  0.9492 -2.7470 -2.4622
   86CHL1  H23B 8831   2.428   6.495   8.096  0.5256  1.1574  1.8611
   86CHL1   C24 8832   2.438   6.299   8.193  0.5700 -0.5318 -0.0469
   86CHL1  H24A 8833   2.334   6.276   8.162  0.1648  1.1951 -0.0556
   86CHL1  H24B 8834   2.505   6.211   8.187  0.7065 -0.6637  2.3569
   86CHL1   C25 8835   2.434   6.349   8.334 -0.7464  0.5833 -0.4196
   86CHL1   H25 8836   2.351   6.420   8.350 -3.2886 -2.0976 -0.8631
   86CHL1   C26 8837   2.379   6.224   8.415 -0.0318  0.8647 -0.2782
   86CHL1  H26A 8838   2.459   6.147   8.417 -2.1165 -1.4847  3.2914
   86CHL1  H26B 8839   2.358   6.255   8.520 -1.1528  1.0441 -0.5440
   86CHL1  H26C 8840   2.286   6.178   8.375  0.4394  0.2952 -0.7323
   86CHL1   C27 8841   2.569   6.390   8.394 -0.8226  0.6730  0.1235
   86CHL1  H27A 8842   2.612   6.488   8.367  1.6427 -0.4164 -0.2106
   86CHL1  H27B 8843   2.566   6.372   8.503  3.6895  0.4941  0.4074
   86CHL1  H27C 8844   2.644   6.311   8.370 -0.8228 -0.0632  2.2913
   87CHL1    C3 8845   5.876   6.116   6.852 -0.3427  0.6967  0.1989
   87CHL1    H3 8846   5.786   6.180   6.864 -1.5182 -0.9271  0.5042
   87CHL1    O3 8847   5.909   6.089   6.716  0.3631 -0.1029 -0.0496
   87CHL1   H3' 8848   5.953   6.004   6.720 -0.9149 -0.8151 -0.6349
   87CHL1    C4 8849   5.992   6.183   6.916 -0.5694 -0.3282 -1.2503
   87CHL1   H4A 8850   6.090   6.133   6.899  1.0474  0.4270  4.1976
   87CHL1   H4B 8851   6.004   6.280   6.864  1.0871 -1.1356 -2.4721
   87CHL1    C5 8852   5.991   6.200   7.069  0.1603 -0.5094 -0.1957
   87CHL1    C6 8853   6.007   6.312   7.135  0.0139  0.1789  0.3837
   87CHL1    H6 8854   6.040   6.400   7.079  2.1107 -1.4018 -1.0243
   87CHL1    C7 8855   6.027   6.322   7.284 -0.3245  0.1279 -0.7264
   87CHL1   H7A 8856   6.108   6.375   7.338  1.1128 -2.4353 -0.1777
   87CHL1   H7B 8857   5.937   6.376   7.320 -2.4179 -2.9977 -0.8050
   87CHL1    C8 8858   6.033   6.188   7.363 -0.0784  0.7944  0.1132
   87CHL1    H8 8859   6.136   6.149   7.350 -0.1510  1.0347 -1.2751
   87CHL1   C14 8860   5.995   6.210   7.509  0.1485  0.0854  0.0483
   87CHL1   H14 8861   5.889   6.243   7.513  0.8328  2.3254  1.2089
   87CHL1   C15 8862   6.076   6.312   7.586  0.1772 -0.0553 -0.0766
   87CHL1  H15A 8863   6.184   6.311   7.559  0.4749 -1.8832  1.0329
   87CHL1  H15B 8864   6.040   6.417   7.578  0.4274  0.1529  1.2057
   87CHL1   C16 8865   6.042   6.275   7.733 -0.0816  0.7011 -0.2805
   87CHL1  H16A 8866   6.131   6.284   7.799 -0.2994  0.0673  0.1195
   87CHL1  H16B 8867   5.963   6.342   7.772  0.2392  0.6419  0.4857
   87CHL1   C17 8868   5.975   6.127   7.730  1.0333  0.7212  0.4210
   87CHL1   H17 8869   5.866   6.144   7.726  0.5186 -0.3895  4.7008
   87CHL1   C13 8870   6.011   6.076   7.589  0.1485 -0.6256 -0.1882
   87CHL1   C18 8871   6.153   6.016   7.594 -0.6059 -0.3621 -0.1895
   87CHL1  H18A 8872   6.145   5.919   7.649  0.6483  0.4529  1.5342
   87CHL1  H18B 8873   6.197   5.998   7.494  0.9013  0.2414  0.3294
   87CHL1  H18C 8874   6.230   6.084   7.637 -0.4711 -0.1165 -0.8056
   87CHL1   C12 8875   5.918   5.964   7.528  0.0038 -0.2630 -1.3776
   87CHL1  H12A 8876   5.930   5.867   7.581 -2.3190  0.2300  0.2271
   87CHL1  H12B 8877   5.811   5.988   7.543 -0.1885 -1.1480 -1.2687
   87CHL1   C11 8878   5.935   5.941   7.380  0.1514 -0.9263 -0.5433
   87CHL1  H11A 8879   6.041   5.909   7.373  1.0838  1.1559  2.0207
   87CHL1  H11B 8880   5.863   5.862   7.349 -1.1418  0.0130 -0.0323
   87CHL1    C9 8881   5.947   6.075   7.298  0.4185  0.4010  0.3776
   87CHL1    H9 8882   5.846   6.119   7.309  0.1935  0.0994 -0.3638
   87CHL1   C10 8883   5.970   6.057   7.139  0.6020 -0.4160  0.2523
   87CHL1   C19 8884   6.091   5.969   7.111 -0.4926 -0.0174 -0.6501
   87CHL1  H19A 8885   6.182   5.994   7.170 -0.5783  0.5946 -0.7646
   87CHL1  H19B 8886   6.055   5.867   7.136 -2.4103 -0.0816 -3.1947
   87CHL1  H19C 8887   6.115   5.981   7.003 -1.9197  1.6396 -0.8292
   87CHL1    C1 8888   5.848   5.992   7.066  0.2917  0.4226 -0.2432
   87CHL1   H1A 8889   5.819   5.897   7.115 -0.8164  0.4437 -0.8404
   87CHL1   H1B 8890   5.761   6.057   7.089  0.5802  0.8748 -0.4001
   87CHL1    C2 8891   5.847   5.985   6.912  0.5966  0.1371 -0.1030
   87CHL1   H2A 8892   5.748   5.948   6.879  0.7960  0.9155 -1.6477
   87CHL1   H2B 8893   5.932   5.917   6.886  0.3205 -0.2846  0.0805
   87CHL1   C20 8894   6.005   6.048   7.857 -0.1603  0.3983  0.4692
   87CHL1   H20 8895   6.113   6.022   7.854 -0.5235 -1.1776  0.2834
   87CHL1   C21 8896   5.943   5.908   7.871  0.5709 -0.6462 -0.5035
   87CHL1  H21A 8897   5.963   5.836   7.789 -1.1676 -1.4292 -0.2906
   87CHL1  H21B 8898   5.833   5.909   7.886  0.6413 -1.7536  0.1815
   87CHL1  H21C 8899   5.984   5.860   7.962 -1.1342 -2.4910 -0.6542
   87CHL1   C22 8900   5.984   6.132   7.982  0.5709  0.0074 -0.4747
   87CHL1  H22A 8901   6.031   6.080   8.069  0.1176 -0.1811 -0.3424
   87CHL1  H22B 8902   6.025   6.235   7.976 -5.1901  2.7726  1.4755
   87CHL1   C23 8903   5.835   6.160   8.007  0.2465 -0.3906 -0.1023
   87CHL1  H23A 8904   5.802   6.250   7.951  1.8189 -0.5590 -1.3933
   87CHL1  H23B 8905   5.769   6.074   7.982 -0.8509  0.2496  0.5151
   87CHL1   C24 8906   5.816   6.178   8.158  0.6468 -0.3393 -0.3064
   87CHL1  H24A 8907   5.864   6.093   8.212  0.2898 -0.7888 -0.6824
   87CHL1  H24B 8908   5.868   6.272   8.185  0.2168  0.0601 -0.8449
   87CHL1   C25 8909   5.662   6.188   8.195 -0.4477 -0.1138 -0.2106
   87CHL1   H25 8910   5.611   6.254   8.122 -1.7403  0.7108  1.3676
   87CHL1   C26 8911   5.597   6.046   8.198  0.1541 -0.1417 -0.6693
   87CHL1  H26A 8912   5.646   5.993   8.282  0.7203 -0.9209 -1.4676
   87CHL1  H26B 8913   5.488   6.055   8.218  0.0003 -0.4287 -1.3359
   87CHL1  H26C 8914   5.625   5.989   8.106  0.9747 -0.5486 -0.1764
   87CHL1   C27 8915   5.648   6.259   8.330  0.2026  0.3920 -0.0149
   87CHL1  H27A 8916   5.682   6.363   8.313  1.0833 -0.1988 -2.1706
   87CHL1  H27B 8917   5.545   6.247   8.369  0.7649 -1.0661  1.1037
   87CHL1  H27C 8918   5.705   6.205   8.409 -1.0733 -1.0495 -0.0259
   88CHL1    C3 8919   6.008   4.528   7.037 -0.1482 -0.5742  0.0303
   88CHL1    H3 8920   5.958   4.429   7.043 -3.4895  0.9296 -1.0989
   88CHL1    O3 8921   5.955   4.586   6.924  0.4151 -0.0822 -0.1671
   88CHL1   H3' 8922   6.009   4.663   6.907 -1.1553  1.0227 -0.3978
   88CHL1    C4 8923   5.977   4.620   7.153 -0.1987 -1.2369  0.3860
   88CHL1   H4A 8924   6.011   4.721   7.121  0.4189 -1.5002  0.2007
   88CHL1   H4B 8925   5.866   4.624   7.149 -0.1546  0.5651 -3.4199
   88CHL1    C5 8926   6.043   4.591   7.285  0.6733  0.4400 -0.5787
   88CHL1    C6 8927   5.972   4.576   7.394 -0.5969  0.0647  0.4841
   88CHL1    H6 8928   5.862   4.583   7.389 -0.5481  0.0868 -2.5573
   88CHL1    C7 8929   6.036   4.547   7.526 -0.7743 -0.5595  0.2496
   88CHL1   H7A 8930   5.993   4.620   7.598  1.3772  0.6076  0.4018
   88CHL1   H7B 8931   6.013   4.443   7.556  1.1426 -0.7383  1.1954
   88CHL1    C8 8932   6.187   4.558   7.531  0.1163 -0.3318  0.1964
   88CHL1    H8 8933   6.215   4.665   7.537  0.6099 -0.5431  2.0640
   88CHL1   C14 8934   6.243   4.493   7.655 -0.0151  0.0249 -0.4911
   88CHL1   H14 8935   6.222   4.384   7.649 -0.4482  0.1340 -1.0154
   88CHL1   C15 8936   6.174   4.531   7.796  0.7553 -0.5850  0.8112
   88CHL1  H15A 8937   6.172   4.642   7.793  0.3921 -0.5544  1.8107
   88CHL1  H15B 8938   6.070   4.490   7.803 -0.2278  1.4037 -0.9838
   88CHL1   C16 8939   6.283   4.488   7.893  0.9547  0.0007 -0.0092
   88CHL1  H16A 8940   6.291   4.562   7.976  1.6295 -1.2786  1.1071
   88CHL1  H16B 8941   6.247   4.393   7.938  2.8786 -0.5789  0.3863
   88CHL1   C17 8942   6.410   4.443   7.820 -0.5617 -0.6927  0.4874
   88CHL1   H17 8943   6.412   4.332   7.818  2.8743 -0.7796  1.6952
   88CHL1   C13 8944   6.395   4.506   7.675 -0.0081  0.3576  0.0942
   88CHL1   C18 8945   6.441   4.654   7.675 -0.0247 -0.4860  0.4365
   88CHL1  H18A 8946   6.396   4.718   7.754  0.1584  0.5915 -0.3090
   88CHL1  H18B 8947   6.552   4.667   7.676 -0.1790  1.1799 -0.1944
   88CHL1  H18C 8948   6.415   4.703   7.579 -0.0387 -0.2577  0.5560
   88CHL1   C12 8949   6.462   4.433   7.550  0.0666  0.3436  1.0054
   88CHL1  H12A 8950   6.573   4.437   7.564  0.3371 -0.3847 -0.7794
   88CHL1  H12B 8951   6.439   4.325   7.544  1.1941 -0.0347  2.7457
   88CHL1   C11 8952   6.410   4.490   7.417  0.1378 -0.0023  0.1050
   88CHL1  H11A 8953   6.451   4.592   7.401 -0.5381 -0.0399 -2.3043
   88CHL1  H11B 8954   6.447   4.431   7.331  0.1420 -0.6381  0.5342
   88CHL1    C9 8955   6.253   4.500   7.411 -0.5588 -0.1313  0.6591
   88CHL1    H9 8956   6.227   4.392   7.414  1.0332 -0.5380  4.0607
   88CHL1   C10 8957   6.195   4.561   7.279 -0.6730 -0.3010 -0.4301
   88CHL1   C19 8958   6.275   4.694   7.262  0.0183  0.2965  0.2926
   88CHL1  H19A 8959   6.237   4.756   7.177  0.7548  1.2536  0.6409
   88CHL1  H19B 8960   6.261   4.763   7.348  1.6001 -0.9412  1.5851
   88CHL1  H19C 8961   6.380   4.672   7.234 -0.4247 -0.7569 -0.6111
   88CHL1    C1 8962   6.225   4.465   7.158  0.5700  0.0224 -0.7625
   88CHL1   H1A 8963   6.334   4.463   7.138  1.2802  2.7556  1.9357
   88CHL1   H1B 8964   6.188   4.363   7.181 -1.6336  1.1689  1.2780
   88CHL1    C2 8965   6.163   4.516   7.027 -0.0633  0.0477 -1.0277
   88CHL1   H2A 8966   6.180   4.442   6.946  0.8244  1.0804 -1.8061
   88CHL1   H2B 8967   6.209   4.615   7.007 -0.2735  0.1900 -0.8137
   88CHL1   C20 8968   6.538   4.480   7.894  0.3712  0.3511 -0.9050
   88CHL1   H20 8969   6.551   4.590   7.880  4.5985 -0.0553 -1.4101
   88CHL1   C21 8970   6.660   4.422   7.825  0.0133 -0.0284 -0.0223
   88CHL1  H21A 8971   6.750   4.439   7.888 -2.1196  2.9475  2.4832
   88CHL1  H21B 8972   6.681   4.467   7.726  0.2825  1.0604  0.5192
   88CHL1  H21C 8973   6.666   4.311   7.814  2.0438  0.0624 -0.1469
   88CHL1   C22 8974   6.544   4.442   8.048 -0.3170 -0.5067 -0.3257
   88CHL1  H22A 8975   6.456   4.487   8.098  1.0093  1.4600  0.3510
   88CHL1  H22B 8976   6.554   4.333   8.068 -0.1820 -0.7876 -1.7669
   88CHL1   C23 8977   6.671   4.495   8.128 -0.2385  0.1151  0.0287
   88CHL1  H23A 8978   6.762   4.432   8.119  0.5522  1.2186  0.1228
   88CHL1  H23B 8979   6.704   4.593   8.086  0.9814 -0.2567  0.0764
   88CHL1   C24 8980   6.637   4.541   8.267 -0.5563 -0.0959 -0.1734
   88CHL1  H24A 8981   6.547   4.606   8.264  0.2870  1.0668 -2.0047
   88CHL1  H24B 8982   6.613   4.455   8.333  2.3180 -1.4089 -0.6904
   88CHL1   C25 8983   6.752   4.629   8.326 -0.6711 -0.0146 -0.4521
   88CHL1   H25 8984   6.783   4.714   8.261  2.3782 -2.4614 -2.5595
   88CHL1   C26 8985   6.727   4.676   8.475  0.8895  0.0271 -0.3102
   88CHL1  H26A 8986   6.698   4.583   8.528  0.2744 -0.0062 -0.6901
   88CHL1  H26B 8987   6.815   4.715   8.531  0.1871  0.5428  0.4751
   88CHL1  H26C 8988   6.646   4.752   8.486  0.1616 -0.5149 -1.6976
   88CHL1   C27 8989   6.880   4.537   8.349  0.1866  0.3261  0.5669
   88CHL1  H27A 8990   6.937   4.524   8.255 -0.7487 -0.8321  0.1387
   88CHL1  H27B 8991   6.950   4.593   8.415 -0.6609 -0.3181  2.0555
   88CHL1  H27C 8992   6.842   4.443   8.394 -0.2447  0.8987  1.4434
   89CHL1    C3 8993   2.019   4.940   7.132 -0.3251 -0.0458  0.4311
   89CHL1    H3 8994   1.923   4.897   7.167 -0.2845 -0.7242 -0.2688
   89CHL1    O3 8995   2.015   4.969   6.990 -0.8076  0.1174  0.2485
   89CHL1   H3' 8996   2.107   4.985   6.970 -0.5711 -0.2352  1.0223
   89CHL1    C4 8997   2.039   5.074   7.198 -0.5767  0.8054  0.7042
   89CHL1   H4A 8998   2.139   5.116   7.171 -1.4749  1.2374 -2.3619
   89CHL1   H4B 8999   1.957   5.140   7.164 -3.2847 -2.5892  0.0785
   89CHL1    C5 9000   2.046   5.054   7.354  0.6457 -0.2538 -0.0748
   89CHL1    C6 9001   1.961   5.114   7.441  0.2280 -0.3228 -0.2363
   89CHL1    H6 9002   1.877   5.176   7.405 -0.4612  1.1103  3.3310
   89CHL1    C7 9003   1.977   5.096   7.592 -0.0274  0.3092  0.2256
   89CHL1   H7A 9004   1.973   5.196   7.640  1.1839  0.6065 -0.2553
   89CHL1   H7B 9005   1.902   5.024   7.631 -0.1693 -0.5090 -1.4433
   89CHL1    C8 9006   2.110   5.034   7.632  0.2273  0.4086  0.2912
   89CHL1    H8 9007   2.188   5.110   7.610  1.9860 -0.8526  1.8880
   89CHL1   C14 9008   2.103   4.997   7.776 -0.3808 -0.0211 -0.1001
   89CHL1   H14 9009   2.026   4.917   7.792 -0.2719 -0.3402 -1.0983
   89CHL1   C15 9010   2.057   5.102   7.885 -0.3340  0.4283  0.2006
   89CHL1  H15A 9011   2.127   5.186   7.868  0.9634 -0.4734  0.9244
   89CHL1  H15B 9012   1.950   5.131   7.895 -0.3515  0.2448  0.5838
   89CHL1   C16 9013   2.107   5.031   8.021 -0.0798  0.0102  0.1562
   89CHL1  H16A 9014   2.157   5.115   8.074 -0.2596 -0.1262  0.5464
   89CHL1  H16B 9015   2.022   4.991   8.080 -0.3437 -0.6511 -0.6565
   89CHL1   C17 9016   2.198   4.910   7.975  0.2516  0.2455 -0.0848
   89CHL1   H17 9017   2.131   4.822   7.966  2.2893 -1.2937 -1.0675
   89CHL1   C13 9018   2.237   4.933   7.830 -0.0496  0.7143 -0.0289
   89CHL1   C18 9019   2.351   5.038   7.824 -0.1580 -0.5396  0.5930
   89CHL1  H18A 9020   2.342   5.112   7.906 -0.4595  0.1437 -0.0441
   89CHL1  H18B 9021   2.444   4.981   7.842  0.7356  0.2367 -1.2632
   89CHL1  H18C 9022   2.355   5.094   7.728 -0.1254 -1.4645  0.0386
   89CHL1   C12 9023   2.270   4.805   7.750 -0.2818  0.2796  0.7012
   89CHL1  H12A 9024   2.367   4.760   7.781 -0.0498  1.0622  1.1637
   89CHL1  H12B 9025   2.185   4.740   7.779 -0.9632  0.3321 -1.0636
   89CHL1   C11 9026   2.277   4.833   7.598 -0.0096  0.0269 -0.1251
   89CHL1  H11A 9027   2.369   4.895   7.589 -0.0104 -0.0794 -0.9905
   89CHL1  H11B 9028   2.289   4.738   7.541 -0.2097 -0.8272  1.2077
   89CHL1    C9 9029   2.151   4.915   7.544 -0.1032 -0.0996  0.0841
   89CHL1    H9 9030   2.063   4.850   7.564  0.1370  0.1398  2.2231
   89CHL1   C10 9031   2.153   4.953   7.396 -0.2170  0.2409  0.4769
   89CHL1   C19 9032   2.295   5.027   7.370  0.1925 -0.2608  0.0752
   89CHL1  H19A 9033   2.287   5.022   7.259 -1.3893 -1.2914  0.1996
   89CHL1  H19B 9034   2.293   5.131   7.410  0.2539 -0.1990 -0.0803
   89CHL1  H19C 9035   2.375   4.960   7.406  1.0365  1.0176  0.6555
   89CHL1    C1 9036   2.146   4.822   7.313 -0.1995  0.3275 -0.0220
   89CHL1   H1A 9037   2.224   4.745   7.325 -0.3429  0.4584  2.2486
   89CHL1   H1B 9038   2.061   4.759   7.345  0.2710 -1.1663 -1.6015
   89CHL1    C2 9039   2.132   4.834   7.161  0.1440  0.1737 -0.9117
   89CHL1   H2A 9040   2.112   4.737   7.109 -0.9703 -0.2851  0.3166
   89CHL1   H2B 9041   2.230   4.871   7.124  1.7549  1.5106  4.0000
   89CHL1   C20 9042   2.311   4.868   8.080  0.6772  0.4176 -0.2421
   89CHL1   H20 9043   2.401   4.931   8.063  0.9174 -0.0506 -0.7322
   89CHL1   C21 9044   2.369   4.724   8.050 -1.0967  0.4713 -0.0640
   89CHL1  H21A 9045   2.437   4.718   7.962  1.2870  0.4531  1.6754
   89CHL1  H21B 9046   2.291   4.645   8.047 -0.5071 -0.1769  1.0173
   89CHL1  H21C 9047   2.430   4.697   8.139  0.3686  2.6522 -0.3123
   89CHL1   C22 9048   2.259   4.868   8.220  0.1409 -0.0637  0.2748
   89CHL1  H22A 9049   2.346   4.844   8.285  0.8059  2.1789  0.2906
   89CHL1  H22B 9050   2.238   4.975   8.245 -2.6543 -0.2811 -0.7752
   89CHL1   C23 9051   2.135   4.779   8.246  0.2542  0.0510 -0.2471
   89CHL1  H23A 9052   2.045   4.816   8.193  0.9701 -0.3808 -1.8291
   89CHL1  H23B 9053   2.147   4.679   8.199  0.1904  0.3736 -0.9660
   89CHL1   C24 9054   2.091   4.781   8.394 -0.5294 -0.0315  0.3318
   89CHL1  H24A 9055   2.080   4.889   8.414  0.2701  0.0842  0.1664
   89CHL1  H24B 9056   1.994   4.729   8.406  0.4269 -2.4846 -1.5573
   89CHL1   C25 9057   2.177   4.711   8.502 -0.0173  0.3674 -0.0534
   89CHL1   H25 9058   2.285   4.728   8.484  0.0537 -1.9396 -2.3433
   89CHL1   C26 9059   2.139   4.763   8.644 -0.2076  0.5055  0.0721
   89CHL1  H26A 9060   2.035   4.755   8.681 -0.6693  1.7828 -0.8571
   89CHL1  H26B 9061   2.199   4.714   8.723  3.0915  4.0134  0.0843
   89CHL1  H26C 9062   2.177   4.868   8.650  3.9276 -0.8715  1.1882
   89CHL1   C27 9063   2.149   4.568   8.499  1.0460  0.2742  0.2875
   89CHL1  H27A 9064   2.052   4.550   8.550  0.4228 -0.0933 -0.9897
   89CHL1  H27B 9065   2.146   4.534   8.393  0.2747  2.3358 -0.4072
   89CHL1  H27C 9066   2.226   4.509   8.553 -1.1499 -2.9535  0.1595
   90CHL1    C3 9067   1.163   5.667   6.824  0.1277 -0.3856  0.0887
   90CHL1    H3 9068   1.225   5.640   6.913 -0.7672 -1.3434  0.4436
   90CHL1    O3 9069   1.147   5.561   6.733 -0.5064  0.0524  0.7118
   90CHL1   H3' 9070   1.071   5.580   6.677 -1.2404 -2.0185  0.8968
   90CHL1    C4 9071   1.018   5.699   6.876  0.6388  0.3144  0.1374
   90CHL1   H4A 9072   0.946   5.725   6.796  2.0880 -1.0158 -1.6917
   90CHL1   H4B 9073   0.976   5.608   6.924 -0.6644  1.3689  1.0595
   90CHL1    C5 9074   1.013   5.809   6.981  0.0791  0.1274  0.3751
   90CHL1    C6 9075   0.957   5.784   7.101 -0.0658  0.5523  0.2955
   90CHL1    H6 9076   0.912   5.685   7.118 -0.9643  0.9142  0.0949
   90CHL1    C7 9077   0.945   5.888   7.206  0.2363 -0.6728  0.1204
   90CHL1   H7A 9078   0.840   5.891   7.244  0.5712  0.8082  1.0091
   90CHL1   H7B 9079   1.009   5.854   7.290  0.0856  0.4347  0.7115
   90CHL1    C8 9080   0.976   6.035   7.160 -0.1373  0.2410  0.6914
   90CHL1    H8 9081   0.885   6.070   7.108  0.6160 -0.1137 -0.9087
   90CHL1   C14 9082   1.010   6.120   7.284  0.6513  0.0756  0.3200
   90CHL1   H14 9083   1.103   6.071   7.320  0.5750 -0.4104 -0.1317
   90CHL1   C15 9084   0.904   6.127   7.391  0.2994  0.6445  0.3870
   90CHL1  H15A 9085   0.804   6.146   7.347  0.6782  1.3826 -0.1676
   90CHL1  H15B 9086   0.899   6.035   7.454  0.5925  0.8747  0.7502
   90CHL1   C16 9087   0.944   6.248   7.477  0.5726 -0.2842  0.2487
   90CHL1  H16A 9088   0.864   6.323   7.494  0.2835  0.4203 -3.4344
   90CHL1  H16B 9089   0.977   6.208   7.575 -0.1098  0.6669  0.8792
   90CHL1   C17 9090   1.061   6.314   7.408 -0.1077 -0.1977  0.3312
   90CHL1   H17 9091   1.155   6.264   7.439  0.2637  1.2793  1.7223
   90CHL1   C13 9092   1.041   6.266   7.259 -0.5136  0.6779 -0.6618
   90CHL1   C18 9093   0.905   6.328   7.211  0.7306 -0.1690  0.3811
   90CHL1  H18A 9094   0.833   6.358   7.290  1.0384 -0.5680  0.8190
   90CHL1  H18B 9095   0.940   6.421   7.161  0.6428  0.7090  1.9201
   90CHL1  H18C 9096   0.852   6.264   7.137 -0.4416  1.2881 -0.0871
   90CHL1   C12 9097   1.158   6.272   7.159  0.2273 -0.1555 -0.0579
   90CHL1  H12A 9098   1.196   6.369   7.120  1.3347 -1.1371 -1.5711
   90CHL1  H12B 9099   1.239   6.238   7.227 -1.0953 -1.5990  0.8403
   90CHL1   C11 9100   1.141   6.185   7.031 -0.6204 -0.0560 -0.2340
   90CHL1  H11A 9101   1.054   6.228   6.976 -0.9264 -1.5814 -0.9902
   90CHL1  H11B 9102   1.229   6.191   6.964  0.1871  1.4164  0.8971
   90CHL1    C9 9103   1.101   6.037   7.066  0.6065  0.5537  0.2332
   90CHL1    H9 9104   1.182   5.995   7.128  0.1815  1.6181  1.5594
   90CHL1   C10 9105   1.066   5.941   6.942 -0.2297  0.3774  0.7524
   90CHL1   C19 9106   0.982   6.012   6.843  0.5651 -0.0512  0.0681
   90CHL1  H19A 9107   0.884   6.024   6.894  1.4689  1.6480  1.5602
   90CHL1  H19B 9108   1.016   6.113   6.810 -0.2299  0.2468  0.1394
   90CHL1  H19C 9109   0.955   5.953   6.754 -0.1057  1.3079 -0.6684
   90CHL1    C1 9110   1.202   5.916   6.860  0.1406 -0.7039 -0.9854
   90CHL1   H1A 9111   1.230   6.005   6.799  0.9763 -1.1954 -1.3321
   90CHL1   H1B 9112   1.275   5.914   6.944 -1.4162  1.8252  0.5591
   90CHL1    C2 9113   1.211   5.799   6.757  0.1025 -0.1330 -0.7532
   90CHL1   H2A 9114   1.318   5.787   6.732  0.5035 -0.9193  1.1240
   90CHL1   H2B 9115   1.153   5.829   6.668 -1.1729  0.3431  0.1994
   90CHL1   C20 9116   1.078   6.468   7.435  0.4094 -0.2516 -0.1947
   90CHL1   H20 9117   0.990   6.516   7.386  0.8441  1.1218  0.3225
   90CHL1   C21 9118   1.201   6.526   7.365  0.4523 -0.8580  0.0288
   90CHL1  H21A 9119   1.292   6.482   7.412  0.5280 -0.7789 -0.0456
   90CHL1  H21B 9120   1.204   6.636   7.371 -0.7966 -0.7762 -0.5871
   90CHL1  H21C 9121   1.202   6.490   7.260  0.1008 -0.2685 -0.1810
   90CHL1   C22 9122   1.070   6.510   7.590 -0.6670 -0.5690  0.5059
   90CHL1  H22A 9123   1.010   6.447   7.658 -1.5044  1.2100  1.5047
   90CHL1  H22B 9124   1.175   6.481   7.614 -0.2048 -1.3266 -2.1106
   90CHL1   C23 9125   1.041   6.659   7.619  0.4532 -0.4352 -0.0545
   90CHL1  H23A 9126   1.112   6.726   7.568  0.3981 -1.7651 -1.9708
   90CHL1  H23B 9127   0.943   6.688   7.575  0.8732  1.8614  0.3750
   90CHL1   C24 9128   1.031   6.683   7.770 -0.6636 -0.5084  0.0179
   90CHL1  H24A 9129   0.960   6.611   7.817 -2.4220  0.6129 -0.8449
   90CHL1  H24B 9130   1.135   6.664   7.805 -0.3430  0.4111 -0.4269
   90CHL1   C25 9131   0.997   6.823   7.821 -0.2211 -0.8436  0.1259
   90CHL1   H25 9132   1.064   6.898   7.774  1.1822 -2.6667 -0.8868
   90CHL1   C26 9133   0.851   6.856   7.801 -0.1420  0.5760  0.3048
   90CHL1  H26A 9134   0.831   6.867   7.692 -0.4081  1.5355  0.4432
   90CHL1  H26B 9135   0.789   6.771   7.838 -0.2534  0.2205 -0.6773
   90CHL1  H26C 9136   0.820   6.953   7.845  1.7036  2.2810 -1.9320
   90CHL1   C27 9137   1.040   6.843   7.969 -0.0916  0.5585 -0.0482
   90CHL1  H27A 9138   1.150   6.849   7.987 -0.0470  3.8522 -0.9482
   90CHL1  H27B 9139   0.991   6.932   8.013 -0.4046  0.0302  0.6915
   90CHL1  H27C 9140   1.003   6.760   8.034 -1.0296  1.7238  0.9321
   91CHL1    C3 9141   5.543   4.382   6.986 -0.0348  0.3475 -0.4826
   91CHL1    H3 9142   5.618   4.302   7.001  0.5177  1.1556  1.3751
   91CHL1    O3 9143   5.540   4.413   6.842  0.1734  0.3086  0.0358
   91CHL1   H3' 9144   5.465   4.471   6.827 -1.5328 -1.8765 -0.3766
   91CHL1    C4 9145   5.405   4.336   7.038 -0.9195 -0.2083  0.2856
   91CHL1   H4A 9146   5.326   4.412   7.016 -0.5795  0.6950  2.0203
   91CHL1   H4B 9147   5.369   4.251   6.976 -0.5606  2.1639 -3.4965
   91CHL1    C5 9148   5.407   4.308   7.187  0.4358 -0.4643  0.4681
   91CHL1    C6 9149   5.387   4.179   7.224 -0.0466  1.1699 -1.1775
   91CHL1    H6 9150   5.352   4.099   7.158 -1.1993 -0.5293  1.3293
   91CHL1    C7 9151   5.415   4.140   7.366 -0.2761  0.2375  0.3465
   91CHL1   H7A 9152   5.331   4.077   7.400 -0.6561  0.5665  0.0205
   91CHL1   H7B 9153   5.514   4.090   7.376 -1.2402 -1.4125  2.4312
   91CHL1    C8 9154   5.413   4.265   7.467  0.5210 -0.3153 -0.0105
   91CHL1    H8 9155   5.308   4.302   7.472  0.5881 -0.2330  3.4761
   91CHL1   C14 9156   5.455   4.214   7.601 -0.5498  0.8423 -0.5176
   91CHL1   H14 9157   5.551   4.159   7.585  0.3559  2.8816 -2.7694
   91CHL1   C15 9158   5.363   4.117   7.675  0.8370 -0.4642 -0.5803
   91CHL1  H15A 9159   5.256   4.147   7.673  0.1471 -2.7295 -2.2121
   91CHL1  H15B 9160   5.369   4.012   7.640  0.7342 -1.3276  1.7634
   91CHL1   C16 9161   5.416   4.125   7.821 -0.6814  0.0025  0.4922
   91CHL1  H16A 9162   5.334   4.133   7.895 -3.8299 -0.6821 -2.6506
   91CHL1  H16B 9163   5.473   4.032   7.842  0.9587  1.1703  1.4901
   91CHL1   C17 9164   5.517   4.247   7.837  0.8049 -1.2351 -0.1756
   91CHL1   H17 9165   5.619   4.210   7.816  0.4939 -1.9446 -0.4706
   91CHL1   C13 9166   5.482   4.324   7.703 -0.1128 -0.5256  1.0148
   91CHL1   C18 9167   5.359   4.408   7.725 -0.6902 -0.5346 -0.4386
   91CHL1  H18A 9168   5.380   4.505   7.775  0.3616 -1.9127  1.9976
   91CHL1  H18B 9169   5.309   4.433   7.629 -1.3038 -4.2899 -1.2508
   91CHL1  H18C 9170   5.286   4.354   7.789 -0.8315 -1.5926 -1.4683
   91CHL1   C12 9171   5.587   4.413   7.651  0.0749  0.2210  0.1089
   91CHL1  H12A 9172   5.604   4.497   7.722 -1.1537  1.2464 -0.7631
   91CHL1  H12B 9173   5.682   4.354   7.649  1.0313  1.6617  1.1305
   91CHL1   C11 9174   5.549   4.478   7.511  0.0497 -0.7011 -0.1908
   91CHL1  H11A 9175   5.470   4.554   7.530  1.0038  0.6984 -1.5337
   91CHL1  H11B 9176   5.636   4.530   7.465 -0.2817 -2.2080 -2.6941
   91CHL1    C9 9177   5.509   4.367   7.411  0.3726  0.1245 -0.2031
   91CHL1    H9 9178   5.605   4.313   7.400  0.4930 -0.2255  2.0104
   91CHL1   C10 9179   5.473   4.413   7.273 -0.3778 -0.2391  0.3941
   91CHL1   C19 9180   5.385   4.545   7.288 -0.0825  0.7228 -0.1057
   91CHL1  H19A 9181   5.335   4.571   7.192 -0.5270 -0.5393 -0.2391
   91CHL1  H19B 9182   5.316   4.547   7.375  0.2452  2.1651  0.1546
   91CHL1  H19C 9183   5.448   4.634   7.309  0.1305  0.5403  0.0374
   91CHL1    C1 9184   5.608   4.457   7.208 -0.2704 -0.1449 -0.7375
   91CHL1   H1A 9185   5.653   4.547   7.255  1.7693 -0.3465 -2.1881
   91CHL1   H1B 9186   5.688   4.380   7.210 -0.1980 -0.1034  1.9797
   91CHL1    C2 9187   5.598   4.505   7.057  0.0859 -0.4752 -0.5596
   91CHL1   H2A 9188   5.698   4.533   7.016  1.5512 -2.3587  1.5065
   91CHL1   H2B 9189   5.517   4.580   7.045 -0.5224 -1.0283 -0.0337
   91CHL1   C20 9190   5.518   4.319   7.973 -0.6776  0.0120 -0.1459
   91CHL1   H20 9191   5.420   4.371   7.971 -1.3033 -1.1376 -2.3378
   91CHL1   C21 9192   5.618   4.439   7.966 -0.0975 -0.0165  0.1263
   91CHL1  H21A 9193   5.656   4.455   8.069 -1.7894 -2.7727  1.2942
   91CHL1  H21B 9194   5.569   4.528   7.920  3.1937  1.2442 -1.2386
   91CHL1  H21C 9195   5.706   4.414   7.903 -0.7508  1.0415 -1.2704
   91CHL1   C22 9196   5.542   4.221   8.087 -0.0032  0.7096 -0.4100
   91CHL1  H22A 9197   5.527   4.268   8.187 -0.8630 -1.4314  0.5268
   91CHL1  H22B 9198   5.460   4.147   8.075  0.8049 -0.3203  0.1584
   91CHL1   C23 9199   5.679   4.153   8.095  0.4426  0.4926 -0.5515
   91CHL1  H23A 9200   5.700   4.109   7.995  0.3234 -0.7380 -0.0484
   91CHL1  H23B 9201   5.746   4.239   8.115 -2.1353  2.1364  1.8387
   91CHL1   C24 9202   5.687   4.047   8.211 -0.3739 -0.5583  0.4301
   91CHL1  H24A 9203   5.639   4.093   8.301  1.9933 -1.4728  2.2847
   91CHL1  H24B 9204   5.633   3.955   8.177 -0.1831 -0.5013 -0.0251
   91CHL1   C25 9205   5.829   4.006   8.246  0.8923 -0.4793  0.0989
   91CHL1   H25 9206   5.885   4.097   8.279  2.3599 -1.3327  0.0414
   91CHL1   C26 9207   5.842   3.923   8.371  0.8056  0.5055 -0.1751
   91CHL1  H26A 9208   5.791   3.974   8.456 -0.0007 -1.5361  0.6333
   91CHL1  H26B 9209   5.776   3.838   8.344  0.9932 -0.2080  1.5249
   91CHL1  H26C 9210   5.948   3.903   8.394  0.6574  0.1253  0.1927
   91CHL1   C27 9211   5.899   3.941   8.129 -0.6597  0.4230  0.0236
   91CHL1  H27A 9212   5.898   4.004   8.038 -0.4865  0.7602  0.2542
   91CHL1  H27B 9213   6.006   3.919   8.151 -0.7861 -1.7887 -1.3288
   91CHL1  H27C 9214   5.861   3.838   8.110  1.9751 -0.3367 -1.6783
   92CHL1    C3 9215   0.658   3.230   6.743 -0.2295 -0.0147  0.3799
   92CHL1    H3 9216   0.547   3.234   6.743 -0.4661 -3.1568  2.4778
   92CHL1    O3 9217   0.703   3.261   6.616  0.1356  0.1410  0.0920
   92CHL1   H3' 9218   0.776   3.198   6.618  0.8892  1.0056  0.7826
   92CHL1    C4 9219   0.710   3.330   6.846 -0.1986 -0.2536  0.8666
   92CHL1   H4A 9220   0.819   3.309   6.857 -0.2443 -1.1232 -0.0948
   92CHL1   H4B 9221   0.702   3.434   6.808 -0.3118 -1.2352 -2.1040
   92CHL1    C5 9222   0.662   3.304   6.988  0.4555 -0.2270  0.0011
   92CHL1    C6 9223   0.582   3.394   7.054  0.3933  0.0882  0.1608
   92CHL1    H6 9224   0.556   3.490   7.007 -2.2075  0.4362  2.0998
   92CHL1    C7 9225   0.546   3.372   7.196  0.3425  0.4139 -0.3252
   92CHL1   H7A 9226   0.581   3.453   7.264  2.2633 -2.9986  3.1135
   92CHL1   H7B 9227   0.436   3.360   7.199  0.4602 -3.0143 -3.1929
   92CHL1    C8 9228   0.618   3.251   7.255  0.4588 -1.0118 -0.0390
   92CHL1    H8 9229   0.722   3.284   7.275 -0.3021  1.0603  0.7137
   92CHL1   C14 9230   0.562   3.220   7.391  0.1334 -0.1237  0.5975
   92CHL1   H14 9231   0.456   3.194   7.368 -0.0525 -0.7575  2.0571
   92CHL1   C15 9232   0.555   3.326   7.496  0.4616 -0.1963  0.5465
   92CHL1  H15A 9233   0.648   3.387   7.497  2.2515 -2.7251 -0.9370
   92CHL1  H15B 9234   0.466   3.391   7.482  0.9106  0.0030 -1.7456
   92CHL1   C16 9235   0.534   3.253   7.629 -0.4224 -0.1318 -0.0194
   92CHL1  H16A 9236   0.621   3.263   7.697 -0.8717 -0.2595  0.5928
   92CHL1  H16B 9237   0.437   3.285   7.675  0.5649 -0.2596  2.3238
   92CHL1   C17 9238   0.531   3.104   7.594 -0.2248 -0.5039 -0.0996
   92CHL1   H17 9239   0.429   3.071   7.566 -0.6547 -0.2391  1.1074
   92CHL1   C13 9240   0.608   3.092   7.462  0.5389  0.5395 -0.0196
   92CHL1   C18 9241   0.756   3.101   7.504 -0.1340  0.2889 -0.0108
   92CHL1  H18A 9242   0.795   3.195   7.548  2.0681  0.5388 -2.2624
   92CHL1  H18B 9243   0.770   3.009   7.565  0.3264  1.1914  1.2771
   92CHL1  H18C 9244   0.818   3.091   7.412  0.1643  1.2227  0.0780
   92CHL1   C12 9245   0.564   2.973   7.368 -0.7722 -0.7502 -0.3915
   92CHL1  H12A 9246   0.600   2.872   7.398 -2.9204 -1.3702  0.2354
   92CHL1  H12B 9247   0.456   2.959   7.350 -0.6721 -0.1571 -1.5168
   92CHL1   C11 9248   0.634   2.995   7.227 -0.3192 -0.9623 -0.4053
   92CHL1  H11A 9249   0.742   2.997   7.252 -0.1632 -2.5892 -0.8319
   92CHL1  H11B 9250   0.598   2.908   7.168  0.1012 -0.8688 -0.8065
   92CHL1    C9 9251   0.612   3.136   7.161 -0.2411  0.3171  0.3048
   92CHL1    H9 9252   0.503   3.136   7.135 -0.1143  0.5371 -0.2377
   92CHL1   C10 9253   0.694   3.160   7.033  0.3394 -0.1235 -0.4929
   92CHL1   C19 9254   0.848   3.139   7.063 -0.3521 -0.2500 -0.4974
   92CHL1  H19A 9255   0.860   3.030   7.076  0.1508 -0.4896 -2.6981
   92CHL1  H19B 9256   0.908   3.161   6.973 -1.1981 -2.6966 -1.7487
   92CHL1  H19C 9257   0.884   3.204   7.146  0.6090  0.8414 -1.7304
   92CHL1    C1 9258   0.657   3.056   6.926 -0.1757  0.2814 -0.2676
   92CHL1   H1A 9259   0.696   2.956   6.954  0.4836 -0.5500 -3.6420
   92CHL1   H1B 9260   0.547   3.046   6.911 -0.4765  3.6832 -1.2082
   92CHL1    C2 9261   0.700   3.087   6.783 -0.8251  0.2102  0.6088
   92CHL1   H2A 9262   0.647   3.014   6.718 -0.5338  0.4940  0.0428
   92CHL1   H2B 9263   0.811   3.080   6.778 -0.8293  0.8099 -1.5188
   92CHL1   C20 9264   0.561   3.011   7.715 -0.1410 -0.1069  0.1925
   92CHL1   H20 9265   0.660   3.046   7.753 -0.0523 -0.4765  0.3003
   92CHL1   C21 9266   0.558   2.862   7.681  0.3743 -0.7742 -0.5814
   92CHL1  H21A 9267   0.457   2.845   7.639 -0.3631  1.1865  0.2942
   92CHL1  H21B 9268   0.594   2.798   7.765 -0.1329  1.3040  1.3002
   92CHL1  H21C 9269   0.631   2.835   7.600  1.2544 -0.0595 -0.0475
   92CHL1   C22 9270   0.471   3.038   7.832  0.9941 -0.3365 -0.3494
   92CHL1  H22A 9271   0.477   3.148   7.844  1.1974 -0.5018  1.2232
   92CHL1  H22B 9272   0.370   3.006   7.800  0.3022 -1.3463  2.5872
   92CHL1   C23 9273   0.507   2.964   7.957  0.2833 -0.3499  1.1029
   92CHL1  H23A 9274   0.475   2.858   7.947 -1.1948  0.1667  0.0523
   92CHL1  H23B 9275   0.614   2.981   7.982  0.5580 -0.2901 -0.0559
   92CHL1   C24 9276   0.419   3.017   8.084 -0.5246 -0.0062  0.4475
   92CHL1  H24A 9277   0.433   3.127   8.087 -0.3011 -0.0494  1.0934
   92CHL1  H24B 9278   0.310   3.020   8.061 -0.2505 -0.7648 -1.0986
   92CHL1   C25 9279   0.459   2.952   8.219  0.2999  0.5904 -0.6017
   92CHL1   H25 9280   0.568   2.932   8.221  0.2861  0.4725  1.6386
   92CHL1   C26 9281   0.416   3.034   8.336  0.5013  0.7416 -0.0699
   92CHL1  H26A 9282   0.445   2.987   8.433 -0.4936 -1.6631 -0.8634
   92CHL1  H26B 9283   0.463   3.135   8.336 -0.6937  1.3199  0.0658
   92CHL1  H26C 9284   0.307   3.053   8.327  0.5596  1.1505  0.0349
   92CHL1   C27 9285   0.385   2.822   8.229 -0.2863  0.2472  0.1915
   92CHL1  H27A 9286   0.278   2.849   8.225 -0.0339  1.1808 -2.9345
   92CHL1  H27B 9287   0.402   2.754   8.143 -0.9692 -1.3346  1.2492
   92CHL1  H27C 9288   0.421   2.767   8.319 -0.0080 -0.4845 -0.3562
   93CHL1    C3 9289   5.262   3.202   6.913 -0.1027  0.7235 -0.7446
   93CHL1    H3 9290   5.324   3.112   6.929  2.6906  2.2055 -2.4403
   93CHL1    O3 9291   5.260   3.213   6.772  0.5211  0.1432 -0.0398
   93CHL1   H3' 9292   5.197   3.284   6.760 -1.6913 -1.3873  1.5459
   93CHL1    C4 9293   5.118   3.201   6.962 -0.7142 -0.1071 -0.1674
   93CHL1   H4A 9294   5.081   3.305   6.943  0.5504  0.3643 -0.1510
   93CHL1   H4B 9295   5.059   3.127   6.905 -0.5833 -2.6088  2.7202
   93CHL1    C5 9296   5.123   3.174   7.110  0.0469  0.0508  0.3585
   93CHL1    C6 9297   5.068   3.062   7.167 -0.3873 -0.7957 -0.9429
   93CHL1    H6 9298   5.008   2.992   7.107 -2.4970 -2.5338  2.8275
   93CHL1    C7 9299   5.067   3.030   7.310  0.3372  0.3909 -0.9482
   93CHL1   H7A 9300   4.965   2.992   7.333  0.7774  0.6939  1.8566
   93CHL1   H7B 9301   5.142   2.953   7.337 -0.9469 -1.0313 -1.2854
   93CHL1    C8 9302   5.083   3.159   7.392  0.2347  0.9267 -0.2955
   93CHL1    H8 9303   4.993   3.222   7.384  0.2807  1.1451  0.7156
   93CHL1   C14 9304   5.086   3.127   7.543 -0.4669  0.4914 -1.1811
   93CHL1   H14 9305   5.157   3.045   7.568 -1.5592 -0.0306  0.4312
   93CHL1   C15 9306   4.967   3.060   7.602 -0.3283 -0.0719  0.6832
   93CHL1  H15A 9307   4.882   3.123   7.569  0.0154  0.6614  1.1804
   93CHL1  H15B 9308   4.949   2.959   7.559  1.2943 -0.0359 -0.1485
   93CHL1   C16 9309   4.978   3.073   7.754  0.3842 -0.6593  0.2754
   93CHL1  H16A 9310   4.885   3.120   7.792  0.6015 -0.8955  1.1140
   93CHL1  H16B 9311   5.001   2.978   7.806  2.3559 -0.8341 -0.8289
   93CHL1   C17 9312   5.105   3.166   7.774 -0.7231 -0.0120  0.7851
   93CHL1   H17 9313   5.200   3.109   7.779  0.1116  1.3191  0.5417
   93CHL1   C13 9314   5.114   3.241   7.636  0.4095 -0.2831  0.1284
   93CHL1   C18 9315   5.003   3.347   7.635  0.4251 -0.2183  0.1062
   93CHL1  H18A 9316   4.907   3.303   7.670 -0.6154 -0.6411 -2.9262
   93CHL1  H18B 9317   5.036   3.429   7.702 -1.2271  1.1283 -0.6441
   93CHL1  H18C 9318   4.977   3.382   7.533  0.1714 -1.0647 -0.1312
   93CHL1   C12 9319   5.252   3.298   7.603  0.2197  0.3662  0.0758
   93CHL1  H12A 9320   5.294   3.380   7.665 -0.2775  0.7050 -0.0248
   93CHL1  H12B 9321   5.323   3.213   7.608 -0.9334 -0.6127  0.4830
   93CHL1   C11 9322   5.255   3.338   7.451 -0.2201  0.1837  0.2211
   93CHL1  H11A 9323   5.192   3.429   7.441 -0.9053 -0.5157 -3.1923
   93CHL1  H11B 9324   5.360   3.361   7.424  0.1251 -1.4006  0.1119
   93CHL1    C9 9325   5.201   3.236   7.346 -0.2804  0.0181 -0.0700
   93CHL1    H9 9326   5.285   3.163   7.345 -0.0011  0.3112  1.1371
   93CHL1   C10 9327   5.193   3.285   7.196  0.2488  0.5239  0.2105
   93CHL1   C19 9328   5.104   3.415   7.202 -0.1335 -0.7129  0.2743
   93CHL1  H19A 9329   5.012   3.403   7.264 -0.2765 -0.0622  0.1961
   93CHL1  H19B 9330   5.163   3.499   7.245  0.1572 -0.5316 -0.4680
   93CHL1  H19C 9331   5.071   3.449   7.102 -0.4264  0.8657  0.8818
   93CHL1    C1 9332   5.335   3.299   7.135 -1.4538  0.1200  0.7871
   93CHL1   H1A 9333   5.389   3.390   7.168 -1.4250  0.5764 -0.4737
   93CHL1   H1B 9334   5.396   3.209   7.157 -1.5509 -0.5415 -1.4084
   93CHL1    C2 9335   5.344   3.320   6.979  0.7527  0.7460  0.0831
   93CHL1   H2A 9336   5.448   3.319   6.940  0.0878 -0.8276 -1.8123
   93CHL1   H2B 9337   5.304   3.419   6.947 -4.0622 -1.3271 -1.2082
   93CHL1   C20 9338   5.095   3.247   7.901  0.4551 -0.4108  0.1397
   93CHL1   H20 9339   5.011   3.314   7.874 -0.3029 -1.9258 -1.4078
   93CHL1   C21 9340   5.216   3.339   7.922 -0.3342 -0.1944  0.3443
   93CHL1  H21A 9341   5.221   3.365   8.030 -0.8902 -1.3621  0.6728
   93CHL1  H21B 9342   5.206   3.429   7.859  1.1796  0.0293  0.3796
   93CHL1  H21C 9343   5.309   3.287   7.888 -0.5363  0.4254 -1.2172
   93CHL1   C22 9344   5.054   3.158   8.020  0.6242 -0.4284 -1.0459
   93CHL1  H22A 9345   5.038   3.218   8.112  1.2417 -2.2197  0.3011
   93CHL1  H22B 9346   4.965   3.093   8.007 -1.6748  2.0948  0.9590
   93CHL1   C23 9347   5.165   3.058   8.068  0.6301  0.2476 -0.2774
   93CHL1  H23A 9348   5.174   2.983   7.986 -0.0153 -1.6842  1.3220
   93CHL1  H23B 9349   5.261   3.110   8.086  0.3704  0.7234 -0.2391
   93CHL1   C24 9350   5.128   2.987   8.197  0.2534 -0.6813 -0.0386
   93CHL1  H24A 9351   5.093   3.060   8.273  1.5475 -0.5246  0.4416
   93CHL1  H24B 9352   5.040   2.920   8.193  0.4054 -0.8244 -1.1640
   93CHL1   C25 9353   5.243   2.908   8.264  0.0254 -0.6384 -0.3449
   93CHL1   H25 9354   5.327   2.980   8.245 -2.0839  1.9856 -0.3104
   93CHL1   C26 9355   5.219   2.891   8.413 -0.1586  0.5185  0.7227
   93CHL1  H26A 9356   5.308   2.836   8.452 -1.0601 -0.4842  1.4268
   93CHL1  H26B 9357   5.210   2.984   8.474 -0.4601 -0.3575  2.0636
   93CHL1  H26C 9358   5.128   2.829   8.430  0.3061 -0.5576 -0.6007
   93CHL1   C27 9359   5.259   2.775   8.195 -0.3148  0.2401  0.5864
   93CHL1  H27A 9360   5.174   2.706   8.212 -0.7023 -0.1046 -2.2549
   93CHL1  H27B 9361   5.275   2.801   8.088 -2.9368  3.5894  0.8345
   93CHL1  H27C 9362   5.348   2.734   8.248 -1.3509 -2.1365  0.6037
   94CHL1    C3 9363   1.888   5.530   6.841 -0.0756 -0.2634  0.3889
   94CHL1    H3 9364   1.819   5.447   6.813 -1.2289  0.8336 -0.1276
   94CHL1    O3 9365   1.978   5.561   6.730  0.1290 -0.6485  0.1098
   94CHL1   H3' 9366   2.056   5.601   6.770  0.0290  0.0225 -0.3494
   94CHL1    C4 9367   1.795   5.655   6.859 -0.5644  1.2810  0.5320
   94CHL1   H4A 9368   1.860   5.745   6.866  4.2449 -1.6433 -1.4697
   94CHL1   H4B 9369   1.737   5.656   6.764  0.6565  1.5320 -0.2362
   94CHL1    C5 9370   1.704   5.644   6.981  0.2651 -0.2607  0.1271
   94CHL1    C6 9371   1.567   5.644   6.976 -1.0926 -0.4269  0.5750
   94CHL1    H6 9372   1.528   5.660   6.874  0.3877 -1.2522 -0.1632
   94CHL1    C7 9373   1.479   5.639   7.091  0.2552 -0.2097  0.2517
   94CHL1   H7A 9374   1.389   5.705   7.083 -0.4853 -1.2172 -0.0073
   94CHL1   H7B 9375   1.433   5.538   7.103 -2.2555  0.7142 -0.7759
   94CHL1    C8 9376   1.545   5.668   7.222 -0.8864 -0.2768  0.0668
   94CHL1    H8 9377   1.578   5.774   7.225  0.5042 -0.5302 -2.8905
   94CHL1   C14 9378   1.452   5.642   7.339 -0.5597  0.1286 -0.7614
   94CHL1   H14 9379   1.437   5.532   7.342  0.4795 -0.1031  3.7052
   94CHL1   C15 9380   1.317   5.703   7.341  0.5325  0.2424 -0.7568
   94CHL1  H15A 9381   1.318   5.807   7.302  1.9828  0.8704  0.8171
   94CHL1  H15B 9382   1.242   5.638   7.291 -0.1413  0.0673  0.4540
   94CHL1   C16 9383   1.287   5.707   7.492 -0.1536 -0.1116 -0.2211
   94CHL1  H16A 9384   1.263   5.808   7.530  2.7035  0.5866 -0.0885
   94CHL1  H16B 9385   1.205   5.637   7.518  1.8417 -1.5377  2.7607
   94CHL1   C17 9386   1.404   5.643   7.568  0.0594  0.4906 -0.1355
   94CHL1   H17 9387   1.397   5.533   7.556  1.5043  0.3190  0.3670
   94CHL1   C13 9388   1.522   5.666   7.474  0.2794 -0.1191  0.3799
   94CHL1   C18 9389   1.567   5.812   7.487 -0.7102 -0.2445  0.2282
   94CHL1  H18A 9390   1.487   5.887   7.469  0.4452  1.5218  2.1112
   94CHL1  H18B 9391   1.606   5.830   7.589  2.0412  1.4859 -0.9892
   94CHL1  H18C 9392   1.653   5.841   7.423 -1.8974  2.1972 -0.3459
   94CHL1   C12 9393   1.644   5.571   7.486  0.7283  0.4011  0.0752
   94CHL1  H12A 9394   1.694   5.597   7.581  1.6508 -0.2493 -0.2188
   94CHL1  H12B 9395   1.608   5.466   7.485 -0.0036  0.6204 -1.7761
   94CHL1   C11 9396   1.745   5.592   7.368  0.7646 -0.1114  0.0159
   94CHL1  H11A 9397   1.789   5.690   7.394 -0.7215  0.0192  2.3110
   94CHL1  H11B 9398   1.818   5.508   7.368  0.6927 -0.1744  0.7493
   94CHL1    C9 9399   1.673   5.582   7.236  0.0411  0.7206  0.3450
   94CHL1    H9 9400   1.633   5.478   7.229  1.9384 -0.1569  1.7690
   94CHL1   C10 9401   1.773   5.620   7.121 -0.7413  0.0260  0.6678
   94CHL1   C19 9402   1.855   5.746   7.160  0.4218  0.7208  0.0023
   94CHL1  H19A 9403   1.931   5.729   7.239 -1.2621  1.4091  1.8580
   94CHL1  H19B 9404   1.911   5.799   7.080  1.5955 -0.3370  0.1121
   94CHL1  H19C 9405   1.793   5.823   7.212  1.8543  1.7911  0.1892
   94CHL1    C1 9406   1.880   5.506   7.098  0.2973 -0.6513 -0.2948
   94CHL1   H1A 9407   1.944   5.503   7.189  1.6955 -0.0939 -1.2320
   94CHL1   H1B 9408   1.836   5.405   7.081 -0.0627 -0.9023  1.7793
   94CHL1    C2 9409   1.972   5.519   6.974 -0.3525 -0.2500 -0.1457
   94CHL1   H2A 9410   2.042   5.433   6.978 -0.1432 -0.0425  2.0835
   94CHL1   H2B 9411   2.041   5.606   6.976 -0.1760 -0.3961  0.4624
   94CHL1   C20 9412   1.417   5.665   7.720 -1.2154  0.0394  0.1286
   94CHL1   H20 9413   1.518   5.632   7.752 -1.3436  0.0621  0.5498
   94CHL1   C21 9414   1.328   5.556   7.790  0.7786 -0.1398 -0.0686
   94CHL1  H21A 9415   1.383   5.460   7.803 -1.2041 -1.5172 -1.3835
   94CHL1  H21B 9416   1.232   5.531   7.740  0.3250 -0.5544  0.9965
   94CHL1  H21C 9417   1.296   5.597   7.888  1.4920  0.0894  0.0771
   94CHL1   C22 9418   1.379   5.809   7.765  0.2916  0.3479  0.2661
   94CHL1  H22A 9419   1.408   5.891   7.697  0.7500  0.2228  0.3027
   94CHL1  H22B 9420   1.269   5.808   7.775  0.3192 -1.2279  0.7506
   94CHL1   C23 9421   1.430   5.846   7.906  0.5224 -0.5554  0.3664
   94CHL1  H23A 9422   1.378   5.940   7.936  0.6014  0.2426 -1.8405
   94CHL1  H23B 9423   1.410   5.772   7.987  1.7067 -0.0856  1.1141
   94CHL1   C24 9424   1.577   5.873   7.904  0.8939  0.0970  0.1309
   94CHL1  H24A 9425   1.616   5.769   7.897 -1.7449 -0.8483 -2.7644
   94CHL1  H24B 9426   1.614   5.941   7.824  0.4936  1.8838  1.4143
   94CHL1   C25 9427   1.623   5.940   8.036  0.0356 -0.2268 -0.1323
   94CHL1   H25 9428   1.600   6.049   8.038 -1.2710 -0.4951  1.2490
   94CHL1   C26 9429   1.561   5.881   8.170  0.3589  0.3116  0.7218
   94CHL1  H26A 9430   1.457   5.919   8.166  0.9204  1.7631 -1.4780
   94CHL1  H26B 9431   1.566   5.770   8.177 -1.2086  0.2672  1.6613
   94CHL1  H26C 9432   1.616   5.932   8.252  0.9051 -0.7154  1.0131
   94CHL1   C27 9433   1.777   5.941   8.045 -0.1409  0.0853  0.2036
   94CHL1  H27A 9434   1.825   5.841   8.047  3.0354  1.4165  3.6861
   94CHL1  H27B 9435   1.815   6.006   7.962 -1.0269  1.0723  0.5469
   94CHL1  H27C 9436   1.810   5.987   8.141  1.5688  0.2922 -0.4427
   95CHL1    C3 9437   4.734   6.131   6.689  0.0095  0.5588  0.2365
   95CHL1    H3 9438   4.827   6.187   6.664 -0.5025  0.7904 -1.2591
   95CHL1    O3 9439   4.667   6.079   6.570 -0.1059 -0.2772  0.7880
   95CHL1   H3' 9440   4.713   6.002   6.534 -1.7940 -1.1615  0.4229
   95CHL1    C4 9441   4.772   6.007   6.775  0.6172 -0.2551  0.5727
   95CHL1   H4A 9442   4.677   5.953   6.796  0.9994 -1.6340 -1.0403
   95CHL1   H4B 9443   4.831   5.936   6.714  1.2677 -0.5977  1.5677
   95CHL1    C5 9444   4.841   6.062   6.902  1.0414 -0.1379 -0.2925
   95CHL1    C6 9445   4.967   6.023   6.934  0.5806  0.6323  0.0621
   95CHL1    H6 9446   5.016   5.951   6.867 -0.6568 -1.3952  1.1946
   95CHL1    C7 9447   5.029   6.066   7.061 -0.3222  0.7397 -0.5156
   95CHL1   H7A 9448   5.089   5.989   7.114  1.8904  1.8816 -1.2098
   95CHL1   H7B 9449   5.106   6.143   7.038 -0.1952  0.6942 -0.2416
   95CHL1    C8 9450   4.932   6.125   7.167 -0.5566  0.1021  0.8763
   95CHL1    H8 9451   4.871   6.036   7.196 -1.7550  0.1984 -1.1749
   95CHL1   C14 9452   5.004   6.185   7.281  0.1379 -0.7162 -0.1930
   95CHL1   H14 9453   5.061   6.268   7.233  1.0416 -1.5972 -0.6694
   95CHL1   C15 9454   5.105   6.111   7.364 -0.0698  0.5089  0.3058
   95CHL1  H15A 9455   5.071   6.007   7.382  1.1414  0.0277 -0.1102
   95CHL1  H15B 9456   5.199   6.085   7.312  0.3585 -0.8388  1.6904
   95CHL1   C16 9457   5.129   6.189   7.487 -0.2502  0.1194  0.2675
   95CHL1  H16A 9458   5.115   6.116   7.569 -3.4091  0.5465  0.2481
   95CHL1  H16B 9459   5.229   6.236   7.491 -0.7419  1.0762  2.5526
   95CHL1   C17 9460   5.018   6.299   7.486 -0.6832  0.2319  0.3454
   95CHL1   H17 9461   5.068   6.388   7.441  1.3404 -0.8260  0.3828
   95CHL1   C13 9462   4.913   6.251   7.382  0.7362 -0.3159 -0.0827
   95CHL1   C18 9463   4.826   6.134   7.443 -0.5010 -0.1565 -0.1569
   95CHL1  H18A 9464   4.772   6.070   7.370 -1.3256  0.2350  0.1078
   95CHL1  H18B 9465   4.889   6.064   7.501 -2.3510 -1.0081  0.8962
   95CHL1  H18C 9466   4.742   6.185   7.494 -0.1032  0.1399  0.2127
   95CHL1   C12 9467   4.828   6.361   7.314  0.3028 -0.7710  0.1925
   95CHL1  H12A 9468   4.757   6.415   7.380 -0.6786  0.3304 -1.6781
   95CHL1  H12B 9469   4.888   6.444   7.270 -2.0967  0.0255 -1.7683
   95CHL1   C11 9470   4.750   6.302   7.199  0.5534  0.5228 -0.0100
   95CHL1  H11A 9471   4.667   6.239   7.237 -0.0065  0.7559 -0.8104
   95CHL1  H11B 9472   4.688   6.390   7.172 -0.8302 -0.0046  1.3178
   95CHL1    C9 9473   4.834   6.225   7.100 -0.1977  0.7476 -0.4734
   95CHL1    H9 9474   4.906   6.297   7.054  0.2585  0.9272  0.4973
   95CHL1   C10 9475   4.755   6.163   6.982  0.1755 -0.5050 -0.0524
   95CHL1   C19 9476   4.629   6.080   7.046 -0.3191 -0.6177 -0.5153
   95CHL1  H19A 9477   4.670   6.010   7.121  1.5810 -0.0492 -0.9758
   95CHL1  H19B 9478   4.549   6.149   7.082  0.7786  1.2119 -1.4599
   95CHL1  H19C 9479   4.572   6.012   6.979 -2.7691  0.5699  0.2375
   95CHL1    C1 9480   4.702   6.281   6.885  0.3385 -0.4077  0.3663
   95CHL1   H1A 9481   4.623   6.338   6.939 -0.7290 -2.6790  1.3694
   95CHL1   H1B 9482   4.786   6.353   6.874 -0.3174  0.5700  1.4813
   95CHL1    C2 9483   4.636   6.224   6.757  0.1005 -0.6621  0.1862
   95CHL1   H2A 9484   4.614   6.299   6.678 -0.5539 -2.0932 -1.0499
   95CHL1   H2B 9485   4.546   6.168   6.790  0.4129 -1.8290 -0.8589
   95CHL1   C20 9486   4.960   6.353   7.625  0.5669  1.4789  0.1146
   95CHL1   H20 9487   4.859   6.389   7.596 -0.7600 -2.6467 -1.0733
   95CHL1   C21 9488   5.055   6.465   7.667  0.2391  0.0493 -0.0568
   95CHL1  H21A 9489   5.050   6.543   7.588  0.4609 -2.1093 -2.3176
   95CHL1  H21B 9490   5.159   6.425   7.670  0.1461 -0.2466 -0.6190
   95CHL1  H21C 9491   5.030   6.502   7.768 -0.7591 -2.1637  0.5462
   95CHL1   C22 9492   4.932   6.248   7.736  0.1415 -0.6511 -1.0461
   95CHL1  H22A 9493   4.898   6.157   7.682  1.3275 -0.6279 -1.8637
   95CHL1  H22B 9494   5.027   6.224   7.788 -0.3547 -0.9158 -0.2439
   95CHL1   C23 9495   4.828   6.297   7.844  0.2656 -0.8839  0.2748
   95CHL1  H23A 9496   4.862   6.394   7.886 -2.6589  0.6185 -0.5574
   95CHL1  H23B 9497   4.735   6.324   7.789 -0.1353 -0.3320  1.2004
   95CHL1   C24 9498   4.794   6.200   7.957 -0.1091 -0.6388 -0.0788
   95CHL1  H24A 9499   4.775   6.100   7.913  0.6616 -0.7874 -0.1032
   95CHL1  H24B 9500   4.875   6.202   8.033 -1.3630  0.6620  1.2790
   95CHL1   C25 9501   4.667   6.242   8.032 -0.3991  0.1027  0.0568
   95CHL1   H25 9502   4.593   6.282   7.959  1.4099  2.8093 -0.4401
   95CHL1   C26 9503   4.600   6.120   8.098 -0.1683 -0.3391 -0.2772
   95CHL1  H26A 9504   4.600   6.042   8.019 -1.7504  1.0296 -1.7109
   95CHL1  H26B 9505   4.656   6.071   8.180 -2.2936 -3.0790 -0.3203
   95CHL1  H26C 9506   4.497   6.143   8.135  0.3432 -1.9964  2.4472
   95CHL1   C27 9507   4.700   6.349   8.133  0.4253  0.1589  0.0916
   95CHL1  H27A 9508   4.735   6.446   8.090 -0.3039 -0.3024 -1.6156
   95CHL1  H27B 9509   4.607   6.375   8.188 -0.3945 -1.4699 -0.4740
   95CHL1  H27C 9510   4.778   6.311   8.202  1.4991  1.4365 -0.3683
   96CHL1    C3 9511   3.743   3.536   6.844 -0.1060 -0.3062  0.0654
   96CHL1    H3 9512   3.746   3.429   6.875 -2.1724 -0.3034  0.3979
   96CHL1    O3 9513   3.800   3.547   6.716 -0.9506  0.1585  0.0559
   96CHL1   H3' 9514   3.890   3.581   6.722 -0.8507  0.6510 -2.7329
   96CHL1    C4 9515   3.594   3.590   6.848  0.3593 -0.3186 -0.1682
   96CHL1   H4A 9516   3.616   3.692   6.809 -2.2052  0.0268 -0.8835
   96CHL1   H4B 9517   3.528   3.533   6.781 -0.0110 -1.1192  0.8521
   96CHL1    C5 9518   3.533   3.609   6.981  0.2017 -0.1271  0.1200
   96CHL1    C6 9519   3.405   3.568   7.012  0.1003  0.2468  1.1875
   96CHL1    H6 9520   3.344   3.528   6.930  1.3408 -1.6637  1.1318
   96CHL1    C7 9521   3.332   3.595   7.142  0.6338 -0.1593 -0.5770
   96CHL1   H7A 9522   3.239   3.654   7.129  0.0100 -0.2227  2.6720
   96CHL1   H7B 9523   3.310   3.501   7.196  1.6008 -0.1860 -0.2003
   96CHL1    C8 9524   3.418   3.678   7.250  0.1059 -0.4133  0.4418
   96CHL1    H8 9525   3.389   3.780   7.220 -0.8777 -1.2928 -1.7995
   96CHL1   C14 9526   3.384   3.639   7.392 -0.5800  1.0488  0.3768
   96CHL1   H14 9527   3.420   3.534   7.407  0.4528  1.5319  1.4559
   96CHL1   C15 9528   3.234   3.636   7.424  0.6687  0.3559 -0.1345
   96CHL1  H15A 9529   3.184   3.727   7.384 -0.6707  0.0912  0.8732
   96CHL1  H15B 9530   3.174   3.562   7.368 -0.9329  0.6378  1.1290
   96CHL1   C16 9531   3.233   3.634   7.572 -0.1994 -0.1024  0.3627
   96CHL1  H16A 9532   3.167   3.717   7.607  0.0560 -0.2428  1.2022
   96CHL1  H16B 9533   3.182   3.545   7.616 -0.2361  0.0510  0.6329
   96CHL1   C17 9534   3.378   3.658   7.620  0.2768 -0.5833  0.0177
   96CHL1   H17 9535   3.411   3.554   7.644 -1.5540 -0.6912  2.4014
   96CHL1   C13 9536   3.457   3.711   7.503 -0.0517 -1.4470  0.3788
   96CHL1   C18 9537   3.425   3.859   7.493 -0.1045 -0.6368 -0.1608
   96CHL1  H18A 9538   3.483   3.916   7.570  0.5643  0.8071 -1.6606
   96CHL1  H18B 9539   3.466   3.900   7.398 -0.0738  1.1156  0.5705
   96CHL1  H18C 9540   3.323   3.901   7.508  1.0370  1.9370  1.1285
   96CHL1   C12 9541   3.608   3.680   7.488  0.4127 -0.2260 -0.5014
   96CHL1  H12A 9542   3.667   3.736   7.564  1.0684 -1.1131 -0.3371
   96CHL1  H12B 9543   3.619   3.572   7.511 -1.5883 -0.2920  0.3321
   96CHL1   C11 9544   3.652   3.719   7.343 -0.1485 -0.1794  0.1302
   96CHL1  H11A 9545   3.649   3.830   7.337 -1.5892 -0.1498  0.9124
   96CHL1  H11B 9546   3.759   3.691   7.335 -0.1139  0.4934 -2.9818
   96CHL1    C9 9547   3.565   3.649   7.232 -0.2721  0.0292 -0.1747
   96CHL1    H9 9548   3.581   3.540   7.244  0.4786  0.2473  1.1139
   96CHL1   C10 9549   3.618   3.681   7.087  0.0034  0.2060 -0.8130
   96CHL1   C19 9550   3.612   3.829   7.055  0.3586 -0.3590  0.3431
   96CHL1  H19A 9551   3.653   3.856   6.955 -0.4580  0.6094  0.2502
   96CHL1  H19B 9552   3.511   3.876   7.053  1.0944  1.3216  1.2244
   96CHL1  H19C 9553   3.672   3.872   7.138  0.4440 -2.8509  1.6769
   96CHL1    C1 9554   3.765   3.629   7.077 -0.0553 -0.2771  0.2486
   96CHL1   H1A 9555   3.832   3.706   7.122 -0.8312  0.8288 -0.4163
   96CHL1   H1B 9556   3.763   3.548   7.152  0.3286  0.9250  1.6047
   96CHL1    C2 9557   3.834   3.607   6.943 -0.2296  0.0028  0.5688
   96CHL1   H2A 9558   3.928   3.548   6.946 -0.1149  0.2164  1.1727
   96CHL1   H2B 9559   3.846   3.703   6.889 -2.3800  0.3202  0.5639
   96CHL1   C20 9560   3.402   3.712   7.762  0.0045  0.1620  0.4282
   96CHL1   H20 9561   3.416   3.822   7.752 -1.4642  0.5452  2.1454
   96CHL1   C21 9562   3.530   3.656   7.813  0.7298 -0.5951  0.2303
   96CHL1  H21A 9563   3.520   3.546   7.825  0.0944 -0.5679  0.0098
   96CHL1  H21B 9564   3.560   3.706   7.908 -0.3162 -1.3621  0.9888
   96CHL1  H21C 9565   3.616   3.673   7.745 -0.5112  0.2580 -1.1892
   96CHL1   C22 9566   3.284   3.702   7.862 -0.7015 -1.1502 -0.5777
   96CHL1  H22A 9567   3.199   3.770   7.841 -0.0063 -0.6087 -1.7683
   96CHL1  H22B 9568   3.244   3.599   7.854 -0.1307 -1.4445  0.2561
   96CHL1   C23 9569   3.315   3.733   8.011 -0.1928 -0.4175 -0.1369
   96CHL1  H23A 9570   3.394   3.667   8.053 -1.2002 -1.7552 -0.2905
   96CHL1  H23B 9571   3.362   3.834   8.017 -1.0658  0.0992 -1.5618
   96CHL1   C24 9572   3.192   3.735   8.103  0.5153 -0.1224  0.6669
   96CHL1  H24A 9573   3.121   3.813   8.067  1.1332 -0.2259 -0.8728
   96CHL1  H24B 9574   3.149   3.632   8.104 -1.0397  0.4934  0.5356
   96CHL1   C25 9575   3.212   3.759   8.258 -0.2439 -0.0327 -0.0742
   96CHL1   H25 9576   3.278   3.671   8.274 -0.7828 -0.5494 -0.6397
   96CHL1   C26 9577   3.288   3.878   8.291  0.3590 -0.0862 -0.0092
   96CHL1  H26A 9578   3.250   3.976   8.256  2.6241  1.3833  1.4003
   96CHL1  H26B 9579   3.285   3.890   8.401  1.8958 -0.1441  0.0678
   96CHL1  H26C 9580   3.394   3.861   8.262  0.2004  0.5468 -0.9798
   96CHL1   C27 9581   3.077   3.746   8.334 -0.5663  0.3177  0.0681
   96CHL1  H27A 9582   3.002   3.818   8.295 -0.5920  1.3078  1.8270
   96CHL1  H27B 9583   3.035   3.643   8.330  2.0811 -0.7969 -1.2433
   96CHL1  H27C 9584   3.080   3.774   8.442  0.3140  1.3566 -0.2022
   97OSM      N 9585   4.525   5.912  10.887 -0.0343  0.3809 -0.0437
   97OSM    C15 9586   4.657   5.977  10.894  0.3213  0.0424 -0.0542
   97OSM   H15A 9587   4.652   6.083  10.912 -0.2271 -0.3569  2.5684
   97OSM   H15B 9588   4.715   5.965  10.803  2.2434 -1.5546  1.2967
   97OSM   H15C 9589   4.713   5.941  10.979 -0.5111  0.0624  0.5085
   97OSM    C14 9590   4.537   5.764  10.858 -0.7715  0.5978 -0.0545
   97OSM   H14A 9591   4.622   5.721  10.908 -1.4029  0.9159  1.3157
   97OSM   H14B 9592   4.581   5.752  10.760  1.6388  1.6393  0.8325
   97OSM   H14C 9593   4.450   5.705  10.881  0.3292 -2.9612 -3.8384
   97OSM    C13 9594   4.461   5.930  11.023 -0.6484  0.8005  0.0109
   97OSM   H13A 9595   4.529   5.896  11.100 -2.1378  1.0760  1.5105
   97OSM   H13B 9596   4.361   5.891  11.031 -0.6737  1.1761  2.3732
   97OSM   H13C 9597   4.455   6.036  11.045  1.2609  1.0316 -0.4071
   97OSM    C12 9598   4.436   5.976  10.779 -0.1581  0.6895  0.4544
   97OSM   H12A 9599   4.397   5.897  10.716 -2.7610  1.6618  0.7050
   97OSM   H12B 9600   4.505   6.033  10.719  0.0022 -1.8383 -2.0184
   97OSM    C11 9601   4.317   6.068  10.812 -0.1445  0.5100 -0.6462
   97OSM   H11A 9602   4.251   6.013  10.882  0.6520  0.9765  0.5068
   97OSM   H11B 9603   4.257   6.094  10.723  1.9182  4.0340 -1.1980
   97OSM      P 9604   4.329   6.321  10.857  0.1472  0.2260  0.1369
   97OSM    O13 9605   4.222   6.354  10.954 -0.0477 -0.1957  0.4812
   97OSM    O14 9606   4.450   6.411  10.846  0.3091  0.0397 -0.1474
   97OSM    O11 9607   4.255   6.332  10.719 -0.3219  0.4999 -0.3641
   97OSM    O12 9608   4.387   6.179  10.870 -0.1858 -0.1408 -0.1766
   97OSM    C1S 9609   4.320   6.331  10.591  0.0069 -0.0999  0.2876
   97OSM    H1S 9610   4.368   6.233  10.574  0.4696  0.1028  0.4068
   97OSM    H1T 9611   4.407   6.400  10.591  2.2436 -2.7365  1.3081
   97OSM     NF 9612   4.274   6.336  10.352 -0.2050  0.4203  0.5131
   97OSM    HNF 9613   4.304   6.408  10.290 -0.3359 -1.5866 -2.0556
   97OSM    C2S 9614   4.226   6.379  10.477  0.2863 -0.1042 -0.5588
   97OSM    H2S 9615   4.128   6.332  10.501  0.5745 -1.3348 -1.6681
   97OSM    C3S 9616   4.217   6.537  10.488 -0.9863  0.3886  0.4918
   97OSM    H3S 9617   4.323   6.560  10.464 -0.7544 -1.4074 -0.3912
   97OSM     O3 9618   4.206   6.586  10.614 -0.1222  0.3706  0.2635
   97OSM    HO3 9619   4.226   6.503  10.658  3.9421  0.3662 -1.1568
   97OSM    C4S 9620   4.127   6.604  10.393  0.5730 -0.2423 -0.9011
   97OSM    H4S 9621   4.165   6.604  10.289  2.2235 -0.0251 -0.3317
   97OSM    C5S 9622   4.008   6.659  10.426 -0.2431 -0.2282 -0.0865
   97OSM    H5S 9623   3.959   6.661  10.524 -1.7951 -0.9479 -0.8083
   97OSM    C6S 9624   3.918   6.726  10.323 -0.2603  0.3234 -0.2677
   97OSM    H6S 9625   3.870   6.818  10.363 -1.2710 -0.5488  0.5991
   97OSM    H6T 9626   3.831   6.659  10.302 -1.6580  1.8036  0.5237
   97OSM    C7S 9627   3.980   6.783  10.192 -0.0354 -0.0911 -0.8831
   97OSM    H7S 9628   4.024   6.697  10.137 -0.3345  0.1224 -1.4672
   97OSM    H7T 9629   4.060   6.851  10.226 -1.2597  0.9503  0.0369
   97OSM    C8S 9630   3.872   6.856  10.114 -0.7935 -0.2208  0.3767
   97OSM    H8S 9631   3.847   6.943  10.179  2.4427  3.0060 -2.2366
   97OSM    H8T 9632   3.786   6.787  10.106 -1.4081  0.6932 -1.8120
   97OSM    C9S 9633   3.932   6.904   9.983 -0.0955 -0.3679 -0.0279
   97OSM    H9S 9634   3.983   6.834   9.914  0.1303 -1.0076  0.7582
   97OSM    H9T 9635   4.007   6.982  10.004 -2.0002  1.6276 -0.3054
   97OSM   C10S 9636   3.823   6.965   9.898  0.6459 -0.4089  0.1744
   97OSM   H10S 9637   3.783   7.054   9.952  1.9001 -0.0500  0.5389
   97OSM   H10T 9638   3.742   6.895   9.870  0.2012 -0.3417  1.2449
   97OSM   C11S 9639   3.878   7.021   9.759 -0.1842  0.0165 -0.3850
   97OSM   H11S 9640   3.950   6.954   9.708  0.1441 -1.7149  2.1537
   97OSM   H11T 9641   3.938   7.110   9.789 -1.0987  0.5073  0.0371
   97OSM   C12S 9642   3.778   7.069   9.653 -0.3403  0.9265  0.5105
   97OSM   H12S 9643   3.703   7.134   9.704 -0.2027  1.8366 -0.4054
   97OSM   H12T 9644   3.744   6.975   9.605 -0.0126 -0.3146  2.5706
   97OSM   C13S 9645   3.844   7.177   9.552 -0.5484 -0.8841 -0.5420
   97OSM   H13S 9646   3.902   7.119   9.477  1.0572 -0.3990  0.2684
   97OSM   H13T 9647   3.914   7.241   9.610 -2.3401 -0.3692  1.1423
   97OSM   C14S 9648   3.730   7.255   9.484 -0.1880  0.7021 -0.0715
   97OSM   H14S 9649   3.682   7.314   9.565  1.5882  0.5566  1.1506
   97OSM   H14T 9650   3.664   7.180   9.437 -0.9449  1.2479  0.0930
   97OSM   C15S 9651   3.759   7.352   9.371  0.1958  0.1103  0.3635
   97OSM   H15S 9652   3.778   7.455   9.409  1.5192 -0.0684  0.2261
   97OSM   H15T 9653   3.671   7.370   9.307 -0.4889  1.5443  1.6481
   97OSM   C16S 9654   3.882   7.315   9.291  0.4500 -0.1807  0.7096
   97OSM   H16S 9655   3.871   7.211   9.252  1.8745 -0.7455  1.6846
   97OSM   H16T 9656   3.976   7.312   9.350  0.9495  0.3450 -0.0597
   97OSM   C17S 9657   3.911   7.417   9.180  0.2852 -0.0858  0.5912
   97OSM   H17S 9658   4.012   7.387   9.144  0.1509  0.0477  0.0949
   97OSM   H17T 9659   3.915   7.517   9.228 -0.3891 -0.5857  1.7423
   97OSM   C18S 9660   3.808   7.416   9.065 -0.4321  0.1372  0.0147
   97OSM   H18S 9661   3.708   7.449   9.100 -1.1735 -0.4682 -1.4512
   97OSM   H18T 9662   3.803   7.313   9.024 -0.8844 -0.7072  2.0443
   97OSM   H18U 9663   3.848   7.493   8.996  0.8156 -1.4901 -1.1584
   97OSM    C1F 9664   4.289   6.210  10.307 -0.0460 -0.6006  0.6682
   97OSM     OF 9665   4.258   6.116  10.379  0.1305  0.5474  0.4012
   97OSM    C2F 9666   4.351   6.185  10.181  0.7265  0.3623  0.0237
   97OSM    H2F 9667   4.398   6.085  10.171 -0.2815  0.0525 -2.5179
   97OSM    H2G 9668   4.423   6.266  10.156 -1.7581  2.4059 -1.0812
   97OSM    C3F 9669   4.238   6.186  10.071  0.6782  0.2528  0.0881
   97OSM    H3F 9670   4.180   6.281  10.070  0.1220 -0.0483 -2.4177
   97OSM    H3G 9671   4.171   6.100  10.092  0.6450  0.2491 -0.0344
   97OSM    C4F 9672   4.306   6.166   9.936 -0.0995 -0.1350 -0.9183
   97OSM    H4F 9673   4.338   6.059   9.930 -0.1824 -0.2377  0.2743
   97OSM    H4G 9674   4.396   6.229   9.943 -1.2956  1.4980  0.5042
   97OSM    C5F 9675   4.215   6.206   9.820  0.4209  0.7723  0.3528
   97OSM    H5F 9676   4.185   6.312   9.835 -0.4501  0.6897 -0.6638
   97OSM    H5G 9677   4.132   6.133   9.803  1.7546 -0.2130 -2.7403
   97OSM    C6F 9678   4.288   6.213   9.684 -0.7548  0.7611  0.2279
   97OSM    H6F 9679   4.220   6.190   9.599 -1.3524 -2.1716  1.4048
   97OSM    H6G 9680   4.355   6.125   9.692 -1.5286 -0.0047 -1.2713
   97OSM    C7F 9681   4.369   6.347   9.670  1.0740  0.2475 -0.4758
   97OSM    H7F 9682   4.403   6.371   9.772  2.6617 -4.4150  0.3529
   97OSM    H7G 9683   4.296   6.426   9.644 -1.0618 -0.5815  2.5167
   97OSM    C8F 9684   4.473   6.355   9.559 -0.2794 -0.0476 -0.0101
   97OSM    H8F 9685   4.570   6.309   9.591 -0.9880  0.2291  2.7584
   97OSM    H8G 9686   4.511   6.459   9.562  0.0670 -0.1411  3.6705
   97OSM    C9F 9687   4.417   6.306   9.423 -0.0237 -0.9171 -0.4906
   97OSM    H9F 9688   4.418   6.196   9.424  3.1524 -1.0585  2.8172
   97OSM   C10F 9689   4.378   6.381   9.315  0.6639 -0.1436 -0.5326
   97OSM   H10F 9690   4.348   6.319   9.230 -1.8147  0.8464 -0.4585
   97OSM   C11F 9691   4.373   6.536   9.322  0.8004  0.2073  0.4259
   97OSM   H11F 9692   4.458   6.583   9.266  1.0616 -0.4092  0.2929
   97OSM   H11G 9693   4.359   6.575   9.425 -0.0912 -0.0461  0.4053
   97OSM   C12F 9694   4.243   6.586   9.245  0.0218 -0.9360  0.7051
   97OSM   H12F 9695   4.231   6.696   9.247  1.2763 -0.6295 -2.5685
   97OSM   H12G 9696   4.152   6.557   9.303 -2.9694  1.0105 -2.6370
   97OSM   C13F 9697   4.221   6.548   9.092 -0.5891  1.0567 -0.5097
   97OSM   H13F 9698   4.129   6.600   9.056 -1.3356  0.5992  0.6683
   97OSM   H13G 9699   4.201   6.439   9.085 -0.2147  1.0460 -1.6296
   97OSM   C14F 9700   4.337   6.588   9.003  0.8614  0.1678  0.5500
   97OSM   H14F 9701   4.412   6.506   8.993  0.9074  0.1163  1.2701
   97OSM   H14G 9702   4.394   6.670   9.051 -0.4242  0.4463  1.6498
   97OSM   C15F 9703   4.312   6.643   8.861  0.2655  0.1215 -0.0326
   97OSM   H15F 9704   4.257   6.737   8.883  0.2010  0.0916 -0.0678
   97OSM   H15G 9705   4.246   6.577   8.801  1.3469 -1.0463  0.0184
   97OSM   C16F 9706   4.442   6.667   8.778 -0.4611 -0.4233 -0.0629
   97OSM   H16F 9707   4.507   6.577   8.780 -1.5496 -1.2192  0.3939
   97OSM   H16G 9708   4.516   6.733   8.829  1.9928  0.1031 -3.8674
   97OSM   C17F 9709   4.423   6.723   8.636  0.3878 -0.5710 -0.0188
   97OSM   H17F 9710   4.321   6.765   8.638 -0.6664 -3.0168  1.6411
   97OSM   H17G 9711   4.407   6.644   8.559 -0.1717 -0.5277  0.0502
   97OSM   C18F 9712   4.532   6.819   8.590  0.6315  0.1956  0.5427
   97OSM   H18F 9713   4.495   6.883   8.506  1.8457 -0.1241 -0.2749
   97OSM   H18G 9714   4.618   6.753   8.567  0.8952  0.8592 -0.4480
   97OSM   H18H 9715   4.557   6.893   8.669  3.6858  0.7287 -0.7695
   98OSM      N 9716   4.265   4.326  11.232 -0.1582 -0.0180 -0.5103
   98OSM    C15 9717   4.227   4.224  11.338 -0.7601 -0.1381  0.4157
   98OSM   H15A 9718   4.292   4.139  11.332 -2.0354 -1.1517  0.5825
   98OSM   H15B 9719   4.122   4.200  11.340 -0.8669  0.3254  0.5875
   98OSM   H15C 9720   4.248   4.263  11.437 -0.3259 -0.5395  0.4821
   98OSM    C14 9721   4.177   4.448  11.253 -0.0730  1.0973 -0.2241
   98OSM   H14A 9722   4.184   4.516  11.171 -1.3525  3.0957  1.2309
   98OSM   H14B 9723   4.189   4.495  11.350  0.0290  1.6430 -0.4992
   98OSM   H14C 9724   4.076   4.411  11.247 -0.0766  0.8835  0.8670
   98OSM    C13 9725   4.404   4.369  11.263 -0.3712 -0.3214  0.3311
   98OSM   H13A 9726   4.417   4.391  11.368 -1.4348 -0.9124  0.6003
   98OSM   H13B 9727   4.439   4.448  11.198 -2.3490  1.4485  1.3099
   98OSM   H13C 9728   4.471   4.286  11.246  1.1160  0.8252  0.4685
   98OSM    C12 9729   4.244   4.265  11.098 -0.3413  0.2110  0.4489
   98OSM   H12A 9730   4.331   4.205  11.076 -1.1711 -0.9109  0.1226
   98OSM   H12B 9731   4.262   4.337  11.020  0.0803 -0.0336  0.3135
   98OSM    C11 9732   4.115   4.196  11.062  0.6954  0.1011  0.2909
   98OSM   H11A 9733   4.109   4.105  11.125  3.0115 -1.6648 -1.8470
   98OSM   H11B 9734   4.123   4.159  10.957 -2.1851 -3.0252  0.9701
   98OSM      P 9735   3.951   4.386  10.983  0.3128 -0.0281 -0.1907
   98OSM    O13 9736   3.854   4.468  11.057  0.4930  0.0478  0.5182
   98OSM    O14 9737   4.063   4.450  10.916 -0.6070 -0.3312 -0.6274
   98OSM    O11 9738   3.876   4.295  10.870 -0.2419 -0.3569 -0.0818
   98OSM    O12 9739   4.005   4.280  11.088  0.1183 -0.6061  0.2875
   98OSM    C1S 9740   3.809   4.371  10.770  0.3801 -1.1294  0.2357
   98OSM    H1S 9741   3.758   4.465  10.801  0.7667 -1.0931  0.7644
   98OSM    H1T 9742   3.717   4.311  10.750 -1.2039  1.2718 -0.1147
   98OSM     NF 9743   3.807   4.451  10.530 -0.2753  0.2795  0.6041
   98OSM    HNF 9744   3.776   4.386  10.462 -0.9326 -0.0168  1.1689
   98OSM    C2S 9745   3.886   4.403  10.640 -0.2505  0.7805 -0.2457
   98OSM    H2S 9746   3.953   4.488  10.666  0.0511  0.5022 -0.0930
   98OSM    C3S 9747   3.971   4.278  10.598 -1.1283 -0.4335  0.2136
   98OSM    H3S 9748   3.892   4.201  10.595 -0.2563 -1.3117 -1.0367
   98OSM     O3 9749   4.066   4.242  10.692 -0.1232  0.2899 -0.1750
   98OSM    HO3 9750   4.038   4.284  10.774  0.2582  1.1967 -0.4953
   98OSM    C4S 9751   4.043   4.295  10.469 -0.2145 -0.3290  0.5519
   98OSM    H4S 9752   4.105   4.381  10.441 -0.9973 -0.4402 -1.7852
   98OSM    C5S 9753   4.026   4.198  10.380 -0.2177  0.9440  0.3401
   98OSM    H5S 9754   3.965   4.111  10.407 -1.0883  0.5999 -2.4219
   98OSM    C6S 9755   4.089   4.204  10.239  0.2862  0.6042 -0.3072
   98OSM    H6S 9756   4.127   4.102  10.219 -0.8206 -0.2665  1.6854
   98OSM    H6T 9757   4.178   4.271  10.244  1.4850 -1.0276  1.9807
   98OSM    C7S 9758   4.001   4.266  10.128  0.1443  0.5088 -0.6380
   98OSM    H7S 9759   4.063   4.263  10.035 -0.4170  0.7694 -1.0282
   98OSM    H7T 9760   3.981   4.375  10.134 -2.5696  0.0940 -0.8882
   98OSM    C8S 9761   3.880   4.190  10.092  0.0715 -0.0573  0.0041
   98OSM    H8S 9762   3.811   4.201  10.178 -0.4062 -1.0094 -0.2477
   98OSM    H8T 9763   3.897   4.080  10.086  1.1008  0.1445 -1.3808
   98OSM    C9S 9764   3.814   4.243   9.962  0.1949 -0.3035 -0.1846
   98OSM    H9S 9765   3.887   4.230   9.880  2.0073 -2.2826  1.6180
   98OSM    H9T 9766   3.781   4.349   9.969 -2.4968 -1.0315 -0.6453
   98OSM   C10S 9767   3.689   4.169   9.915  0.0145 -0.5061  0.0664
   98OSM   H10S 9768   3.610   4.156   9.992 -1.5211 -1.5580 -1.6211
   98OSM   H10T 9769   3.718   4.066   9.887 -0.4131 -0.8417  0.8219
   98OSM   C11S 9770   3.618   4.234   9.800 -0.4681 -0.0762  0.2239
   98OSM   H11S 9771   3.587   4.340   9.810 -0.6528 -0.1529  0.4653
   98OSM   H11T 9772   3.526   4.173   9.789  0.6864 -1.7322 -0.7681
   98OSM   C12S 9773   3.686   4.213   9.663  0.3184 -0.1637  0.4465
   98OSM   H12S 9774   3.714   4.106   9.655 -0.7685 -0.4578  0.4876
   98OSM   H12T 9775   3.785   4.264   9.653  0.4310 -0.6391 -1.0428
   98OSM   C13S 9776   3.607   4.251   9.541 -0.1276  0.2888  0.7717
   98OSM   H13S 9777   3.557   4.350   9.550 -0.4476  0.1029  1.1049
   98OSM   H13T 9778   3.534   4.168   9.524  0.7016 -0.1508 -0.8390
   98OSM   C14S 9779   3.692   4.241   9.411  0.4007 -0.5833  0.1405
   98OSM   H14S 9780   3.759   4.153   9.408  1.9166  0.5531 -2.4276
   98OSM   H14T 9781   3.761   4.328   9.401 -0.9725  0.6761  1.0626
   98OSM   C15S 9782   3.589   4.259   9.300  0.5979 -0.0155  0.3986
   98OSM   H15S 9783   3.508   4.333   9.315  0.4035 -0.2932  0.7275
   98OSM   H15T 9784   3.550   4.157   9.280  1.0707  0.2615 -2.3401
   98OSM   C16S 9785   3.654   4.304   9.164  0.1578 -0.4352  0.0743
   98OSM   H16S 9786   3.750   4.251   9.148  0.3952  0.1393 -0.4505
   98OSM   H16T 9787   3.673   4.413   9.171 -0.3214 -0.4000  1.1625
   98OSM   C17S 9788   3.553   4.276   9.043 -0.3046  0.3376  0.0494
   98OSM   H17S 9789   3.492   4.367   9.028  0.2388  0.8835  0.9893
   98OSM   H17T 9790   3.486   4.195   9.081 -0.6498 -0.0763 -1.3872
   98OSM   C18S 9791   3.634   4.237   8.921 -0.4256 -0.1074  1.4102
   98OSM   H18S 9792   3.680   4.136   8.927 -1.2202 -0.5211  0.7632
   98OSM   H18T 9793   3.710   4.313   8.892 -1.3490  1.1172  2.1380
   98OSM   H18U 9794   3.566   4.233   8.833 -0.7265 -1.7338  1.6785
   98OSM    C1F 9795   3.755   4.574  10.525 -0.2406  0.5762 -0.0743
   98OSM     OF 9796   3.755   4.649  10.622  0.3016  0.0460  0.1867
   98OSM    C2F 9797   3.692   4.620  10.392  0.1167 -0.0421 -0.3981
   98OSM    H2F 9798   3.583   4.623  10.409  0.1386 -1.8056  0.2632
   98OSM    H2G 9799   3.695   4.552  10.304  1.6789  2.0639 -2.0882
   98OSM    C3F 9800   3.742   4.755  10.352  0.6320  0.0678  0.1692
   98OSM    H3F 9801   3.852   4.751  10.339  0.4944 -1.0249 -0.7993
   98OSM    H3G 9802   3.713   4.832  10.427  2.4570 -0.0371  1.0552
   98OSM    C4F 9803   3.686   4.797  10.216 -0.3574 -0.2807 -0.5663
   98OSM    H4F 9804   3.714   4.904  10.205 -2.8653  0.9517  3.0196
   98OSM    H4G 9805   3.577   4.815  10.210 -0.2918  0.1957 -0.4177
   98OSM    C5F 9806   3.740   4.719  10.095  0.9106 -0.4952 -0.3493
   98OSM    H5F 9807   3.696   4.617  10.095 -2.7314  0.9075 -1.8366
   98OSM    H5G 9808   3.850   4.702  10.102  1.2054  1.1149 -0.7147
   98OSM    C6F 9809   3.702   4.787   9.967  0.2892 -0.6105 -0.4501
   98OSM    H6F 9810   3.771   4.874   9.955  4.0406 -2.9575  1.8837
   98OSM    H6G 9811   3.597   4.820   9.964  0.3435 -0.3602  0.3295
   98OSM    C7F 9812   3.724   4.697   9.844  0.5136  0.0692 -0.5491
   98OSM    H7F 9813   3.646   4.619   9.834  0.0504  0.5586 -0.7936
   98OSM    H7G 9814   3.828   4.658   9.843  0.3557 -0.3560 -0.3585
   98OSM    C8F 9815   3.718   4.768   9.705  0.2663 -0.7162  0.6890
   98OSM    H8F 9816   3.751   4.697   9.627 -0.1365 -1.7366  1.4158
   98OSM    H8G 9817   3.801   4.841   9.704 -1.3921  1.2881 -1.2280
   98OSM    C9F 9818   3.591   4.844   9.665  0.2110 -0.0283  0.3922
   98OSM    H9F 9819   3.582   4.943   9.713  0.8072 -0.5329  1.5917
   98OSM   C10F 9820   3.491   4.796   9.588 -0.1011  0.1032 -0.0223
   98OSM   H10F 9821   3.404   4.859   9.569 -0.2738  0.2559  1.1590
   98OSM   C11F 9822   3.500   4.659   9.521 -0.3135 -0.0643 -0.0459
   98OSM   H11F 9823   3.406   4.605   9.542  1.5683 -3.3934  0.5515
   98OSM   H11G 9824   3.573   4.590   9.567  0.1542 -0.0874 -0.7932
   98OSM   C12F 9825   3.519   4.665   9.365 -0.7610  0.1357  0.1778
   98OSM   H12F 9826   3.528   4.559   9.334 -0.8242  0.7794 -2.2662
   98OSM   H12G 9827   3.612   4.721   9.345 -0.9264 -0.4574 -2.5755
   98OSM   C13F 9828   3.401   4.729   9.287 -0.5013  0.1232  1.0529
   98OSM   H13F 9829   3.390   4.837   9.310 -0.4899  0.6388 -1.1324
   98OSM   H13G 9830   3.320   4.659   9.318  0.2926 -1.8561 -1.0943
   98OSM   C14F 9831   3.422   4.723   9.127 -0.2202 -0.1006 -0.1249
   98OSM   H14F 9832   3.463   4.622   9.105  1.9791  0.3014  1.7360
   98OSM   H14G 9833   3.506   4.787   9.094  0.8299 -0.2367  2.1136
   98OSM   C15F 9834   3.297   4.747   9.043 -0.5909  0.8411 -0.5262
   98OSM   H15F 9835   3.256   4.838   9.092 -0.8476 -0.0387  0.9628
   98OSM   H15G 9836   3.227   4.670   9.082 -0.2642  1.2928  0.9950
   98OSM   C16F 9837   3.307   4.758   8.888 -0.0099  0.2164 -0.1975
   98OSM   H16F 9838   3.368   4.845   8.854 -0.4603 -0.3738 -2.6752
   98OSM   H16G 9839   3.203   4.771   8.852  0.8680 -0.3851 -3.2707
   98OSM   C17F 9840   3.362   4.632   8.806 -0.1793  0.3015 -0.0637
   98OSM   H17F 9841   3.452   4.605   8.865  0.7761  2.7328 -0.3014
   98OSM   H17G 9842   3.392   4.669   8.706 -0.4709 -0.0882 -0.2971
   98OSM   C18F 9843   3.256   4.529   8.794  0.6239  0.9419  1.1093
   98OSM   H18F 9844   3.279   4.450   8.720 -1.8240 -0.2952  1.5460
   98OSM   H18G 9845   3.161   4.573   8.755  0.7880  0.3548  0.0205
   98OSM   H18H 9846   3.244   4.483   8.894  2.8243  1.2372  1.5701
   99OSM      N 9847   5.823   4.622  11.059  0.8493 -0.6025 -0.3385
   99OSM    C15 9848   5.846   4.661  10.919 -0.0503  0.6743 -0.0297
   99OSM   H15A 9849   5.820   4.765  10.904  2.3055  1.1893 -0.9300
   99OSM   H15B 9850   5.788   4.603  10.848 -0.0576  0.3543  0.2347
   99OSM   H15C 9851   5.945   4.647  10.879 -0.6227 -2.5466 -0.6198
   99OSM    C14 9852   5.878   4.486  11.079  0.6093 -0.0929 -0.2603
   99OSM   H14A 9853   5.860   4.456  11.181 -1.2998  1.7204 -0.0099
   99OSM   H14B 9854   5.982   4.477  11.049  0.5506 -3.1835  0.1556
   99OSM   H14C 9855   5.816   4.419  11.022 -0.5751  2.2259 -1.8777
   99OSM    C13 9856   5.894   4.720  11.151 -0.2366 -0.0149  0.9062
   99OSM   H13A 9857   5.852   4.708  11.250  1.7987  1.1927  1.9729
   99OSM   H13B 9858   5.869   4.821  11.123 -2.4337 -0.0161  2.6166
   99OSM   H13C 9859   6.001   4.706  11.150 -0.2464 -0.4031 -1.5848
   99OSM    C12 9860   5.671   4.626  11.091 -0.0515 -0.6139  0.4600
   99OSM   H12A 9861   5.633   4.726  11.083 -2.1348 -0.9033  4.1872
   99OSM   H12B 9862   5.676   4.614  11.199 -0.2189  2.4662  0.8969
   99OSM    C11 9863   5.582   4.522  11.023 -0.1946  0.3261 -0.6099
   99OSM   H11A 9864   5.482   4.530  11.072  0.4502  1.3207  0.6193
   99OSM   H11B 9865   5.625   4.421  11.041 -1.3388 -0.4056 -1.7395
   99OSM      P 9866   5.496   4.657  10.819 -0.0384  0.2920  0.3273
   99OSM    O13 9867   5.355   4.631  10.855  0.3452  0.7773  0.2612
   99OSM    O14 9868   5.544   4.787  10.855  0.0310  0.3207  0.1728
   99OSM    O11 9869   5.523   4.640  10.668 -0.3570  0.3233  0.6372
   99OSM    O12 9870   5.583   4.545  10.889  0.3125  0.1238 -0.1578
   99OSM    C1S 9871   5.446   4.544  10.584  0.0228 -0.8417 -0.1686
   99OSM    H1S 9872   5.340   4.532  10.615 -0.2666 -0.4720 -0.9825
   99OSM    H1T 9873   5.495   4.444  10.585  0.0635 -0.9294 -2.8837
   99OSM     NF 9874   5.358   4.515  10.358 -1.1564 -0.1217  0.0699
   99OSM    HNF 9875   5.396   4.452  10.291 -1.7039  0.4783 -0.8274
   99OSM    C2S 9876   5.445   4.588  10.437  0.0062  0.2559  0.3871
   99OSM    H2S 9877   5.415   4.695  10.438 -1.0773  0.0131 -1.5266
   99OSM    C3S 9878   5.595   4.591  10.388 -0.4628 -0.3660 -0.3286
   99OSM    H3S 9879   5.639   4.489  10.386 -1.4777 -0.8148 -0.2715
   99OSM     O3 9880   5.687   4.663  10.473  0.0712  0.0361  0.7657
   99OSM    HO3 9881   5.630   4.683  10.548 -1.3697 -0.9238 -0.0275
   99OSM    C4S 9882   5.623   4.658  10.256  0.3083  0.6928 -0.1397
   99OSM    H4S 9883   5.635   4.767  10.265 -0.9943  0.8300  0.1479
   99OSM    C5S 9884   5.654   4.595  10.143 -0.4574 -0.0246  0.4090
   99OSM    H5S 9885   5.646   4.485  10.151 -2.5138  0.1084  0.7829
   99OSM    C6S 9886   5.685   4.656  10.011 -0.1613 -0.5451  0.6380
   99OSM    H6S 9887   5.756   4.596   9.950 -0.8563  0.3895 -1.1740
   99OSM    H6T 9888   5.734   4.755  10.025 -1.2753 -0.2245  2.7720
   99OSM    C7S 9889   5.553   4.685   9.933 -0.6073 -0.0535  0.1566
   99OSM    H7S 9890   5.497   4.751  10.003  2.6705  1.7472  1.2699
   99OSM    H7T 9891   5.508   4.584   9.928 -1.2794 -0.0126  3.0917
   99OSM    C8S 9892   5.579   4.740   9.793  0.6932 -0.4371 -0.1225
   99OSM    H8S 9893   5.612   4.660   9.723  1.5430  1.2522 -1.7490
   99OSM    H8T 9894   5.655   4.821   9.791 -0.2998  0.4856 -0.7166
   99OSM    C9S 9895   5.448   4.808   9.729 -0.5398  0.4328  0.5823
   99OSM    H9S 9896   5.430   4.906   9.779 -0.2881  1.0559 -0.5158
   99OSM    H9T 9897   5.374   4.727   9.747  0.0568  0.1269  1.7483
   99OSM   C10S 9898   5.452   4.826   9.581  0.4042 -0.8288 -0.3583
   99OSM   H10S 9899   5.490   4.735   9.530 -1.2748 -1.2889 -0.8434
   99OSM   H10T 9900   5.512   4.907   9.536  0.3170 -0.6031 -0.0755
   99OSM   C11S 9901   5.302   4.864   9.539 -0.0764  0.4720 -0.5264
   99OSM   H11S 9902   5.256   4.943   9.601 -0.8399 -1.0624  0.9565
   99OSM   H11T 9903   5.241   4.773   9.558  1.5736  0.0192  3.8760
   99OSM   C12S 9904   5.288   4.904   9.392  0.2710 -0.1859  0.3555
   99OSM   H12S 9905   5.178   4.897   9.379  0.5200 -1.3924 -1.6296
   99OSM   H12T 9906   5.316   5.009   9.367 -0.9120 -0.9354 -5.7007
   99OSM   C13S 9907   5.353   4.808   9.293  0.1724  0.3171  0.2261
   99OSM   H13S 9908   5.328   4.702   9.315  0.3851  0.2854  0.3216
   99OSM   H13T 9909   5.462   4.809   9.314  0.1847 -0.3286  0.2433
   99OSM   C14S 9910   5.313   4.832   9.141  0.0222  0.4047 -0.9870
   99OSM   H14S 9911   5.202   4.832   9.144 -0.0791 -3.2506 -0.9009
   99OSM   H14T 9912   5.354   4.742   9.090 -1.7948 -1.2956  0.3915
   99OSM   C15S 9913   5.363   4.958   9.068  0.4614  0.0376 -0.7382
   99OSM   H15S 9914   5.471   4.964   9.042  0.7046  2.0556  0.4806
   99OSM   H15T 9915   5.352   5.041   9.141 -1.0946 -0.1531 -0.7221
   99OSM   C16S 9916   5.288   4.973   8.940 -0.4413 -0.2931  0.0797
   99OSM   H16S 9917   5.327   5.068   8.899  1.3187 -0.3146  1.5638
   99OSM   H16T 9918   5.179   4.984   8.958 -0.3362 -0.8036  1.1510
   99OSM   C17S 9919   5.298   4.854   8.841 -0.8397 -0.5536 -0.4000
   99OSM   H17S 9920   5.261   4.758   8.885  1.3210 -0.9213  0.7544
   99OSM   H17T 9921   5.406   4.840   8.819 -0.8986  1.3554 -2.1615
   99OSM   C18S 9922   5.229   4.860   8.704 -0.3522  0.0990  0.1178
   99OSM   H18S 9923   5.300   4.919   8.642  0.4437 -0.1798  0.7412
   99OSM   H18T 9924   5.140   4.926   8.705 -0.5203 -0.1078 -0.8978
   99OSM   H18U 9925   5.211   4.757   8.668 -1.1298  0.2496  0.0579
   99OSM    C1F 9926   5.227   4.514  10.375  0.1290 -0.2029 -0.0472
   99OSM     OF 9927   5.167   4.614  10.428  0.0593  0.2015  0.5937
   99OSM    C2F 9928   5.141   4.393  10.329 -0.5083  0.0952  0.4900
   99OSM    H2F 9929   5.109   4.336  10.419 -0.6682 -1.6904 -0.6412
   99OSM    H2G 9930   5.207   4.323  10.272  0.8532  0.7841  1.1784
   99OSM    C3F 9931   5.016   4.434  10.236 -0.3653  0.3558  0.0875
   99OSM    H3F 9932   4.966   4.341  10.202 -1.6719  1.6841 -1.8533
   99OSM    H3G 9933   4.943   4.490  10.298  0.5351  1.5121  0.1474
   99OSM    C4F 9934   5.050   4.520  10.110  0.6852 -0.3331  1.1531
   99OSM    H4F 9935   5.097   4.612  10.151  0.2658  0.3867  0.0764
   99OSM    H4G 9936   4.957   4.550  10.057  0.9301 -0.3796  0.6898
   99OSM    C5F 9937   5.139   4.451  10.003 -0.5027 -0.9775 -0.2387
   99OSM    H5F 9938   5.083   4.361   9.970 -1.5592 -0.9987  1.4867
   99OSM    H5G 9939   5.234   4.416  10.049 -0.1581  0.2995  0.0633
   99OSM    C6F 9940   5.174   4.544   9.878  0.8658  0.4402 -0.4207
   99OSM    H6F 9941   5.282   4.571   9.883  0.6357  1.2094  0.8614
   99OSM    H6G 9942   5.117   4.638   9.889  0.9847  0.4173  0.4690
   99OSM    C7F 9943   5.146   4.483   9.743  0.1454  0.0053  0.7577
   99OSM    H7F 9944   5.196   4.384   9.741  0.5269  0.2029 -1.0257
   99OSM    H7G 9945   5.207   4.537   9.667 -0.2103 -2.5921 -1.5258
   99OSM    C8F 9946   5.000   4.482   9.685  0.8055 -0.1441 -0.2669
   99OSM    H8F 9947   4.947   4.575   9.657 -0.2055 -0.6198  0.0161
   99OSM    H8G 9948   4.936   4.455   9.772  1.0396  0.3889  0.0707
   99OSM    C9F 9949   4.988   4.372   9.581 -0.2727  0.3669 -0.2436
   99OSM    H9F 9950   4.932   4.282   9.612  0.4831  0.6116  2.0046
   99OSM   C10F 9951   5.041   4.376   9.456 -0.3339  0.2357  0.3422
   99OSM   H10F 9952   5.052   4.282   9.400 -0.6040 -0.3409  1.2352
   99OSM   C11F 9953   5.120   4.486   9.395 -0.5788 -0.5536  0.1930
   99OSM   H11F 9954   5.210   4.445   9.345  0.4278  1.8519 -0.1250
   99OSM   H11G 9955   5.148   4.565   9.468 -2.6510 -1.4709  2.0870
   99OSM   C12F 9956   5.037   4.569   9.297 -0.1707  0.4509  0.4862
   99OSM   H12F 9957   5.086   4.663   9.264 -0.7373  0.3807 -0.5976
   99OSM   H12G 9958   4.934   4.587   9.334 -0.1619 -0.5940  1.0700
   99OSM   C13F 9959   5.006   4.489   9.168  0.1715  0.2586 -0.5636
   99OSM   H13F 9960   4.934   4.405   9.180 -0.7977  1.1443  0.0110
   99OSM   H13G 9961   5.100   4.457   9.120  0.2394 -1.0567  0.3859
   99OSM   C14F 9962   4.934   4.586   9.073 -0.3485 -0.9903  0.2024
   99OSM   H14F 9963   5.002   4.673   9.065 -1.2539 -0.3725 -1.1416
   99OSM   H14G 9964   4.829   4.612   9.101 -0.0929 -0.5210  0.7423
   99OSM   C15F 9965   4.935   4.538   8.923 -0.3810 -0.3716  0.2273
   99OSM   H15F 9966   4.862   4.455   8.915 -0.6733 -0.1460  0.5267
   99OSM   H15G 9967   5.036   4.496   8.903 -0.3197 -1.1824  1.9967
   99OSM   C16F 9968   4.907   4.651   8.829 -0.6729 -0.4168 -0.4559
   99OSM   H16F 9969   5.004   4.703   8.816 -0.1061 -2.0272 -3.7265
   99OSM   H16G 9970   4.835   4.724   8.873 -0.1283  0.0271 -0.2923
   99OSM   C17F 9971   4.864   4.600   8.690  0.5569  0.7753 -0.4640
   99OSM   H17F 9972   4.806   4.507   8.704 -1.2728  2.0127  0.4807
   99OSM   H17G 9973   4.956   4.563   8.639  1.0969  0.7002  0.5376
   99OSM   C18F 9974   4.783   4.697   8.607 -0.0633 -0.0624  0.5163
   99OSM   H18F 9975   4.686   4.714   8.659 -1.1299  1.3525 -1.7689
   99OSM   H18G 9976   4.776   4.654   8.505 -0.1851  1.5162 -0.1667
   99OSM   H18H 9977   4.830   4.797   8.594 -0.5739 -0.1270 -2.4516
  100OSM      N 9978   6.486   0.994  10.601  0.1769 -0.2576  0.0120
  100OSM    C15 9979   6.552   1.113  10.652 -0.3178 -0.2710 -0.0141
  100OSM   H15A 9980   6.517   1.151  10.747 -0.8165  0.8416 -0.6265
  100OSM   H15B 9981   6.554   1.190  10.577 -0.7938 -1.3163 -1.1234
  100OSM   H15C 9982   6.658   1.090  10.660 -0.1603  0.7334  0.9615
  100OSM    C14 9983   6.333   1.014  10.601  0.0251  0.5081  0.5835
  100OSM   H14A 9984   6.315   1.045  10.703  1.1769 -1.4261  1.4281
  100OSM   H14B 9985   6.291   0.916  10.585  0.0676  0.7690 -1.3639
  100OSM   H14C 9986   6.309   1.085  10.524 -2.3392 -1.1998 -0.3457
  100OSM    C13 9987   6.530   0.957  10.471 -0.9763  0.4587  0.6258
  100OSM   H13A 9988   6.637   0.950  10.461 -1.2188 -2.2202 -1.0934
  100OSM   H13B 9989   6.501   1.037  10.404  1.4216  1.1561  0.3123
  100OSM   H13C 9990   6.489   0.862  10.439 -0.2440 -0.6476  2.7830
  100OSM    C12 9991   6.514   0.883  10.705  0.1721 -0.4045  0.1342
  100OSM   H12A 9992   6.479   0.793  10.658 -0.2319  0.5716 -1.5130
  100OSM   H12B 9993   6.451   0.889  10.792  1.7870 -1.9573  1.5038
  100OSM    C11 9994   6.659   0.859  10.753  0.3785  0.6340  0.2405
  100OSM   H11A 9995   6.657   0.762  10.806 -0.6981  0.7523  0.4459
  100OSM   H11B 9996   6.688   0.930  10.833  3.5574  0.8809 -0.9782
  100OSM      P 9997   6.885   0.927  10.650  0.1730 -0.2841 -0.1663
  100OSM    O13 9998   6.867   1.073  10.628 -0.5733 -0.4095  0.9305
  100OSM    O14 9999   6.954   0.887  10.777  0.3319 -0.2463 -0.4623
  100OSM    O1110000   6.964   0.875  10.522  0.4915 -0.0053 -0.5836
  100OSM    O1210001   6.756   0.856  10.650  0.0527  0.4492  0.3257
  100OSM    C1S10002   6.924   0.760  10.447 -0.5389 -0.5479 -0.1021
  100OSM    H1S10003   6.823   0.719  10.469 -0.0358 -1.0788  1.3538
  100OSM    H1T10004   6.993   0.679  10.478 -0.5067 -0.3196  0.4464
  100OSM     NF10005   6.872   0.689  10.217  0.6283 -0.5286 -0.1759
  100OSM    HNF10006   6.934   0.624  10.175  0.3652 -2.2866  1.9560
  100OSM    C2S10007   6.932   0.797  10.295 -0.7130 -0.5906 -0.0612
  100OSM    H2S10008   6.871   0.887  10.274  0.2579 -0.3587 -2.1542
  100OSM    C3S10009   7.079   0.828  10.262 -1.3288  0.0333  0.9680
  100OSM    H3S10010   7.135   0.732  10.274 -0.0809  0.2823 -2.0006
  100OSM     O310011   7.153   0.919  10.348  0.2419 -0.1631  0.6193
  100OSM    HO310012   7.081   0.942  10.407 -0.8999 -0.7065 -0.5105
  100OSM    C4S10013   7.096   0.873  10.122  0.6825 -0.0797  0.0297
  100OSM    H4S10014   7.029   0.954  10.090 -1.1809 -0.6474  2.1908
  100OSM    C5S10015   7.186   0.837  10.032 -0.1659  0.3533 -0.4749
  100OSM    H5S10016   7.274   0.782  10.067 -0.2513  0.6000  0.1483
  100OSM    C6S10017   7.201   0.899   9.897  0.0949 -0.3618 -0.2939
  100OSM    H6S10018   7.142   0.992   9.887  1.0604  0.3980  0.8611
  100OSM    H6T10019   7.162   0.837   9.813 -0.9327 -1.3925  0.8898
  100OSM    C7S10020   7.341   0.944   9.854  0.5208  0.1079 -0.0320
  100OSM    H7S10021   7.377   1.019   9.927  0.2717  1.2534 -1.0441
  100OSM    H7T10022   7.323   1.000   9.760 -0.4376  1.3288  0.8454
  100OSM    C8S10023   7.462   0.848   9.849  0.2098 -0.1139 -0.0889
  100OSM    H8S10024   7.460   0.806   9.952 -1.4027 -1.5369 -0.6483
  100OSM    H8T10025   7.563   0.892   9.837  1.0975 -1.6728  1.2673
  100OSM    C9S10026   7.447   0.745   9.734 -0.0416 -0.4109 -0.3930
  100OSM    H9S10027   7.354   0.688   9.750 -0.2180 -0.0893 -0.2545
  100OSM    H9T10028   7.536   0.679   9.747  1.4458  1.1067 -2.2000
  100OSM   C10S10029   7.456   0.802   9.593  0.9399  0.0401 -0.2480
  100OSM   H10S10030   7.516   0.896   9.594 -0.0059  0.7927 -3.1280
  100OSM   H10T10031   7.353   0.810   9.552  0.4011 -1.8343  0.6504
  100OSM   C11S10032   7.536   0.713   9.503  0.0789 -0.8377 -0.7883
  100OSM   H11S10033   7.514   0.608   9.532  1.3213 -0.8384  0.2262
  100OSM   H11T10034   7.641   0.742   9.522 -0.0009 -0.2450 -1.2232
  100OSM   C12S10035   7.491   0.724   9.358 -0.4352  0.2156  0.0655
  100OSM   H12S10036   7.472   0.828   9.326  3.9645  0.7293 -1.5368
  100OSM   H12T10037   7.397   0.668   9.341 -1.9275  2.0318  1.7680
  100OSM   C13S10038   7.587   0.650   9.264  0.4489 -0.2095 -0.5215
  100OSM   H13S10039   7.602   0.543   9.290  0.0882 -0.1317  0.0388
  100OSM   H13T10040   7.684   0.704   9.262  1.1348 -0.9356  3.7869
  100OSM   C14S10041   7.534   0.651   9.121  0.3097  0.5791  0.3581
  100OSM   H14S10042   7.423   0.646   9.120  0.2781  1.1865 -1.1880
  100OSM   H14T10043   7.567   0.563   9.061 -0.4305  1.0654 -0.7978
  100OSM   C15S10044   7.567   0.778   9.038 -0.5646 -0.2565  0.2659
  100OSM   H15S10045   7.671   0.766   9.000 -1.1628 -1.9545 -0.9839
  100OSM   H15T10046   7.562   0.868   9.102 -0.1393  0.2137 -0.3481
  100OSM   C16S10047   7.467   0.799   8.915 -0.0326  0.6961 -0.6290
  100OSM   H16S10048   7.452   0.909   8.905  2.1946  1.0448 -0.6668
  100OSM   H16T10049   7.376   0.740   8.935 -0.8347  2.0115 -0.2608
  100OSM   C17S10050   7.521   0.742   8.791 -0.0427 -0.2236  0.1258
  100OSM   H17S10051   7.522   0.631   8.791  0.8378 -0.2584  2.6319
  100OSM   H17T10052   7.630   0.762   8.795  0.1436 -1.3220  1.0393
  100OSM   C18S10053   7.446   0.791   8.666 -0.7463  0.4923 -0.0736
  100OSM   H18S10054   7.506   0.766   8.576  1.7040  3.9986  0.4148
  100OSM   H18T10055   7.446   0.901   8.679  2.5335  0.4653  0.9995
  100OSM   H18U10056   7.342   0.751   8.666 -0.4113 -0.6025  2.4404
  100OSM    C1F10057   6.739   0.671  10.217  0.3500  0.0511  0.1472
  100OSM     OF10058   6.658   0.734  10.286  0.1112  0.4105  0.5501
  100OSM    C2F10059   6.690   0.563  10.115  0.3598 -0.0805 -0.7852
  100OSM    H2F10060   6.638   0.480  10.169  1.2953 -0.3262 -0.2467
  100OSM    H2G10061   6.776   0.518  10.062  1.2010  0.8140 -0.2180
  100OSM    C3F10062   6.602   0.632  10.002 -0.1274  0.1573  0.2727
  100OSM    H3F10063   6.530   0.700  10.054 -0.4540 -1.3486  1.8818
  100OSM    H3G10064   6.542   0.559   9.944  0.0632  1.9575 -2.3711
  100OSM    C4F10065   6.682   0.723   9.907  0.4200 -0.1437  0.5780
  100OSM    H4F10066   6.752   0.787   9.967 -1.2533  1.0248  1.3730
  100OSM    H4G10067   6.608   0.790   9.858  0.9259  0.0475  0.0658
  100OSM    C5F10068   6.765   0.639   9.810  0.0258 -0.8612 -0.1189
  100OSM    H5F10069   6.708   0.558   9.759  0.2670  0.0256 -1.8636
  100OSM    H5G10070   6.839   0.595   9.881 -0.7373 -0.7885  0.7572
  100OSM    C6F10071   6.849   0.727   9.705 -0.2009 -0.3511  0.5466
  100OSM    H6F10072   6.917   0.800   9.753  0.5719  0.7973 -2.1553
  100OSM    H6G10073   6.781   0.781   9.636  0.3629 -1.1788 -0.6998
  100OSM    C7F10074   6.941   0.642   9.615  0.0516  0.0168 -0.5635
  100OSM    H7F10075   6.882   0.576   9.548 -0.2038 -0.6102  0.2595
  100OSM    H7G10076   6.993   0.580   9.691 -0.2064 -1.7089 -1.7421
  100OSM    C8F10077   7.044   0.713   9.525 -0.7539 -0.1030 -0.6339
  100OSM    H8F10078   7.099   0.785   9.590 -3.3841 -1.3550  3.2930
  100OSM    H8G10079   6.979   0.766   9.452 -0.6243  0.1396 -0.5752
  100OSM    C9F10080   7.137   0.616   9.457  0.2796 -0.4027 -0.8202
  100OSM    H9F10081   7.203   0.551   9.518 -2.0303 -3.0974 -1.0097
  100OSM   C10F10082   7.141   0.606   9.323 -0.2152 -0.0952 -0.3889
  100OSM   H10F10083   7.200   0.528   9.273 -2.0924 -1.0641 -1.2239
  100OSM   C11F10084   7.064   0.680   9.218  0.2982 -0.4040  0.4572
  100OSM   H11F10085   6.969   0.709   9.267 -0.1960 -0.3804 -0.4959
  100OSM   H11G10086   7.037   0.610   9.136  0.9934 -0.2901  0.1234
  100OSM   C12F10087   7.142   0.802   9.173 -0.0559 -0.5850 -0.2932
  100OSM   H12F10088   7.229   0.772   9.110 -0.3941 -0.5507 -0.7823
  100OSM   H12G10089   7.179   0.863   9.258  1.6429 -2.1784  0.1681
  100OSM   C13F10090   7.051   0.898   9.086  0.1992 -0.0271  0.5790
  100OSM   H13F10091   7.123   0.978   9.056  1.1456  0.1434  3.0448
  100OSM   H13G10092   6.982   0.958   9.149 -1.3966  0.5064 -1.5289
  100OSM   C14F10093   6.983   0.824   8.973 -0.1916  0.4537 -0.0741
  100OSM   H14F10094   6.908   0.894   8.931 -1.5500 -0.7690  0.1949
  100OSM   H14G10095   6.917   0.745   9.016 -0.5171 -0.2674 -1.8153
  100OSM   C15F10096   7.062   0.769   8.860 -0.7300  0.2130 -0.2475
  100OSM   H15F10097   7.147   0.711   8.902 -1.4635 -1.9570 -1.5805
  100OSM   H15G10098   7.120   0.839   8.797 -2.1341  0.2644 -1.5426
  100OSM   C16F10099   6.984   0.667   8.778  0.2732 -1.0381 -0.1553
  100OSM   H16F10100   6.924   0.606   8.849 -0.5363 -0.3983 -0.2884
  100OSM   H16G10101   7.050   0.611   8.708  1.9998  2.2066 -1.3060
  100OSM   C17F10102   6.876   0.729   8.684  0.0828  0.4473  0.1564
  100OSM   H17F10103   6.917   0.809   8.617 -0.9609  0.5126 -0.4248
  100OSM   H17G10104   6.799   0.785   8.742  1.5965  1.6628  1.0836
  100OSM   C18F10105   6.803   0.617   8.594  0.8754  0.3015  0.6381
  100OSM   H18F10106   6.875   0.568   8.526 -0.7332 -0.3381 -0.6494
  100OSM   H18G10107   6.718   0.660   8.536 -1.3634 -2.8128  1.3684
  100OSM   H18H10108   6.751   0.541   8.656  0.0130 -0.3196 -0.8183
  101OSM      N10109   5.131   0.711  10.948 -0.5386  0.6974 -0.7328
  101OSM    C1510110   4.983   0.717  10.931  0.2153 -0.5334  0.1178
  101OSM   H15A10111   4.955   0.771  10.842  0.2389 -1.5277 -0.5071
  101OSM   H15B10112   4.925   0.745  11.018  0.5118 -2.1963  0.8851
  101OSM   H15C10113   4.956   0.616  10.904  0.6823 -0.2618 -1.4221
  101OSM    C1410114   5.189   0.687  10.811  0.4313  0.2649  0.3480
  101OSM   H14A10115   5.297   0.685  10.818  0.5133  2.7958  0.9146
  101OSM   H14B10116   5.158   0.771  10.751 -3.3213  0.3602  2.1046
  101OSM   H14C10117   5.148   0.598  10.765 -1.1850 -0.6078  3.1776
  101OSM    C1310118   5.175   0.842  10.997 -0.2144  0.0185  0.1452
  101OSM   H13A10119   5.150   0.856  11.102 -1.4029  1.2667 -0.2694
  101OSM   H13B10120   5.135   0.926  10.942  1.3022  0.7879  0.1492
  101OSM   H13C10121   5.283   0.845  10.997 -0.2075 -0.2950 -0.0273
  101OSM    C1210122   5.167   0.593  11.039 -0.1727 -0.7658 -0.1237
  101OSM   H12A10123   5.115   0.611  11.132  1.9273  0.3549  0.8949
  101OSM   H12B10124   5.272   0.586  11.060 -0.7591 -1.1129  3.1946
  101OSM    C1110125   5.142   0.454  10.987  0.3298  0.1319 -0.3597
  101OSM   H11A10126   5.199   0.382  11.049 -0.4524 -0.2237 -0.0451
  101OSM   H11B10127   5.181   0.450  10.883  0.3448  2.6124 -0.5293
  101OSM      P10128   4.937   0.287  10.988 -0.1137 -0.0386  0.1094
  101OSM    O1310129   4.988   0.180  11.070  0.3318  0.0950  0.5239
  101OSM    O1410130   4.790   0.312  10.980 -0.0850 -0.4277  0.0002
  101OSM    O1110131   4.988   0.263  10.838 -0.6706 -0.2453  0.5215
  101OSM    O1210132   5.012   0.414  11.024  0.8437 -0.3756  0.1043
  101OSM    C1S10133   4.972   0.354  10.732 -0.2320 -0.0940 -0.6487
  101OSM    H1S10134   5.022   0.454  10.736 -1.0566  0.3454 -1.0021
  101OSM    H1T10135   4.866   0.382  10.710 -1.0108 -2.5419 -0.2802
  101OSM     NF10136   5.030   0.384  10.504 -0.0409  0.0120  0.3826
  101OSM    HNF10137   4.978   0.377  10.419 -1.9198 -1.1298  1.5565
  101OSM    C2S10138   5.023   0.282  10.604  0.3143 -0.0556  0.7274
  101OSM    H2S10139   5.124   0.246  10.633  1.8078  2.6119 -0.8021
  101OSM    C3S10140   4.935   0.149  10.566 -0.0725  0.2074  0.4169
  101OSM    H3S10141   4.835   0.186  10.538  0.9297  1.7874 -1.2705
  101OSM     O310142   4.917   0.058  10.675 -0.2275  0.3624 -0.3162
  101OSM    HO310143   4.961   0.104  10.747  0.4556 -0.3418 -0.2738
  101OSM    C4S10144   4.999   0.071  10.456  0.7430 -0.3001 -0.1376
  101OSM    H4S10145   5.105   0.058  10.482  0.4843 -1.6239  0.3760
  101OSM    C5S10146   4.938   0.017  10.353  0.0172 -0.6109  0.1263
  101OSM    H5S10147   4.831   0.041  10.349  0.4044  1.5392  1.2730
  101OSM    C6S10148   5.003  -0.076  10.249  0.7479 -0.2509 -0.2605
  101OSM    H6S10149   4.946  -0.170  10.230  1.4087 -0.3502 -1.8870
  101OSM    H6T10150   5.105  -0.104  10.284  0.3792 -1.5120 -0.1448
  101OSM    C7S10151   5.010  -0.019  10.112 -0.1121  0.1122 -0.2450
  101OSM    H7S10152   5.066  -0.092  10.049  0.0443 -0.5531  0.6458
  101OSM    H7T10153   5.071   0.074  10.118 -1.0210  0.7659 -0.8918
  101OSM    C8S10154   4.878   0.004  10.049  0.2382  0.2806  0.0251
  101OSM    H8S10155   4.822   0.080  10.109 -1.9183 -1.1047 -0.1057
  101OSM    H8T10156   4.817  -0.089  10.051  1.4033 -0.5497 -1.2952
  101OSM    C9S10157   4.884   0.072   9.912 -0.4595  0.1058 -0.1452
  101OSM    H9S10158   4.956   0.156   9.924 -2.0770  1.5404 -0.1651
  101OSM    H9T10159   4.787   0.114   9.878 -0.1203  1.3789  0.4170
  101OSM   C10S10160   4.933  -0.019   9.802  0.3859 -0.1411 -0.0051
  101OSM   H10S10161   4.870  -0.110   9.792 -2.5094  1.4023  2.6198
  101OSM   H10T10162   5.040  -0.048   9.800  0.8357  1.3811 -2.6089
  101OSM   C11S10163   4.936   0.062   9.675  0.4517 -0.4968  0.0932
  101OSM   H11S10164   5.022   0.132   9.668  1.4073 -1.4383  1.9353
  101OSM   H11T10165   4.836   0.108   9.658  1.4471  0.2882 -5.6681
  101OSM   C12S10166   4.930  -0.027   9.547  0.9375  0.2967 -0.4633
  101OSM   H12S10167   4.842  -0.094   9.550  0.8679  0.1002 -3.6630
  101OSM   H12T10168   5.021  -0.090   9.539  0.5398 -0.8290  2.6375
  101OSM   C13S10169   4.920   0.054   9.410  0.0695  0.3693  0.0987
  101OSM   H13S10170   5.018   0.096   9.378 -1.0456  1.4344 -2.1323
  101OSM   H13T10171   4.842   0.132   9.423 -1.7374 -1.1734 -1.0172
  101OSM   C14S10172   4.859  -0.032   9.302 -0.1016 -0.0166 -0.0067
  101OSM   H14S10173   4.750  -0.033   9.325  0.2009 -0.4739  1.4993
  101OSM   H14T10174   4.900  -0.135   9.316 -5.3155 -2.0266  3.9390
  101OSM   C15S10175   4.872   0.030   9.156  0.5662  0.1912 -0.1276
  101OSM   H15S10176   4.815  -0.032   9.083 -1.1799  0.7005  0.7507
  101OSM   H15T10177   4.979   0.034   9.127  0.7674 -1.1983  0.3079
  101OSM   C16S10178   4.815   0.177   9.145 -0.5189 -0.2926 -0.3242
  101OSM   H16S10179   4.891   0.255   9.165 -0.6787  0.4020 -2.1597
  101OSM   H16T10180   4.740   0.181   9.226 -1.1797 -0.5731 -0.9107
  101OSM   C17S10181   4.753   0.206   9.007 -0.0450  0.2280 -0.5422
  101OSM   H17S10182   4.708   0.308   9.006  0.5135  0.5280  1.3281
  101OSM   H17T10183   4.671   0.135   8.985 -0.8553  0.5748  1.1596
  101OSM   C18S10184   4.869   0.204   8.903 -0.2708 -0.5037  0.3866
  101OSM   H18S10185   4.935   0.292   8.912 -0.9156  0.0246  0.0232
  101OSM   H18T10186   4.817   0.219   8.806 -0.3034  0.3324  0.5269
  101OSM   H18U10187   4.926   0.108   8.904 -0.7637 -0.8066  0.0611
  101OSM    C1F10188   5.113   0.490  10.507 -0.2811 -0.4054 -0.2639
  101OSM     OF10189   5.204   0.490  10.586 -0.3538 -0.3661  0.4382
  101OSM    C2F10190   5.085   0.602  10.407  0.6672  0.3751 -0.1711
  101OSM    H2F10191   5.130   0.696  10.446  0.8198 -0.6121  2.2275
  101OSM    H2G10192   4.975   0.601  10.392  0.4939  0.1166  0.9769
  101OSM    C3F10193   5.150   0.569  10.275 -0.6025 -0.2082  0.7367
  101OSM    H3F10194   5.258   0.550  10.289 -0.5210  1.2253  2.2779
  101OSM    H3G10195   5.143   0.663  10.216 -2.1653  0.0838  1.3416
  101OSM    C4F10196   5.086   0.458  10.188 -0.1019 -0.4305 -0.5264
  101OSM    H4F10197   4.977   0.478  10.180 -0.5838 -2.9586 -1.0121
  101OSM    H4G10198   5.088   0.368  10.253 -0.9837  0.1511  0.3308
  101OSM    C5F10199   5.156   0.444  10.048  0.3502  0.0766  0.0211
  101OSM    H5F10200   5.107   0.365   9.987 -2.0476  0.5810  1.1526
  101OSM    H5G10201   5.262   0.418  10.067  0.2087  0.9206  2.2491
  101OSM    C6F10202   5.159   0.569   9.966  1.4334 -0.1049 -0.2004
  101OSM    H6F10203   5.059   0.614   9.950 -0.1077 -2.3649  2.1124
  101OSM    H6G10204   5.227   0.642  10.014  0.3525  0.2407  0.8395
  101OSM    C7F10205   5.232   0.538   9.831 -0.0042 -0.7182  0.5658
  101OSM    H7F10206   5.178   0.464   9.768 -0.4650  0.6113 -0.6656
  101OSM    H7G10207   5.336   0.509   9.853 -0.4243 -0.6500  2.8925
  101OSM    C8F10208   5.247   0.670   9.752  0.2770  0.4171  0.4345
  101OSM    H8F10209   5.291   0.752   9.812 -0.0824  0.8402  0.1206
  101OSM    H8G10210   5.147   0.713   9.730  1.8025  2.6073 -3.0787
  101OSM    C9F10211   5.314   0.639   9.624  0.2167 -0.1835  0.4788
  101OSM    H9F10212   5.264   0.581   9.546  1.7515  1.8998 -2.2354
  101OSM   C10F10213   5.444   0.660   9.598  0.5971 -0.2253 -0.2010
  101OSM   H10F10214   5.480   0.645   9.495  1.0450 -1.0829  0.0713
  101OSM   C11F10215   5.542   0.738   9.684 -0.3737  0.5757  0.2814
  101OSM   H11F10216   5.626   0.666   9.700  1.5067  2.7256  0.4946
  101OSM   H11G10217   5.513   0.766   9.788 -0.9305  1.8262 -0.1904
  101OSM   C12F10218   5.601   0.862   9.613 -0.1458 -0.6223 -0.3441
  101OSM   H12F10219   5.537   0.952   9.625  1.9250  0.9728 -0.8086
  101OSM   H12G10220   5.610   0.835   9.506  2.1911 -0.2271 -0.2896
  101OSM   C13F10221   5.744   0.898   9.666  0.1507  0.2842  0.0815
  101OSM   H13F10222   5.820   0.821   9.641 -0.8261 -0.8159  0.4492
  101OSM   H13G10223   5.755   0.892   9.777  1.8407  1.3441  0.0269
  101OSM   C14F10224   5.797   1.034   9.629  0.2403 -0.3067 -0.0433
  101OSM   H14F10225   5.901   1.046   9.665  0.3125 -2.0491  0.4159
  101OSM   H14G10226   5.732   1.108   9.681  2.3912  0.7381  1.3154
  101OSM   C15F10227   5.783   1.065   9.474 -0.4761  0.9722  0.5959
  101OSM   H15F10228   5.676   1.053   9.449 -0.1278  3.1692 -2.5711
  101OSM   H15G10229   5.840   0.990   9.416 -0.9114  2.1052 -1.3878
  101OSM   C16F10230   5.813   1.212   9.444  0.7832  0.0741 -0.3108
  101OSM   H16F10231   5.921   1.237   9.458  0.8754  0.5781 -1.8428
  101OSM   H16G10232   5.762   1.273   9.521  0.4560  0.8905 -1.1686
  101OSM   C17F10233   5.777   1.248   9.293  0.2211  0.1229  0.0981
  101OSM   H17F10234   5.668   1.242   9.275  0.3327  1.5990 -1.3660
  101OSM   H17G10235   5.841   1.176   9.237  2.7095  2.3595 -0.1772
  101OSM   C18F10236   5.830   1.390   9.256 -0.0503  0.7911 -0.4657
  101OSM   H18F10237   5.789   1.472   9.320  0.3645 -0.3581  1.3390
  101OSM   H18G10238   5.797   1.426   9.156 -1.2122  1.9984  0.3159
  101OSM   H18H10239   5.941   1.398   9.258  0.1212 -1.3530 -0.0272
  102OSM      N10240   6.201   3.141  10.926 -0.1936  0.0509  0.2768
  102OSM    C1510241   6.324   3.156  11.015 -0.5900 -0.8061  0.5238
  102OSM   H15A10242   6.389   3.224  10.964 -0.2469 -1.3543  0.2294
  102OSM   H15B10243   6.366   3.058  11.032 -0.6756 -1.0852 -0.8195
  102OSM   H15C10244   6.299   3.198  11.112 -2.1104 -0.2988 -0.0473
  102OSM    C1410245   6.110   3.044  10.985 -1.1138 -0.4047 -0.7316
  102OSM   H14A10246   6.021   3.029  10.927 -0.4350 -0.8076 -1.6807
  102OSM   H14B10247   6.076   3.083  11.080 -1.6415 -0.6689 -0.8112
  102OSM   H14C10248   6.169   2.954  10.987  0.1379  0.3881  0.5974
  102OSM    C1310249   6.128   3.272  10.922 -0.0217  0.9531  0.0430
  102OSM   H13A10250   6.115   3.309  11.023  1.4601 -0.6247  0.8616
  102OSM   H13B10251   6.034   3.272  10.869  1.2229  0.7087 -2.2548
  102OSM   H13C10252   6.193   3.345  10.877  1.1170 -0.8457 -1.3554
  102OSM    C1210253   6.232   3.101  10.783 -0.3726  0.0895 -0.1833
  102OSM   H12A10254   6.135   3.110  10.736 -0.5523 -1.1786 -0.1009
  102OSM   H12B10255   6.263   2.997  10.783  2.3665  0.8089 -0.8873
  102OSM    C1110256   6.346   3.171  10.708 -0.4447  0.0283 -0.2820
  102OSM   H11A10257   6.341   3.281  10.724 -1.5483  0.0467 -0.7009
  102OSM   H11B10258   6.334   3.155  10.598 -0.0767  0.8121 -0.4467
  102OSM      P10259   6.527   2.993  10.729  0.0893 -0.2158 -0.2438
  102OSM    O1310260   6.664   2.985  10.795  0.4809  0.4798  0.8305
  102OSM    O1410261   6.426   2.893  10.771  0.4321 -0.2309  0.3420
  102OSM    O1110262   6.542   2.990  10.576  0.0595  0.3827  0.2325
  102OSM    O1210263   6.476   3.136  10.757  0.5061 -0.6112  0.0307
  102OSM    C1S10264   6.616   3.086  10.499  0.4422  0.1313  0.0311
  102OSM    H1S10265   6.721   3.083  10.535  0.2583 -2.8514  0.5657
  102OSM    H1T10266   6.572   3.187  10.513 -1.7059 -0.6371 -0.7440
  102OSM     NF10267   6.729   3.132  10.289 -0.4473 -0.4954 -0.0007
  102OSM    HNF10268   6.720   3.222  10.248 -0.1708 -1.4040 -2.1854
  102OSM    C2S10269   6.614   3.058  10.351  0.0719 -0.2534  0.4671
  102OSM    H2S10270   6.638   2.950  10.345 -1.3472 -0.5197 -1.2583
  102OSM    C3S10271   6.476   3.094  10.292  0.6039 -0.1287  0.5262
  102OSM    H3S10272   6.457   3.201  10.315  2.1623  0.0141  1.2407
  102OSM     O310273   6.372   3.037  10.373  0.8151  0.2408 -0.5766
  102OSM    HO310274   6.419   2.994  10.446 -2.7539  0.0827  1.9026
  102OSM    C4S10275   6.464   3.071  10.144 -0.4369 -0.0072 -0.3116
  102OSM    H4S10276   6.492   3.166  10.095  1.6577  0.4472  1.6145
  102OSM    C5S10277   6.427   2.963  10.075  0.3182  0.1334 -0.1739
  102OSM    H5S10278   6.384   2.884  10.138 -1.3261 -0.4182 -1.8939
  102OSM    C6S10279   6.406   2.949   9.925  0.1836 -0.3786 -0.4503
  102OSM    H6S10280   6.303   2.921   9.895 -1.0027  2.0673  1.0810
  102OSM    H6T10281   6.472   2.866   9.889  0.3220 -0.8233  0.7923
  102OSM    C7S10282   6.422   3.073   9.838 -0.4556 -0.1900 -0.2843
  102OSM    H7S10283   6.521   3.122   9.853  0.4862 -2.3688  1.1023
  102OSM    H7T10284   6.331   3.137   9.843 -1.6855 -1.9436  0.6116
  102OSM    C8S10285   6.417   3.033   9.687  0.1391  0.2024 -0.6220
  102OSM    H8S10286   6.311   3.004   9.668 -0.6390  2.1422  0.4287
  102OSM    H8T10287   6.475   2.940   9.671 -0.9262 -0.7117  0.6169
  102OSM    C9S10288   6.460   3.155   9.601  0.6419 -0.0451 -0.2275
  102OSM    H9S10289   6.569   3.169   9.616  0.6708  0.3355 -0.7822
  102OSM    H9T10290   6.401   3.246   9.627 -1.5972 -0.1160 -4.2739
  102OSM   C10S10291   6.439   3.136   9.448 -0.2872 -0.2277 -0.1666
  102OSM   H10S10292   6.333   3.132   9.415 -0.2396 -2.1888 -0.1995
  102OSM   H10T10293   6.486   3.037   9.430  0.4988  0.0553  0.2592
  102OSM   C11S10294   6.515   3.243   9.367 -0.2142  0.4545  0.0890
  102OSM   H11S10295   6.615   3.264   9.411 -0.7408 -1.0561  2.1972
  102OSM   H11T10296   6.468   3.343   9.373 -1.9670 -0.2754 -0.9935
  102OSM   C12S10297   6.524   3.204   9.219 -0.1739 -0.2837  0.3322
  102OSM   H12S10298   6.423   3.194   9.173 -0.2939 -0.1544  0.5675
  102OSM   H12T10299   6.573   3.105   9.207 -1.3720 -0.7379 -1.4366
  102OSM   C13S10300   6.589   3.318   9.148  0.6344  0.1909 -0.1729
  102OSM   H13S10301   6.693   3.322   9.188  0.1475  2.7680  1.0285
  102OSM   H13T10302   6.539   3.413   9.174 -0.5529 -0.4029 -0.2128
  102OSM   C14S10303   6.589   3.300   8.992 -0.0775  0.0319  0.2788
  102OSM   H14S10304   6.492   3.273   8.944  0.2929 -0.6552 -0.0961
  102OSM   H14T10305   6.649   3.209   8.970  0.6456  0.1052  1.7945
  102OSM   C15S10306   6.638   3.418   8.918 -0.6210 -0.1129 -0.1101
  102OSM   H15S10307   6.747   3.423   8.939 -0.9695  0.8996  1.7311
  102OSM   H15T10308   6.601   3.513   8.961 -0.8107 -0.2075 -0.0636
  102OSM   C16S10309   6.606   3.414   8.767 -0.4817  0.5029 -0.4109
  102OSM   H16S10310   6.503   3.450   8.745 -1.0615 -0.5101  0.5164
  102OSM   H16T10311   6.606   3.308   8.734 -2.2884  1.0158 -2.2941
  102OSM   C17S10312   6.716   3.483   8.683  0.1661  0.6773  0.1686
  102OSM   H17S10313   6.700   3.452   8.577 -1.6149  1.3755  0.2027
  102OSM   H17T10314   6.820   3.456   8.714  0.4792  0.9719 -0.5925
  102OSM   C18S10315   6.700   3.636   8.694 -0.2764  0.4919  0.5003
  102OSM   H18S10316   6.725   3.664   8.799  4.7510  0.4078 -0.4642
  102OSM   H18T10317   6.593   3.664   8.677 -1.2179 -2.2010  1.4110
  102OSM   H18U10318   6.770   3.693   8.630  0.5308 -1.3271 -0.3095
  102OSM    C1F10319   6.854   3.089  10.289  0.1539 -0.2280 -0.5405
  102OSM     OF10320   6.878   2.989  10.350 -0.3181  0.2038  0.2631
  102OSM    C2F10321   6.955   3.183  10.245  0.5676  0.3692  0.5249
  102OSM    H2F10322   7.032   3.187  10.325  0.0041 -0.6866  1.1414
  102OSM    H2G10323   6.915   3.287  10.243 -0.4080  0.0019  0.6370
  102OSM    C3F10324   7.015   3.135  10.111 -0.0554 -0.0542  0.2211
  102OSM    H3F10325   6.936   3.147  10.034  0.8871  1.4666 -0.5366
  102OSM    H3G10326   7.040   3.026  10.114  3.5473  0.6090 -1.1366
  102OSM    C4F10327   7.138   3.211  10.075 -0.5744  0.1780  0.0256
  102OSM    H4F10328   7.220   3.204  10.150  1.9690  0.3439 -2.5629
  102OSM    H4G10329   7.106   3.317  10.073 -0.2261  0.2843 -0.0310
  102OSM    C5F10330   7.193   3.178   9.937 -0.2269  0.3568 -0.3833
  102OSM    H5F10331   7.118   3.184   9.855  0.9985 -0.7135 -1.6324
  102OSM    H5G10332   7.231   3.074   9.926 -1.7146 -0.4317  1.3363
  102OSM    C6F10333   7.307   3.277   9.895 -0.2315  0.6184  0.6717
  102OSM    H6F10334   7.399   3.262   9.956  0.5467  0.9324 -0.3731
  102OSM    H6G10335   7.277   3.383   9.907  3.1413  1.7908 -0.0499
  102OSM    C7F10336   7.356   3.258   9.747 -0.0049 -0.8174 -0.1548
  102OSM    H7F10337   7.275   3.296   9.681 -0.8557 -1.6217  0.4042
  102OSM    H7G10338   7.372   3.150   9.726  1.2885 -0.9169  1.2180
  102OSM    C8F10339   7.484   3.333   9.711 -0.6004  0.6303  0.6193
  102OSM    H8F10340   7.556   3.248   9.717 -1.8308 -0.5273 -0.4053
  102OSM    H8G10341   7.508   3.409   9.788  1.2880  0.4551  0.2579
  102OSM    C9F10342   7.480   3.391   9.570 -0.0224  1.0861  0.2113
  102OSM    H9F10343   7.480   3.500   9.581 -1.3714  1.1708 -0.4177
  102OSM   C10F10344   7.487   3.337   9.447  0.9188 -0.2346 -0.2823
  102OSM   H10F10345   7.480   3.406   9.361 -2.0532  0.6920  0.5663
  102OSM   C11F10346   7.499   3.189   9.418 -0.1116 -0.3853  0.7571
  102OSM   H11F10347   7.396   3.165   9.384  1.0260 -1.3976 -2.3729
  102OSM   H11G10348   7.521   3.131   9.510 -2.4007 -2.2645  0.2181
  102OSM   C12F10349   7.594   3.146   9.294  1.0443 -0.0523 -0.6009
  102OSM   H12F10350   7.596   3.035   9.300  0.9878 -0.0967 -1.3068
  102OSM   H12G10351   7.688   3.204   9.309  0.3530  0.7322  0.8671
  102OSM   C13F10352   7.546   3.193   9.154 -0.0827  0.1044 -0.1298
  102OSM   H13F10353   7.513   3.298   9.153  0.0064  0.1455 -1.5584
  102OSM   H13G10354   7.465   3.123   9.125 -1.2464  0.6082  1.7138
  102OSM   C14F10355   7.658   3.179   9.045  0.6956  0.0075 -0.7816
  102OSM   H14F10356   7.714   3.084   9.056  2.2697  1.0080  0.2792
  102OSM   H14G10357   7.728   3.263   9.063 -2.1825  2.3314  0.5583
  102OSM   C15F10358   7.623   3.191   8.899  0.0090  0.7004  0.4217
  102OSM   H15F10359   7.612   3.296   8.864 -1.0154 -0.1813 -2.0805
  102OSM   H15G10360   7.536   3.123   8.888  0.1592  0.5804 -0.0300
  102OSM   C16F10361   7.743   3.130   8.825  0.4578  0.0997 -0.6358
  102OSM   H16F10362   7.718   3.125   8.717 -3.0482 -3.2112  0.1331
  102OSM   H16G10363   7.757   3.029   8.868  2.8247  1.0729  1.1548
  102OSM   C17F10364   7.880   3.207   8.839  0.3468 -0.1835  0.2782
  102OSM   H17F10365   7.923   3.198   8.941  1.8592 -0.6674 -0.3865
  102OSM   H17G10366   7.866   3.317   8.830  0.4126 -0.2956 -1.4169
  102OSM   C18F10367   7.984   3.168   8.738 -0.0472  0.5594  0.6518
  102OSM   H18F10368   7.949   3.171   8.633  1.2245  0.6608  0.2114
  102OSM   H18G10369   8.027   3.067   8.756 -1.8920  0.0123  2.3180
  102OSM   H18H10370   8.070   3.236   8.759  0.3890 -0.3197  1.8967
  103OSM      N10371   3.908   5.465  11.055  0.6638 -0.3473  0.3375
  103OSM    C1510372   3.964   5.390  10.933  0.2433 -0.1590 -0.2978
  103OSM   H15A10373   3.996   5.290  10.958  0.4770  0.0502  0.2735
  103OSM   H15B10374   4.049   5.440  10.889  1.5688 -2.3665 -0.3594
  103OSM   H15C10375   3.895   5.383  10.851  0.8641  1.5115 -1.0175
  103OSM    C1410376   4.028   5.503  11.134 -0.1511 -0.3742  0.2388
  103OSM   H14A10377   4.008   5.542  11.232 -1.2815 -0.7376  0.1687
  103OSM   H14B10378   4.076   5.584  11.082 -1.1741  0.0836  0.0017
  103OSM   H14C10379   4.103   5.425  11.133 -0.0981 -0.3462  1.1213
  103OSM    C1310380   3.847   5.596  11.011  0.0882  0.1969  0.5526
  103OSM   H13A10381   3.812   5.663  11.089 -1.3251 -1.8334  1.7551
  103OSM   H13B10382   3.761   5.575  10.949  0.8951 -2.6609  0.2567
  103OSM   H13C10383   3.919   5.650  10.952  0.9042 -0.6556  0.7517
  103OSM    C1210384   3.827   5.370  11.134  0.2637 -1.1186 -0.2057
  103OSM   H12A10385   3.790   5.432  11.214  1.8329  0.1249 -0.3971
  103OSM   H12B10386   3.894   5.292  11.167 -1.6977 -2.1420  1.6789
  103OSM    C1110387   3.712   5.298  11.060  0.0503  0.4759 -0.1085
  103OSM   H11A10388   3.672   5.373  10.988 -2.0224  1.9365  2.4141
  103OSM   H11B10389   3.633   5.272  11.134  0.4077 -1.2049 -0.2784
  103OSM      P10390   3.666   5.066  10.941 -0.4190  0.1986  0.5221
  103OSM    O1310391   3.737   4.935  10.931  0.0185  0.1895  0.3672
  103OSM    O1410392   3.540   5.081  11.018 -0.3537 -0.1638  0.2103
  103OSM    O1110393   3.621   5.101  10.794 -0.3713 -0.7209  0.9334
  103OSM    O1210394   3.764   5.185  10.985 -0.2856  0.0999  0.4731
  103OSM    C1S10395   3.700   5.191  10.720  0.7355  0.3093  0.5233
  103OSM    H1S10396   3.810   5.178  10.728  0.7151 -1.4338 -1.3007
  103OSM    H1T10397   3.687   5.299  10.745 -0.0965  0.4071 -0.2646
  103OSM     NF10398   3.730   5.276  10.501 -0.0296  0.3074 -0.0765
  103OSM    HNF10399   3.669   5.355  10.511  0.4974  0.7147 -0.0802
  103OSM    C2S10400   3.684   5.157  10.565 -0.4047 -0.4135  0.3293
  103OSM    H2S10401   3.751   5.071  10.541  0.3064 -0.2600  1.6774
  103OSM    C3S10402   3.543   5.110  10.523  0.5111 -0.6792 -0.2719
  103OSM    H3S10403   3.466   5.176  10.568 -0.4950 -0.5149 -2.1258
  103OSM     O310404   3.519   4.980  10.569 -0.1872  0.0293  0.1886
  103OSM    HO310405   3.576   4.972  10.646  0.1677 -0.0669 -0.0829
  103OSM    C4S10406   3.537   5.110  10.371  0.5878  0.6345 -0.1279
  103OSM    H4S10407   3.601   5.049  10.306 -0.2594  0.4416 -0.7893
  103OSM    C5S10408   3.463   5.202  10.309  0.4059 -0.1562  0.1102
  103OSM    H5S10409   3.415   5.287  10.360  0.7730 -0.4985  1.0579
  103OSM    C6S10410   3.458   5.223  10.153  0.5846 -0.4651  0.1992
  103OSM    H6S10411   3.504   5.318  10.118 -1.1385  0.3095 -0.0613
  103OSM    H6T10412   3.352   5.248  10.133  0.7968 -0.3076 -0.7490
  103OSM    C7S10413   3.503   5.111  10.058 -0.0728 -0.3231 -0.6625
  103OSM    H7S10414   3.428   5.028  10.058  0.5378 -0.8874 -1.1453
  103OSM    H7T10415   3.598   5.064  10.091 -0.4620  0.6079  2.0688
  103OSM    C8S10416   3.535   5.159   9.920  0.1334  0.0964 -0.0219
  103OSM    H8S10417   3.598   5.084   9.867  0.7398 -1.1438  2.3072
  103OSM    H8T10418   3.584   5.259   9.925 -1.8018  1.1163 -0.4591
  103OSM    C9S10419   3.405   5.189   9.841  0.0770 -0.2927 -0.2271
  103OSM    H9S10420   3.330   5.241   9.905  0.0797  0.3258 -0.7085
  103OSM    H9T10421   3.350   5.096   9.816  0.6898 -0.8595  0.5381
  103OSM   C10S10422   3.428   5.263   9.710 -0.2427 -1.0847 -0.2982
  103OSM   H10S10423   3.494   5.349   9.737 -1.1541  0.6647 -3.1087
  103OSM   H10T10424   3.333   5.308   9.675  0.4533  0.0458 -0.8044
  103OSM   C11S10425   3.472   5.173   9.611 -1.3900 -0.1832  0.2830
  103OSM   H11S10426   3.412   5.080   9.604  2.3820 -2.7504 -0.8320
  103OSM   H11T10427   3.575   5.136   9.631 -1.1179  0.4644  0.1028
  103OSM   C12S10428   3.484   5.241   9.475 -0.5663 -0.8874  0.3585
  103OSM   H12S10429   3.572   5.309   9.465 -2.0342  1.3120  1.4983
  103OSM   H12T10430   3.399   5.312   9.463  1.0658  1.0220 -0.5872
  103OSM   C13S10431   3.486   5.132   9.360 -0.4373  0.6799  0.1955
  103OSM   H13S10432   3.388   5.080   9.354  1.0669 -2.2935 -0.5208
  103OSM   H13T10433   3.558   5.054   9.392 -1.8752 -0.1324  1.5842
  103OSM   C14S10434   3.532   5.199   9.231 -0.4456 -0.2393  0.0130
  103OSM   H14S10435   3.637   5.234   9.242  0.2142 -2.2117  0.4260
  103OSM   H14T10436   3.473   5.291   9.213  0.7227  0.2881 -1.3920
  103OSM   C15S10437   3.523   5.110   9.105 -0.1374  0.1129  0.6586
  103OSM   H15S10438   3.416   5.089   9.087 -1.0516  3.1646  1.9898
  103OSM   H15T10439   3.568   5.012   9.129 -0.0704  0.2512  1.1072
  103OSM   C16S10440   3.594   5.176   8.976  0.0809  0.2797  0.4527
  103OSM   H16S10441   3.696   5.195   9.016 -0.0558  0.2552  0.8187
  103OSM   H16T10442   3.534   5.263   8.943  0.2961  0.4553  0.5186
  103OSM   C17S10443   3.610   5.077   8.850 -0.2744 -0.2386  0.5598
  103OSM   H17S10444   3.657   5.123   8.760  0.1110  0.2167  0.9903
  103OSM   H17T10445   3.501   5.063   8.830 -0.6345  0.4610  1.9057
  103OSM   C18S10446   3.657   4.930   8.880 -0.8488 -0.1357 -0.0084
  103OSM   H18S10447   3.702   4.891   8.785  1.1432 -0.3042  0.9590
  103OSM   H18T10448   3.587   4.866   8.937 -0.7730  1.7775  2.3550
  103OSM   H18U10449   3.752   4.945   8.936  0.4232  1.1573 -2.3273
  103OSM    C1F10450   3.855   5.313  10.495  1.1667 -0.6666 -1.0663
  103OSM     OF10451   3.941   5.236  10.527  0.1627  0.1602 -0.5118
  103OSM    C2F10452   3.875   5.460  10.456 -0.1893 -0.3177  0.2490
  103OSM    H2F10453   3.957   5.458  10.381 -1.5245 -3.2812 -1.3294
  103OSM    H2G10454   3.912   5.521  10.541 -1.0435  0.5041  0.0390
  103OSM    C3F10455   3.751   5.539  10.409 -0.2885 -0.5780 -0.3268
  103OSM    H3F10456   3.792   5.642  10.400 -1.2272 -0.3768 -3.4882
  103OSM    H3G10457   3.670   5.548  10.484 -0.4441 -1.3410 -0.3948
  103OSM    C4F10458   3.704   5.509  10.267  0.5463  0.3856  0.3709
  103OSM    H4F10459   3.602   5.552  10.258 -0.0694 -1.2940 -1.2571
  103OSM    H4G10460   3.699   5.400  10.248  0.5048  0.2979  0.8811
  103OSM    C5F10461   3.796   5.583  10.167 -0.2032 -0.2381 -0.0546
  103OSM    H5F10462   3.900   5.545  10.174 -0.9646 -2.5118 -0.2760
  103OSM    H5G10463   3.793   5.688  10.203 -1.1039  0.1156 -1.0996
  103OSM    C6F10464   3.763   5.591  10.024  0.1476  0.2147  1.0677
  103OSM    H6F10465   3.753   5.486   9.990  1.6498 -0.0455  1.3750
  103OSM    H6G10466   3.844   5.642   9.967  1.2979 -1.0149  1.5431
  103OSM    C7F10467   3.624   5.665   9.992  0.4888  0.2045  0.9316
  103OSM    H7F10468   3.636   5.768  10.031 -0.8637  0.5492  0.5063
  103OSM    H7G10469   3.536   5.621  10.045 -0.1872  0.2144 -0.1437
  103OSM    C8F10470   3.586   5.677   9.840 -0.0915 -0.3115 -0.1431
  103OSM    H8F10471   3.495   5.740   9.844  1.6899  2.3895 -0.2075
  103OSM    H8G10472   3.572   5.575   9.796 -0.9747 -0.3673  0.2346
  103OSM    C9F10473   3.693   5.753   9.770  0.7215  0.1699 -0.2588
  103OSM    H9F10474   3.757   5.806   9.841  1.0619 -0.1761 -0.3074
  103OSM   C10F10475   3.717   5.763   9.640 -0.1879 -0.2697 -0.6039
  103OSM   H10F10476   3.801   5.828   9.611 -0.3742  0.0682 -0.3959
  103OSM   C11F10477   3.644   5.694   9.525  0.0480  0.4014  0.4596
  103OSM   H11F10478   3.555   5.756   9.501 -2.0791 -0.7174  4.5859
  103OSM   H11G10479   3.613   5.592   9.556 -1.1880  0.7852  0.5068
  103OSM   C12F10480   3.735   5.686   9.394 -0.0564  0.2530  0.1450
  103OSM   H12F10481   3.841   5.654   9.404 -0.4287 -2.0884 -2.2578
  103OSM   H12G10482   3.737   5.785   9.343  2.0910 -0.6792 -1.7806
  103OSM   C13F10483   3.666   5.607   9.283  0.0566  0.0865 -0.3295
  103OSM   H13F10484   3.567   5.650   9.259  0.1349  0.0497 -0.7259
  103OSM   H13G10485   3.645   5.499   9.298 -1.6555  0.1028 -2.3014
  103OSM   C14F10486   3.746   5.599   9.154 -0.3177 -0.0873  0.3443
  103OSM   H14F10487   3.850   5.573   9.184  0.5567  1.7892 -0.8940
  103OSM   H14G10488   3.755   5.700   9.109  0.2086 -0.2049  0.1824
  103OSM   C15F10489   3.692   5.511   9.041  0.5928 -0.1160 -0.2099
  103OSM   H15F10490   3.582   5.520   9.044  0.3142 -2.5880  2.5619
  103OSM   H15G10491   3.710   5.405   9.070  0.3493  0.1967  1.1466
  103OSM   C16F10492   3.756   5.538   8.903  0.8142 -0.4852 -0.0120
  103OSM   H16F10493   3.867   5.531   8.904  0.8356 -0.2514  0.8718
  103OSM   H16G10494   3.723   5.640   8.876  1.6820 -0.1134  0.2731
  103OSM   C17F10495   3.691   5.437   8.805  0.1312 -1.1354 -0.2602
  103OSM   H17F10496   3.588   5.404   8.831 -0.3196  0.7976  0.5709
  103OSM   H17G10497   3.755   5.347   8.803  0.9031 -0.7557  2.5781
  103OSM   C18F10498   3.690   5.495   8.659  0.1268  0.4195  0.2722
  103OSM   H18F10499   3.629   5.429   8.593  1.8371 -0.5683 -0.3987
  103OSM   H18G10500   3.787   5.511   8.609 -0.0120  0.5014  0.0262
  103OSM   H18H10501   3.643   5.594   8.677  2.2427  1.1667  2.1023
  104OSM      N10502   0.198   6.626  10.850 -0.7334 -0.3238  0.1528
  104OSM    C1510503   0.206   6.772  10.833  0.0819  0.0220  0.0127
  104OSM   H15A10504   0.302   6.799  10.791  0.5005 -0.7686  0.4424
  104OSM   H15B10505   0.208   6.814  10.933 -2.3645 -1.8587  0.9544
  104OSM   H15C10506   0.133   6.814  10.766 -0.6628 -2.0990 -0.5595
  104OSM    C1410507   0.174   6.564  10.716 -0.4595 -0.0530 -0.3517
  104OSM   H14A10508   0.187   6.457  10.708  0.8039 -0.0418  1.1323
  104OSM   H14B10509   0.220   6.622  10.638 -0.0455 -0.3379 -0.3267
  104OSM   H14C10510   0.071   6.581  10.687 -0.1026 -1.2365 -2.5258
  104OSM    C1310511   0.320   6.574  10.907  0.1336  0.5445  0.5011
  104OSM   H13A10512   0.318   6.590  11.013 -4.8045 -2.5713  1.2163
  104OSM   H13B10513   0.412   6.611  10.863  0.9139 -2.0531 -0.2599
  104OSM   H13C10514   0.321   6.468  10.887 -0.7624  0.4948  0.6701
  104OSM    C1210515   0.081   6.596  10.940 -0.0388  0.2254  0.0309
  104OSM   H12A10516   0.105   6.633  11.038 -0.0336  1.7664 -0.5337
  104OSM   H12B10517   0.073   6.488  10.949 -3.1418  0.4328  0.9108
  104OSM    C1110518  -0.064   6.646  10.909 -0.5280  0.2178  0.2747
  104OSM   H11A10519  -0.077   6.755  10.894 -1.1259 -0.0383 -1.2735
  104OSM   H11B10520  -0.132   6.622  10.994  0.1451 -1.9352  0.2785
  104OSM      P10521  -0.169   6.451  10.779 -0.1352 -0.4021 -0.0809
  104OSM    O1310522  -0.066   6.357  10.828 -0.3874  0.5659 -0.1815
  104OSM    O1410523  -0.298   6.454  10.845 -0.1034 -0.1730 -0.0039
  104OSM    O1110524  -0.192   6.419  10.623 -0.0187  0.7183  0.0221
  104OSM    O1210525  -0.118   6.602  10.786 -0.4439  0.2488  0.5584
  104OSM    C1S10526  -0.126   6.498  10.522  0.4428  0.0661 -0.7257
  104OSM    H1S10527  -0.024   6.458  10.502  0.4454 -0.8046  0.8623
  104OSM    H1T10528  -0.132   6.608  10.533  3.1939  0.0791  2.3242
  104OSM     NF10529  -0.124   6.539  10.280 -0.8423 -0.2560 -0.1039
  104OSM    HNF10530  -0.157   6.632  10.263 -1.6066 -0.0048  2.3435
  104OSM    C2S10531  -0.201   6.467  10.378 -0.1001  0.0905 -0.1732
  104OSM    H2S10532  -0.199   6.357  10.363  0.1777  0.0333  0.2492
  104OSM    C3S10533  -0.349   6.510  10.388 -0.3167 -0.0288  0.7080
  104OSM    H3S10534  -0.351   6.617  10.415  0.2801  0.4436 -1.0538
  104OSM     O310535  -0.422   6.451  10.502  0.6492 -0.0913 -0.1619
  104OSM    HO310536  -0.347   6.409  10.545  1.9565  1.8548 -0.3685
  104OSM    C4S10537  -0.423   6.487  10.261  0.2982 -0.2372 -0.2077
  104OSM    H4S10538  -0.401   6.567  10.188  0.5676 -0.4621 -0.3757
  104OSM    C5S10539  -0.520   6.391  10.235  0.1319 -0.0186 -0.3206
  104OSM    H5S10540  -0.557   6.329  10.318 -0.1103 -1.0431 -1.1718
  104OSM    C6S10541  -0.592   6.375  10.104  0.3264  0.9426 -0.1775
  104OSM    H6S10542  -0.702   6.366  10.112  0.0122  2.1713 -2.4327
  104OSM    H6T10543  -0.553   6.279  10.064  1.0248  0.6636  1.1277
  104OSM    C7S10544  -0.579   6.467   9.989 -0.3773 -1.0030 -0.2530
  104OSM    H7S10545  -0.471   6.483   9.969 -0.3227 -0.2331  0.6280
  104OSM    H7T10546  -0.616   6.570  10.004 -0.6928 -1.1617  0.0624
  104OSM    C8S10547  -0.646   6.406   9.859  0.3680  0.4488  0.6314
  104OSM    H8S10548  -0.757   6.403   9.870  0.3279  1.1284  0.4954
  104OSM    H8T10549  -0.608   6.305   9.835 -2.4907 -0.6752  0.4204
  104OSM    C9S10550  -0.611   6.500   9.747  0.4114 -0.0560  0.6843
  104OSM    H9S10551  -0.504   6.530   9.757  0.4536  0.1702 -0.2803
  104OSM    H9T10552  -0.666   6.595   9.766  0.2386 -0.2972  1.4091
  104OSM   C10S10553  -0.630   6.451   9.604  0.5057  0.0419 -0.2595
  104OSM   H10S10554  -0.733   6.411   9.591 -0.1752  1.9718 -1.1833
  104OSM   H10T10555  -0.565   6.361   9.595 -0.5972 -0.7098 -1.0223
  104OSM   C11S10556  -0.612   6.550   9.490 -0.0230  0.3872  0.2539
  104OSM   H11S10557  -0.510   6.596   9.496  1.2974 -2.0490 -1.6362
  104OSM   H11T10558  -0.682   6.636   9.498 -0.2363  0.6158 -2.7840
  104OSM   C12S10559  -0.627   6.489   9.352 -0.6497  0.1605 -0.1742
  104OSM   H12S10560  -0.731   6.462   9.323 -0.3779  0.9633 -2.0203
  104OSM   H12T10561  -0.564   6.398   9.350  1.3866  1.4978 -0.6674
  104OSM   C13S10562  -0.573   6.583   9.244 -0.1961  0.7923 -0.1344
  104OSM   H13S10563  -0.470   6.619   9.266 -0.3552  0.2393  1.6900
  104OSM   H13T10564  -0.637   6.673   9.233 -0.6384  0.5069  0.0976
  104OSM   C14S10565  -0.567   6.513   9.102  0.2357 -0.0714 -0.5029
  104OSM   H14S10566  -0.669   6.471   9.088  0.2410 -0.7883  1.3386
  104OSM   H14T10567  -0.496   6.428   9.093  0.2698 -0.6326  3.2832
  104OSM   C15S10568  -0.539   6.623   8.992  0.5151  0.9854 -0.0202
  104OSM   H15S10569  -0.437   6.664   9.005  1.8981 -0.9746 -3.2085
  104OSM   H15T10570  -0.626   6.693   8.992 -0.0068  0.3806 -1.0451
  104OSM   C16S10571  -0.541   6.560   8.850  0.6055  0.4011  0.1324
  104OSM   H16S10572  -0.644   6.518   8.841  0.7750  0.3092 -1.8498
  104OSM   H16T10573  -0.458   6.486   8.846  0.8361  0.6745 -0.2023
  104OSM   C17S10574  -0.513   6.668   8.744 -0.3603 -0.1509 -0.5234
  104OSM   H17S10575  -0.405   6.695   8.746 -0.2839 -0.4100 -0.8889
  104OSM   H17T10576  -0.574   6.759   8.762  0.8936  0.5156  0.6092
  104OSM   C18S10577  -0.545   6.617   8.604  0.8342  0.7061 -1.1387
  104OSM   H18S10578  -0.516   6.685   8.521  0.7090  0.6946 -1.1920
  104OSM   H18T10579  -0.651   6.585   8.602  0.6810  0.6533  2.0974
  104OSM   H18U10580  -0.492   6.520   8.590  1.5661  0.7909  0.7139
  104OSM    C1F10581  -0.006   6.487  10.236  0.6973 -0.0943  0.1869
  104OSM     OF10582   0.017   6.372  10.264  0.0441 -0.3715  0.2315
  104OSM    C2F10583   0.087   6.569  10.152  0.3453 -0.3621 -0.1861
  104OSM    H2F10584   0.162   6.624  10.214  0.1364 -0.6705  0.3470
  104OSM    H2G10585   0.031   6.645  10.095  1.4521 -1.4626 -2.9353
  104OSM    C3F10586   0.172   6.490  10.048  0.1400  0.5261 -0.0926
  104OSM    H3F10587   0.103   6.433   9.981  0.4619  1.2070 -1.0259
  104OSM    H3G10588   0.240   6.413  10.090  0.8581  0.6757 -0.9492
  104OSM    C4F10589   0.255   6.588   9.970 -0.2368 -0.9643  0.4439
  104OSM    H4F10590   0.340   6.634  10.025 -0.7886 -0.2731  0.7381
  104OSM    H4G10591   0.187   6.672   9.944  0.5710 -0.3859  0.1676
  104OSM    C5F10592   0.311   6.520   9.837  1.0910 -0.6145  0.1679
  104OSM    H5F10593   0.374   6.432   9.860  3.2542  0.6370 -0.6627
  104OSM    H5G10594   0.362   6.605   9.785  0.1622 -0.1456 -0.0008
  104OSM    C6F10595   0.203   6.478   9.742 -0.4055 -0.1017 -0.1037
  104OSM    H6F10596   0.147   6.564   9.698  0.0571  0.8189  1.0655
  104OSM    H6G10597   0.133   6.409   9.794  2.1028  0.6375  4.7538
  104OSM    C7F10598   0.271   6.402   9.620  0.7961  0.2920  0.0100
  104OSM    H7F10599   0.206   6.320   9.583 -1.0286  2.1850 -1.1742
  104OSM    H7G10600   0.371   6.365   9.652  0.6633 -0.1144 -0.0368
  104OSM    C8F10601   0.297   6.493   9.498  0.3013  0.3654  0.2422
  104OSM    H8F10602   0.381   6.445   9.443 -0.5017  0.3068 -0.9728
  104OSM    H8G10603   0.323   6.596   9.529  0.4563 -0.7848  4.4731
  104OSM    C9F10604   0.185   6.493   9.397 -0.0581 -0.2189 -0.0803
  104OSM    H9F10605   0.092   6.542   9.429 -0.9567 -2.0695  0.3090
  104OSM   C10F10606   0.206   6.471   9.267 -0.9731  0.9289 -0.2574
  104OSM   H10F10607   0.120   6.478   9.198  0.1268 -0.9683 -1.9138
  104OSM   C11F10608   0.334   6.441   9.186 -0.3365 -0.5537 -0.1293
  104OSM   H11F10609   0.395   6.369   9.245  0.3871  2.4473  3.1335
  104OSM   H11G10610   0.388   6.537   9.174  1.8602 -1.8552 -1.3064
  104OSM   C12F10611   0.297   6.376   9.051  0.5859  0.4261 -0.0427
  104OSM   H12F10612   0.238   6.449   8.990  0.6164  1.2818  0.9371
  104OSM   H12G10613   0.234   6.287   9.075 -0.8400  1.3799 -0.1413
  104OSM   C13F10614   0.423   6.334   8.974  0.2834  0.2070 -0.3079
  104OSM   H13F10615   0.486   6.263   9.031  0.1747 -0.2034 -0.6974
  104OSM   H13G10616   0.485   6.425   8.956  2.4171 -1.5013 -2.0108
  104OSM   C14F10617   0.398   6.265   8.836 -0.9450 -0.2136 -0.5041
  104OSM   H14F10618   0.310   6.303   8.778 -1.3865 -1.8137 -0.9537
  104OSM   H14G10619   0.373   6.159   8.859  1.3241 -0.8416 -0.6980
  104OSM   C15F10620   0.537   6.253   8.763  0.0020  0.1067  0.6499
  104OSM   H15F10621   0.605   6.187   8.822 -0.7440 -0.6268  0.7030
  104OSM   H15G10622   0.584   6.354   8.770  0.9070 -0.2698  0.1746
  104OSM   C16F10623   0.538   6.198   8.620 -0.2755 -1.0556  0.1313
  104OSM   H16F10624   0.487   6.101   8.604 -0.3526 -0.8494 -0.9087
  104OSM   H16G10625   0.643   6.185   8.585 -0.0038  3.4273 -1.4868
  104OSM   C17F10626   0.469   6.302   8.530  0.0354 -0.6751 -0.3843
  104OSM   H17F10627   0.513   6.403   8.545  0.3060 -0.8805  0.2126
  104OSM   H17G10628   0.361   6.310   8.557  0.5391 -0.6743  1.7619
  104OSM   C18F10629   0.488   6.262   8.385  0.8996  0.5350  0.7483
  104OSM   H18F10630   0.421   6.177   8.361  0.8654  1.0965 -1.4146
  104OSM   H18G10631   0.593   6.247   8.353  0.3096  1.0284 -1.6242
  104OSM   H18H10632   0.458   6.352   8.327  0.2015 -0.4718 -0.4961
  105OSM      N10633   3.662   1.204  10.941 -0.2007  0.4162 -0.0430
  105OSM    C1510634   3.615   1.313  10.842  0.0946  0.2925  0.6248
  105OSM   H15A10635   3.674   1.300  10.753 -0.0478  1.1606  0.3997
  105OSM   H15B10636   3.618   1.413  10.883 -0.9600  1.1782 -1.3277
  105OSM   H15C10637   3.511   1.305  10.814  0.7331  1.9337 -2.6380
  105OSM    C1410638   3.561   1.199  11.050  0.4619 -0.2771  0.3074
  105OSM   H14A10639   3.462   1.190  11.009  1.1587 -0.4337 -1.3910
  105OSM   H14B10640   3.571   1.277  11.124  1.5709 -0.9147  0.8541
  105OSM   H14C10641   3.581   1.108  11.106  1.6964 -0.2538 -0.0656
  105OSM    C1310642   3.653   1.070  10.877  0.3398  0.5472  0.4815
  105OSM   H13A10643   3.720   1.071  10.793 -1.3386  1.5794 -0.9171
  105OSM   H13B10644   3.555   1.048  10.838 -1.1670  1.8265  3.2221
  105OSM   H13C10645   3.674   0.991  10.947  2.2744  2.4000  2.1497
  105OSM    C1210646   3.807   1.232  10.989  0.0469 -0.4964 -0.2965
  105OSM   H12A10647   3.868   1.255  10.903 -1.6319  2.5743 -0.8517
  105OSM   H12B10648   3.852   1.151  11.044  2.3416  1.5250  0.9885
  105OSM    C1110649   3.842   1.354  11.082  0.1160 -0.3200 -0.0887
  105OSM   H11A10650   3.945   1.345  11.124 -0.0285  2.2870  1.0628
  105OSM   H11B10651   3.762   1.355  11.159 -1.0383 -1.7929 -1.2021
  105OSM      P10652   3.938   1.520  10.910  0.1089  0.2311 -0.2186
  105OSM    O1310653   4.008   1.629  10.974 -0.6101 -0.5014 -0.4700
  105OSM    O1410654   4.028   1.408  10.870  0.2565 -0.3262  0.6572
  105OSM    O1110655   3.869   1.582  10.779  0.4286 -0.3317 -0.2829
  105OSM    O1210656   3.824   1.472  11.010 -0.6501  0.4130  0.0305
  105OSM    C1S10657   3.767   1.686  10.799  0.1211  0.6052 -0.6702
  105OSM    H1S10658   3.807   1.761  10.871  1.8894 -0.3406 -0.6219
  105OSM    H1T10659   3.667   1.651  10.834  1.9242 -0.3700  4.3107
  105OSM     NF10660   3.680   1.889  10.692  0.4506  0.5442  0.1637
  105OSM    HNF10661   3.594   1.902  10.643 -0.0293 -0.0691  0.8165
  105OSM    C2S10662   3.750   1.767  10.667 -0.5853  0.9299 -0.5746
  105OSM    H2S10663   3.854   1.795  10.637 -0.1138 -0.0217  0.1006
  105OSM    C3S10664   3.676   1.674  10.563  0.3003 -0.1146 -0.6442
  105OSM    H3S10665   3.577   1.658  10.611  1.5934 -2.2586  1.5665
  105OSM     O310666   3.734   1.543  10.548  0.4729  0.1006  0.1143
  105OSM    HO310667   3.781   1.527  10.630  1.5214  0.2410 -0.4510
  105OSM    C4S10668   3.661   1.753  10.438 -0.9589 -0.2726 -0.2348
  105OSM    H4S10669   3.584   1.832  10.445 -0.6820  0.0119 -0.4005
  105OSM    C5S10670   3.754   1.749  10.345 -0.2241  0.2820  0.5671
  105OSM    H5S10671   3.834   1.673  10.348 -0.9238 -0.4957 -0.0030
  105OSM    C6S10672   3.742   1.831  10.213  0.2990 -0.1871 -0.3058
  105OSM    H6S10673   3.747   1.760  10.128  1.2219  0.0116 -0.4245
  105OSM    H6T10674   3.831   1.898  10.212  0.7034 -0.6405 -2.8344
  105OSM    C7S10675   3.613   1.912  10.208  0.1186 -0.8177 -0.3957
  105OSM    H7S10676   3.613   1.995  10.281  1.9723 -0.9838 -0.1674
  105OSM    H7T10677   3.519   1.856  10.230 -1.0033  0.6610 -1.2016
  105OSM    C8S10678   3.595   1.977  10.065  0.5936 -0.4302 -0.5841
  105OSM    H8S10679   3.515   2.054  10.065  0.4012 -0.6306 -1.1635
  105OSM    H8T10680   3.567   1.901   9.990  1.4154 -1.4379  0.0986
  105OSM    C9S10681   3.718   2.058  10.029  0.5708 -0.0248  0.4065
  105OSM    H9S10682   3.819   2.016  10.047  0.3928 -1.1530 -1.0446
  105OSM    H9T10683   3.730   2.145  10.097  3.1061  0.6358 -0.7932
  105OSM   C10S10684   3.706   2.113   9.882  0.7406  0.1619 -0.4479
  105OSM   H10S10685   3.790   2.184   9.866  2.2324 -1.6427 -1.0092
  105OSM   H10T10686   3.611   2.171   9.880  0.8390  0.3217 -0.4889
  105OSM   C11S10687   3.722   2.012   9.768  0.3367 -0.6584  0.0358
  105OSM   H11S10688   3.647   1.930   9.779  2.5925 -2.7075  1.0417
  105OSM   H11T10689   3.822   1.967   9.786  0.4991 -0.2310  0.2159
  105OSM   C12S10690   3.714   2.069   9.627 -0.0101  0.7272 -0.2534
  105OSM   H12S10691   3.817   2.071   9.585 -0.2312  3.5200 -0.8432
  105OSM   H12T10692   3.657   2.164   9.627  0.4498  1.0037 -0.2657
  105OSM   C13S10693   3.638   1.970   9.528 -0.8317  0.8425 -0.5838
  105OSM   H13S10694   3.540   1.944   9.573 -1.2401 -0.5311 -2.1477
  105OSM   H13T10695   3.700   1.878   9.524 -0.4387  0.9072  2.0820
  105OSM   C14S10696   3.628   2.020   9.380 -0.0264 -0.1847  0.0494
  105OSM   H14S10697   3.734   2.038   9.352  0.9647 -2.4869  2.0037
  105OSM   H14T10698   3.581   2.121   9.381 -2.0681 -1.0581 -0.8264
  105OSM   C15S10699   3.548   1.936   9.292  0.2040  0.3009  0.1941
  105OSM   H15S10700   3.457   1.908   9.350  0.5197  1.3726  1.2437
  105OSM   H15T10701   3.597   1.842   9.260  1.1059  0.9728 -0.4164
  105OSM   C16S10702   3.494   2.003   9.160 -1.0423  0.1615  0.1199
  105OSM   H16S10703   3.570   2.073   9.119 -0.9032  1.0479  1.8118
  105OSM   H16T10704   3.408   2.070   9.183  0.7806  2.4356  0.6834
  105OSM   C17S10705   3.463   1.894   9.055  0.4028 -0.6636 -0.7451
  105OSM   H17S10706   3.380   1.831   9.093 -0.1365  0.9926  0.9389
  105OSM   H17T10707   3.558   1.838   9.037  2.4853  2.4563 -0.2355
  105OSM   C18S10708   3.422   1.942   8.914  0.6608  0.0705  0.3692
  105OSM   H18S10709   3.511   1.987   8.866  0.3964 -1.1006 -1.2943
  105OSM   H18T10710   3.331   2.006   8.918 -0.3819 -1.3874  1.3667
  105OSM   H18U10711   3.402   1.849   8.857 -2.5384  1.0884 -0.3528
  105OSM    C1F10712   3.717   1.987  10.773  0.2048 -0.4927 -0.3182
  105OSM     OF10713   3.823   1.988  10.831  0.2104 -0.5096  0.0399
  105OSM    C2F10714   3.622   2.098  10.781 -0.1153 -0.1654 -0.4800
  105OSM    H2F10715   3.651   2.149  10.876 -0.5456  0.5512 -0.7236
  105OSM    H2G10716   3.519   2.059  10.800  0.4425 -1.1237  0.7776
  105OSM    C3F10717   3.622   2.185  10.663 -0.1225 -0.7444 -0.4738
  105OSM    H3F10718   3.727   2.206  10.632  0.2895 -0.5496  0.9838
  105OSM    H3G10719   3.591   2.287  10.697  2.7562 -0.7271  2.6223
  105OSM    C4F10720   3.544   2.135  10.543 -0.2538 -0.2186  0.0287
  105OSM    H4F10721   3.464   2.067  10.580  0.4879  0.3355  2.8830
  105OSM    H4G10722   3.622   2.079  10.486  0.7479  0.3060  0.8599
  105OSM    C5F10723   3.469   2.250  10.476 -0.7681 -0.3733  0.3048
  105OSM    H5F10724   3.545   2.330  10.488  0.8377 -1.7709 -0.0393
  105OSM    H5G10725   3.376   2.278  10.529 -0.2604  1.9005  0.0699
  105OSM    C6F10726   3.411   2.229  10.335  0.0399 -0.2408 -1.0943
  105OSM    H6F10727   3.337   2.147  10.343  0.5282 -0.5375  1.5481
  105OSM    H6G10728   3.498   2.204  10.271  2.9333 -0.9187  2.7484
  105OSM    C7F10729   3.355   2.358  10.279 -0.1790 -0.0808 -0.2137
  105OSM    H7F10730   3.412   2.450  10.302 -2.7969  1.1514  1.9626
  105OSM    H7G10731   3.257   2.378  10.327  0.0923 -0.8208  0.6823
  105OSM    C8F10732   3.347   2.345  10.125  0.3165  0.1691  0.7237
  105OSM    H8F10733   3.442   2.314  10.076 -1.0493  0.8610 -2.6473
  105OSM    H8G10734   3.333   2.442  10.073 -0.3258  0.1253  0.8024
  105OSM    C9F10735   3.234   2.256  10.077 -0.4289  0.5036  0.3391
  105OSM    H9F10736   3.153   2.234  10.149  0.8531 -1.3122  1.3115
  105OSM   C10F10737   3.235   2.186   9.964  0.0562  0.0807  0.7430
  105OSM   H10F10738   3.143   2.131   9.942 -0.0159  0.2705  0.5627
  105OSM   C11F10739   3.342   2.194   9.857  0.1110 -0.0529 -0.6137
  105OSM   H11F10740   3.384   2.096   9.823 -0.9086 -1.4347  1.8912
  105OSM   H11G10741   3.428   2.255   9.892 -0.2604 -0.0298  0.2826
  105OSM   C12F10742   3.281   2.248   9.732 -0.0244  0.2705  0.2636
  105OSM   H12F10743   3.220   2.337   9.758 -0.5741 -0.4412  1.5386
  105OSM   H12G10744   3.211   2.179   9.680  0.7505 -0.5209  0.2445
  105OSM   C13F10745   3.384   2.285   9.630 -0.6227 -1.0186 -0.0247
  105OSM   H13F10746   3.441   2.196   9.595 -0.1052 -0.3561 -0.9312
  105OSM   H13G10747   3.453   2.364   9.668 -0.1955 -1.5481  0.3108
  105OSM   C14F10748   3.315   2.349   9.514  0.1300  0.0334  0.3348
  105OSM   H14F10749   3.392   2.403   9.454  1.2765 -1.8075  0.0861
  105OSM   H14G10750   3.232   2.416   9.546 -0.6342 -1.2017  1.0190
  105OSM   C15F10751   3.263   2.252   9.414  0.0348  0.4324  0.0878
  105OSM   H15F10752   3.197   2.189   9.479 -1.6489  0.6380 -1.3411
  105OSM   H15G10753   3.344   2.186   9.376  0.6775  0.6188  1.1066
  105OSM   C16F10754   3.175   2.312   9.299  0.0657  0.5017 -0.0884
  105OSM   H16F10755   3.104   2.388   9.339 -1.3332  0.9422 -3.0457
  105OSM   H16G10756   3.098   2.237   9.269  0.5211  0.0576 -0.1475
  105OSM   C17F10757   3.254   2.363   9.180 -0.0952 -0.3685 -0.1540
  105OSM   H17F10758   3.315   2.279   9.142 -1.4202 -0.7645 -1.5053
  105OSM   H17G10759   3.317   2.441   9.228 -2.1547  0.9263  0.5758
  105OSM   C18F10760   3.170   2.429   9.073  0.1101  0.0488  0.0934
  105OSM   H18F10761   3.133   2.528   9.106 -0.6189 -0.5232  1.0252
  105OSM   H18G10762   3.077   2.374   9.048 -0.5430  0.8206  0.7720
  105OSM   H18H10763   3.229   2.448   8.981 -1.5591  1.2985 -0.7797
  106OSM      N10764   3.481   6.616  10.720  0.0854 -0.0805  0.2084
  106OSM    C1510765   3.460   6.594  10.575  0.1321  0.1128  0.9493
  106OSM   H15A10766   3.506   6.502  10.542 -0.6032 -0.3317  1.1384
  106OSM   H15B10767   3.497   6.666  10.504  1.0023 -1.6489 -0.4657
  106OSM   H15C10768   3.357   6.586  10.543  1.0156  0.2477 -2.2129
  106OSM    C1410769   3.388   6.725  10.763 -0.4660  0.8193 -0.3616
  106OSM   H14A10770   3.418   6.820  10.723  1.9956  0.3077  0.0414
  106OSM   H14B10771   3.392   6.732  10.871  1.2077  1.6353 -0.4452
  106OSM   H14C10772   3.284   6.699  10.751 -0.2611 -0.0501 -0.3217
  106OSM    C1310773   3.429   6.494  10.790  0.5277  0.1457 -0.0943
  106OSM   H13A10774   3.492   6.407  10.777 -0.7243 -0.8922  0.5219
  106OSM   H13B10775   3.331   6.464  10.755  0.7511 -1.2492  0.4031
  106OSM   H13C10776   3.418   6.511  10.896  2.1440  1.7386 -0.1374
  106OSM    C1210777   3.621   6.637  10.762  0.0190 -0.0343 -0.6743
  106OSM   H12A10778   3.678   6.550  10.734 -0.5325 -1.4225  2.1420
  106OSM   H12B10779   3.634   6.647  10.869  2.1885 -0.3155 -0.8664
  106OSM    C1110780   3.683   6.758  10.691 -0.1174 -0.4418 -0.0849
  106OSM   H11A10781   3.611   6.842  10.702 -0.2913 -0.8572  2.8228
  106OSM   H11B10782   3.685   6.729  10.584 -1.7498 -0.6903 -0.0627
  106OSM      P10783   3.885   6.928  10.696 -0.1919 -0.2554 -0.2124
  106OSM    O1310784   3.839   7.023  10.802 -0.3074 -0.2436 -0.9045
  106OSM    O1410785   4.033   6.908  10.672  0.0916  0.0334  0.2383
  106OSM    O1110786   3.815   6.980  10.559  0.2412 -0.3555  0.0848
  106OSM    O1210787   3.819   6.787  10.730 -0.4836  0.3442  0.1383
  106OSM    C1S10788   3.843   7.107  10.509  0.2970  0.1857  0.3827
  106OSM    H1S10789   3.949   7.120  10.478 -0.2673 -0.9526 -2.3815
  106OSM    H1T10790   3.822   7.190  10.579  4.3735  3.7193 -2.0622
  106OSM     NF10791   3.804   7.275  10.321  0.8040 -0.6233 -0.0142
  106OSM    HNF10792   3.747   7.357  10.316  0.8260 -0.6701 -1.9238
  106OSM    C2S10793   3.757   7.143  10.378 -0.0351  0.0462  0.1863
  106OSM    H2S10794   3.781   7.057  10.311  0.6759 -0.1933  0.7328
  106OSM    C3S10795   3.605   7.139  10.412 -0.3918  0.2129 -0.3754
  106OSM    H3S10796   3.590   7.231  10.473  1.6403  0.7004 -0.5312
  106OSM     O310797   3.560   7.035  10.493  0.8126 -0.3635  0.0583
  106OSM    HO310798   3.646   6.997  10.514  1.3134  0.3009 -0.6794
  106OSM    C4S10799   3.535   7.152  10.285 -0.1817  0.0313  0.3084
  106OSM    H4S10800   3.509   7.255  10.255  1.1119 -0.0767 -1.3171
  106OSM    C5S10801   3.506   7.048  10.211 -0.1721 -0.5372  0.9194
  106OSM    H5S10802   3.530   6.945  10.245  1.6956  0.4984  3.0449
  106OSM    C6S10803   3.446   7.059  10.071 -0.4179 -0.6889  0.1226
  106OSM    H6S10804   3.336   7.055  10.083 -0.6827  0.8095 -1.3339
  106OSM    H6T10805   3.480   6.983   9.997 -1.3214  0.8253 -1.9504
  106OSM    C7S10806   3.448   7.199   9.988 -0.3929  0.5450 -0.4899
  106OSM    H7S10807   3.550   7.231   9.959 -0.2686  0.8351  0.2329
  106OSM    H7T10808   3.408   7.275  10.060  0.3741  0.2195  0.3021
  106OSM    C8S10809   3.362   7.204   9.859  0.0269  0.8639 -0.1473
  106OSM    H8S10810   3.331   7.310   9.864 -0.3217  0.7333  0.8582
  106OSM    H8T10811   3.270   7.141   9.860 -1.1324  2.4365 -2.0543
  106OSM    C9S10812   3.443   7.168   9.737  0.5581 -0.1762  0.5908
  106OSM    H9S10813   3.499   7.073   9.748 -0.4983 -0.7255  1.5273
  106OSM    H9T10814   3.521   7.244   9.716  1.7864 -1.6829 -0.5167
  106OSM   C10S10815   3.355   7.169   9.605  0.2814 -0.1883 -0.3027
  106OSM   H10S10816   3.285   7.082   9.610 -0.3090  0.3611  2.3594
  106OSM   H10T10817   3.427   7.147   9.523  0.0827  2.2693 -1.2089
  106OSM   C11S10818   3.270   7.295   9.587 -0.3928 -0.7474 -0.8777
  106OSM   H11S10819   3.327   7.389   9.601  0.4947 -1.2636 -0.9480
  106OSM   H11T10820   3.191   7.279   9.663  1.3922  0.8534  1.4164
  106OSM   C12S10821   3.222   7.304   9.445 -0.0964  0.1795  1.0049
  106OSM   H12S10822   3.148   7.387   9.438 -1.6107 -1.0515  1.8123
  106OSM   H12T10823   3.168   7.209   9.423  2.0051 -0.2771 -3.0449
  106OSM   C13S10824   3.340   7.323   9.355 -0.4517  0.3190 -0.5643
  106OSM   H13S10825   3.408   7.236   9.347 -0.1078  0.5630 -0.3163
  106OSM   H13T10826   3.405   7.396   9.406 -1.0144 -0.0008  0.6636
  106OSM   C14S10827   3.309   7.360   9.209 -0.5410  0.4216  0.1843
  106OSM   H14S10828   3.212   7.414   9.201 -0.1272  0.8949 -2.4364
  106OSM   H14T10829   3.301   7.268   9.148  1.9662  0.9151 -1.0020
  106OSM   C15S10830   3.411   7.442   9.123  0.1351  0.6139  0.5234
  106OSM   H15S10831   3.491   7.370   9.094 -0.1180 -0.0981  1.5309
  106OSM   H15T10832   3.456   7.519   9.189 -0.2131 -0.0511  1.5697
  106OSM   C16S10833   3.361   7.489   8.986 -0.0195 -0.4997 -0.2068
  106OSM   H16S10834   3.268   7.547   8.999 -0.0649 -0.3974 -0.9523
  106OSM   H16T10835   3.342   7.393   8.933  0.9468 -0.1098 -1.2948
  106OSM   C17S10836   3.463   7.573   8.909 -0.9525  0.6149  0.3542
  106OSM   H17S10837   3.562   7.524   8.924 -0.7984  0.0162 -2.2020
  106OSM   H17T10838   3.468   7.670   8.963  2.4180  0.6222  0.2349
  106OSM   C18S10839   3.434   7.607   8.763  0.7891  0.5721  0.2750
  106OSM   H18S10840   3.341   7.667   8.750 -1.7124 -2.8148  1.1262
  106OSM   H18T10841   3.410   7.510   8.714 -2.6858  0.0370  2.6447
  106OSM   H18U10842   3.509   7.669   8.709 -0.7553  1.9397 -0.3860
  106OSM    C1F10843   3.926   7.279  10.278  0.0865  0.3698 -0.2600
  106OSM     OF10844   4.003   7.184  10.263  0.0717 -0.1235  0.2415
  106OSM    C2F10845   3.987   7.408  10.261  0.4086  0.0858  0.1647
  106OSM    H2F10846   4.071   7.402  10.333 -1.2052  2.8551  2.5355
  106OSM    H2G10847   3.918   7.486  10.301 -0.8333 -0.1232 -1.4811
  106OSM    C3F10848   4.023   7.437  10.114 -0.7146  0.4453  0.0756
  106OSM    H3F10849   4.107   7.371  10.080 -0.3758  1.0288 -0.2359
  106OSM    H3G10850   4.058   7.542  10.116 -0.5964  0.5110 -2.3249
  106OSM    C4F10851   3.905   7.423  10.021 -0.4883 -0.7098  0.2357
  106OSM    H4F10852   3.827   7.495  10.055 -0.4045 -0.6425  0.2843
  106OSM    H4G10853   3.869   7.318  10.030  2.3663 -1.7084  0.8418
  106OSM    C5F10854   3.939   7.447   9.873  0.3971 -0.0064 -0.2356
  106OSM    H5F10855   3.859   7.406   9.808 -0.8651 -0.3953  1.4860
  106OSM    H5G10856   4.037   7.403   9.847 -0.0384  0.0660 -2.0886
  106OSM    C6F10857   3.932   7.600   9.852  0.0906 -0.0128 -0.0479
  106OSM    H6F10858   3.998   7.640   9.932 -2.9776 -0.5869  3.0492
  106OSM    H6G10859   3.832   7.635   9.885  0.2823 -0.6621  1.2939
  106OSM    C7F10860   3.983   7.650   9.718 -0.2225  0.1190  0.4480
  106OSM    H7F10861   3.948   7.755   9.717 -0.5132  0.0229 -0.2673
  106OSM    H7G10862   3.927   7.610   9.631  2.3227  1.4229 -1.9560
  106OSM    C8F10863   4.133   7.622   9.697  0.6114 -0.4984 -0.6146
  106OSM    H8F10864   4.141   7.529   9.636 -1.5213 -1.3431  0.2766
  106OSM    H8G10865   4.174   7.605   9.799 -2.2777  1.5829  1.0288
  106OSM    C9F10866   4.199   7.741   9.636 -0.2024  0.1365  0.9044
  106OSM    H9F10867   4.202   7.824   9.708 -1.5011 -1.4715  2.9347
  106OSM   C10F10868   4.247   7.745   9.510  0.0935  0.1503  0.2631
  106OSM   H10F10869   4.294   7.840   9.479  1.2900 -0.0941  1.2372
  106OSM   C11F10870   4.248   7.636   9.402 -0.7540  0.3511  0.0282
  106OSM   H11F10871   4.198   7.538   9.421 -1.2315  0.7796  1.0149
  106OSM   H11G10872   4.354   7.620   9.371 -0.1486  2.7271  0.7049
  106OSM   C12F10873   4.193   7.691   9.273  0.0781 -0.2484  0.2004
  106OSM   H12F10874   4.236   7.791   9.251 -0.9748 -0.0400 -1.0275
  106OSM   H12G10875   4.082   7.701   9.281  0.2927  2.0880  1.1229
  106OSM   C13F10876   4.220   7.605   9.154  0.3883  0.3765  0.2372
  106OSM   H13F10877   4.188   7.502   9.179  1.1320 -0.5322 -2.1957
  106OSM   H13G10878   4.329   7.586   9.138  0.2998 -1.6936  1.7752
  106OSM   C14F10879   4.161   7.640   9.016 -0.1409 -0.0909  0.7604
  106OSM   H14F10880   4.199   7.742   8.991  1.6306 -0.6540  1.0100
  106OSM   H14G10881   4.051   7.650   9.020 -0.1219  1.2476 -0.8535
  106OSM   C15F10882   4.202   7.541   8.898  0.0257 -0.0348 -0.1229
  106OSM   H15F10883   4.181   7.442   8.943  1.2980  0.2932  1.2889
  106OSM   H15G10884   4.312   7.552   8.884  0.2754  0.2159  1.7021
  106OSM   C16F10885   4.129   7.560   8.765 -0.0103  0.0126  0.2492
  106OSM   H16F10886   4.020   7.562   8.789 -0.1701  0.8913 -0.5083
  106OSM   H16G10887   4.150   7.473   8.699 -1.8971 -1.1228  1.0548
  106OSM   C17F10888   4.159   7.696   8.706 -0.4290  0.1014 -0.4621
  106OSM   H17F10889   4.266   7.712   8.678 -0.7955  0.5523 -1.6551
  106OSM   H17G10890   4.137   7.781   8.773 -0.4433  0.5279 -1.0019
  106OSM   C18F10891   4.083   7.718   8.573  0.8292  0.1371 -0.1024
  106OSM   H18F10892   4.104   7.820   8.535 -0.9752  0.7564  0.4732
  106OSM   H18G10893   3.975   7.696   8.582  1.2642 -2.1080  0.1610
  106OSM   H18H10894   4.112   7.644   8.495  0.9456  0.6349 -0.5414
  107OSM      N10895   4.302   4.945  10.764 -0.3933  0.0934 -0.6979
  107OSM    C1510896   4.398   4.945  10.879 -0.3942 -0.9086  0.0935
  107OSM   H15A10897   4.376   5.025  10.947  0.9396 -1.5041  1.2684
  107OSM   H15B10898   4.501   4.959  10.848 -0.3496 -0.7038  0.3304
  107OSM   H15C10899   4.397   4.854  10.937 -0.1936  0.3976  2.2666
  107OSM    C1410900   4.343   4.835  10.670 -0.4984  0.3417 -0.3276
  107OSM   H14A10901   4.383   4.748  10.721 -0.8094 -1.4804 -2.9569
  107OSM   H14B10902   4.414   4.878  10.600  0.1298  0.8327  0.5856
  107OSM   H14C10903   4.259   4.807  10.608 -1.9575  2.6410  0.5316
  107OSM    C1310904   4.165   4.912  10.817 -0.9202  0.2735 -0.2291
  107OSM   H13A10905   4.088   4.917  10.742 -1.0077  2.0683 -0.0600
  107OSM   H13B10906   4.141   4.981  10.897  0.4426  0.1415  0.3312
  107OSM   H13C10907   4.155   4.815  10.863  1.1586  0.5912  1.0444
  107OSM    C1210908   4.294   5.069  10.687 -0.3044 -0.2542  0.1960
  107OSM   H12A10909   4.218   5.061  10.611  1.1146  1.9547 -1.5991
  107OSM   H12B10910   4.387   5.083  10.634 -0.4065 -0.1258  0.0522
  107OSM    C1110911   4.255   5.205  10.751 -0.3808  0.0281 -0.4858
  107OSM   H11A10912   4.168   5.190  10.819 -0.7723 -1.3250 -1.2559
  107OSM   H11B10913   4.224   5.283  10.679 -1.6381  0.5249  0.5590
  107OSM      P10914   4.489   5.321  10.773 -0.0499  0.2158 -0.1892
  107OSM    O1310915   4.534   5.431  10.862  0.4301 -0.4207 -0.0648
  107OSM    O1410916   4.577   5.206  10.740  0.8065 -0.0065 -0.2099
  107OSM    O1110917   4.426   5.377  10.640 -0.3649  0.3392 -0.1020
  107OSM    O1210918   4.359   5.253  10.835 -0.3574 -0.2091 -0.3373
  107OSM    C1S10919   4.505   5.412  10.525  0.2157 -0.4857 -0.3775
  107OSM    H1S10920   4.555   5.326  10.475  2.7194  1.4015 -1.2855
  107OSM    H1T10921   4.581   5.489  10.549 -0.8218  0.3945  0.1664
  107OSM     NF10922   4.479   5.472  10.285 -0.5433 -0.5171 -0.2662
  107OSM    HNF10923   4.534   5.551  10.260  0.7995 -1.4184 -0.2289
  107OSM    C2S10924   4.411   5.469  10.409  0.0716 -0.5062 -0.6675
  107OSM    H2S10925   4.314   5.416  10.401  0.4186 -1.2434 -0.1555
  107OSM    C3S10926   4.378   5.616  10.455  0.2416 -0.2679 -0.9251
  107OSM    H3S10927   4.469   5.679  10.454 -0.2899  0.6516  1.7268
  107OSM     O310928   4.325   5.621  10.587  0.1269 -0.2530 -0.0924
  107OSM    HO310929   4.321   5.531  10.618 -5.0524 -0.6412 -1.0609
  107OSM    C4S10930   4.287   5.684  10.360 -0.2666  0.1747 -0.1474
  107OSM    H4S10931   4.348   5.705  10.271 -0.3292  1.0482  0.0158
  107OSM    C5S10932   4.155   5.717  10.372  0.0876 -0.1480 -0.3489
  107OSM    H5S10933   4.101   5.704  10.467 -1.5326  1.8652 -0.9335
  107OSM    C6S10934   4.088   5.781  10.252  0.1533  0.1481 -0.5352
  107OSM    H6S10935   4.077   5.892  10.255 -2.0661 -0.0039 -1.0458
  107OSM    H6T10936   3.986   5.740  10.234  0.3044 -0.3205 -0.3231
  107OSM    C7S10937   4.163   5.750  10.123 -0.0837 -0.1223  0.1220
  107OSM    H7S10938   4.201   5.646  10.113  0.7094 -0.1782  2.8679
  107OSM    H7T10939   4.262   5.800  10.131  0.0127 -0.6414  3.0853
  107OSM    C8S10940   4.095   5.797   9.995 -0.4747  0.2582  0.1476
  107OSM    H8S10941   4.062   5.902  10.014 -1.8239  0.3033 -2.0196
  107OSM    H8T10942   4.006   5.732   9.988  1.0415 -2.4271  3.1531
  107OSM    C9S10943   4.170   5.793   9.863  0.1149 -0.7060  0.1844
  107OSM    H9S10944   4.235   5.704   9.851  3.0259  0.8463  2.9375
  107OSM    H9T10945   4.239   5.879   9.853 -1.5648  0.6239 -0.4817
  107OSM   C10S10946   4.073   5.809   9.750 -0.5043  0.0563  0.0075
  107OSM   H10S10947   4.009   5.899   9.755 -1.5283 -0.5673 -1.3299
  107OSM   H10T10948   4.009   5.718   9.746 -0.5310  0.1265 -1.5250
  107OSM   C11S10949   4.147   5.813   9.619  0.4188  0.4698 -0.2947
  107OSM   H11S10950   4.215   5.725   9.618 -1.1010 -0.7215 -0.8651
  107OSM   H11T10951   4.210   5.905   9.621 -1.4669  1.7847  0.9406
  107OSM   C12S10952   4.069   5.815   9.483 -0.7442 -0.6197 -0.0041
  107OSM   H12S10953   4.011   5.910   9.488 -0.8302 -0.6976  0.5040
  107OSM   H12T10954   3.999   5.730   9.478 -1.7181  0.2226 -2.0732
  107OSM   C13S10955   4.161   5.812   9.357 -0.9791 -0.0263 -0.2008
  107OSM   H13S10956   4.241   5.734   9.362  0.4872  1.3585 -0.9757
  107OSM   H13T10957   4.212   5.910   9.345 -0.1249 -0.7038 -2.9087
  107OSM   C14S10958   4.085   5.779   9.235  0.2627 -0.0847  0.3273
  107OSM   H14S10959   3.996   5.844   9.222 -0.2376 -0.7912  0.1604
  107OSM   H14T10960   4.038   5.679   9.248 -1.4353  0.5190 -0.7793
  107OSM   C15S10961   4.171   5.773   9.107 -0.0406  0.6129 -0.6272
  107OSM   H15S10962   4.259   5.708   9.131 -1.1750 -1.6469 -2.1948
  107OSM   H15T10963   4.213   5.874   9.091 -2.5754  1.5055 -2.1281
  107OSM   C16S10964   4.090   5.718   8.984 -0.7086 -0.6410  0.2191
  107OSM   H16S10965   4.013   5.798   8.975 -0.9568 -0.6800  1.6865
  107OSM   H16T10966   4.058   5.613   9.001  3.4179 -1.7533  2.6200
  107OSM   C17S10967   4.176   5.721   8.855 -0.1661  0.0320 -0.2476
  107OSM   H17S10968   4.209   5.618   8.826 -2.3632 -1.0215  0.7533
  107OSM   H17T10969   4.271   5.777   8.870 -0.1302  0.2419 -1.2042
  107OSM   C18S10970   4.102   5.792   8.738  0.3211  0.2124  0.0273
  107OSM   H18S10971   4.083   5.897   8.769 -0.7566  0.2515 -0.6658
  107OSM   H18T10972   4.003   5.741   8.726  1.0196 -0.9318 -1.1439
  107OSM   H18U10973   4.164   5.793   8.646  3.5008 -0.3542  2.0344
  107OSM    C1F10974   4.493   5.365  10.210  0.1548 -0.0414  0.4355
  107OSM     OF10975   4.445   5.260  10.252 -0.0554 -0.3013 -0.0785
  107OSM    C2F10976   4.579   5.370  10.084 -0.2830 -0.5836 -0.0681
  107OSM    H2F10977   4.657   5.291  10.074  1.5149  0.7465  2.2908
  107OSM    H2G10978   4.645   5.459  10.095 -0.3345 -0.4431 -0.8500
  107OSM    C3F10979   4.492   5.381   9.959 -0.2299 -0.8913  0.1908
  107OSM    H3F10980   4.431   5.474   9.968  0.1885 -0.4813 -1.0437
  107OSM    H3G10981   4.420   5.298   9.942  0.4229 -1.0163 -2.3065
  107OSM    C4F10982   4.583   5.380   9.827  0.2642  0.3381 -0.3355
  107OSM    H4F10983   4.633   5.283   9.805 -2.1992 -0.6458 -2.0861
  107OSM    H4G10984   4.659   5.461   9.818 -0.9487  1.3651 -1.9226
  107OSM    C5F10985   4.497   5.404   9.703 -0.2304 -0.3606  0.0162
  107OSM    H5F10986   4.446   5.503   9.707  0.9714  0.3443 -1.2240
  107OSM    H5G10987   4.417   5.327   9.694 -0.6264 -0.0109  0.4911
  107OSM    C6F10988   4.580   5.421   9.575 -0.0681 -0.1111  0.3514
  107OSM    H6F10989   4.634   5.326   9.560  2.1002  0.6361  2.5877
  107OSM    H6G10990   4.656   5.502   9.592  0.3430  0.3121 -2.9613
  107OSM    C7F10991   4.495   5.467   9.449 -0.4456 -0.1249 -0.5439
  107OSM    H7F10992   4.455   5.564   9.484  1.8120  0.9910 -0.8565
  107OSM    H7G10993   4.414   5.393   9.432  1.6430 -2.2364 -2.1353
  107OSM    C8F10994   4.573   5.483   9.321 -0.0587  0.1823 -0.3506
  107OSM    H8F10995   4.623   5.390   9.286 -0.3717  1.0066 -3.1560
  107OSM    H8G10996   4.658   5.548   9.348  0.1976 -0.5457  0.6763
  107OSM    C9F10997   4.480   5.542   9.217 -0.1539 -0.0051 -0.4410
  107OSM    H9F10998   4.392   5.600   9.250 -0.0281  1.0331 -1.8421
  107OSM   C10F10999   4.490   5.509   9.088  0.1225 -0.1493 -0.2115
  107OSM   H10F11000   4.418   5.553   9.018 -0.6814  1.2190  1.4137
  107OSM   C11F11001   4.584   5.409   9.021  0.0794 -0.3672 -0.2748
  107OSM   H11F11002   4.522   5.321   8.997 -0.9896 -0.2131  1.7382
  107OSM   H11G11003   4.665   5.372   9.088 -0.7198  0.1763  1.0233
  107OSM   C12F11004   4.659   5.463   8.898  0.2556 -0.1249  0.1958
  107OSM   H12F11005   4.738   5.538   8.920 -0.6482  1.2044 -0.9430
  107OSM   H12G11006   4.585   5.518   8.838  1.1123 -1.8191 -2.5902
  107OSM   C13F11007   4.710   5.335   8.822  1.1435  0.4754 -0.8671
  107OSM   H13F11008   4.631   5.257   8.829  0.2564  1.4522  0.7454
  107OSM   H13G11009   4.797   5.288   8.873  0.5437 -0.4831 -0.6856
  107OSM   C14F11010   4.751   5.373   8.683  0.0206 -0.0003  0.5387
  107OSM   H14F11011   4.837   5.442   8.687  1.0609 -1.2418  0.2715
  107OSM   H14G11012   4.669   5.425   8.629  0.9227 -0.4016 -1.3234
  107OSM   C15F11013   4.800   5.246   8.611  0.9591  0.3370 -0.2930
  107OSM   H15F11014   4.721   5.168   8.610  2.0818 -0.8320 -0.1546
  107OSM   H15G11015   4.881   5.209   8.677 -0.6982 -0.5787  1.3068
  107OSM   C16F11016   4.875   5.282   8.478  0.2548  0.4665 -0.4633
  107OSM   H16F11017   4.953   5.357   8.503  1.6593 -1.1313  0.1389
  107OSM   H16G11018   4.803   5.330   8.408  1.3806  0.5644 -1.6007
  107OSM   C17F11019   4.936   5.151   8.420 -0.1886  0.3091 -0.0619
  107OSM   H17F11020   4.852   5.079   8.432 -0.4309  0.3545 -1.3005
  107OSM   H17G11021   5.013   5.112   8.490 -0.3239 -1.4386 -0.8257
  107OSM   C18F11022   4.988   5.167   8.279 -0.3995 -0.5516  0.2482
  107OSM   H18F11023   5.051   5.258   8.282 -0.8058 -0.2746  2.5683
  107OSM   H18G11024   4.906   5.192   8.207 -0.3844 -2.5513 -0.5284
  107OSM   H18H11025   5.039   5.081   8.231 -0.3011  0.1756 -0.9941
  108OSM      N11026   2.661   6.368  11.178  0.0352 -0.2060 -0.2052
  108OSM    C1511027   2.530   6.404  11.225 -0.1278  0.2870  0.0147
  108OSM   H15A11028   2.522   6.511  11.225  2.2084  0.5174  0.0170
  108OSM   H15B11029   2.507   6.366  11.323 -2.4712 -0.5025 -0.7745
  108OSM   H15C11030   2.445   6.372  11.165 -1.2747  1.0566  1.1924
  108OSM    C1411031   2.770   6.427  11.265 -0.4280  0.0939  0.3173
  108OSM   H14A11032   2.865   6.393  11.226  0.6429  0.9850  2.0150
  108OSM   H14B11033   2.766   6.394  11.368  1.1226  2.5778  1.2405
  108OSM   H14C11034   2.760   6.534  11.272  1.3166  0.2651  0.5352
  108OSM    C1311035   2.667   6.214  11.182 -0.4627 -0.0150 -0.2951
  108OSM   H13A11036   2.605   6.172  11.105  1.1867  0.0349 -1.7251
  108OSM   H13B11037   2.624   6.186  11.277  1.6253 -0.0978  0.7005
  108OSM   H13C11038   2.767   6.174  11.170 -0.5469  0.5393 -4.3708
  108OSM    C1211039   2.681   6.423  11.040 -0.2928 -0.2580 -0.2900
  108OSM   H12A11040   2.788   6.439  11.035  0.2288 -0.9500  4.4218
  108OSM   H12B11041   2.642   6.524  11.036 -1.8306 -0.7611  0.9756
  108OSM    C1111042   2.620   6.346  10.929 -0.1002 -0.0647  0.4978
  108OSM   H11A11043   2.510   6.340  10.940  0.1868 -0.6901  4.2528
  108OSM   H11B11044   2.654   6.240  10.926 -2.9248 -1.0605 -3.1716
  108OSM      P11045   2.752   6.390  10.714  0.0543 -0.6095 -0.1978
  108OSM    O1311046   2.719   6.468  10.587  0.0746  0.4301 -0.0023
  108OSM    O1411047   2.880   6.423  10.780 -0.1627  0.2686 -0.2807
  108OSM    O1111048   2.746   6.231  10.685  0.2621  0.1820 -0.4591
  108OSM    O1211049   2.636   6.418  10.812 -0.3759  0.0740  0.3302
  108OSM    C1S11050   2.631   6.155  10.661  0.1538 -0.1058  0.0803
  108OSM    H1S11051   2.550   6.229  10.639  0.5606 -0.1577 -1.7582
  108OSM    H1T11052   2.600   6.097  10.751  3.4309 -0.7869  0.8729
  108OSM     NF11053   2.514   6.022  10.498  0.2225  0.1793 -1.0226
  108OSM    HNF11054   2.484   5.932  10.528 -0.0368  0.8456  0.8629
  108OSM    C2S11055   2.646   6.060  10.541  0.0678  0.8786  0.2089
  108OSM    H2S11056   2.692   6.115  10.456  0.0773 -1.6164 -1.5142
  108OSM    C3S11057   2.744   5.943  10.590  0.6231 -0.0906 -0.1286
  108OSM    H3S11058   2.687   5.889  10.668  0.6474 -1.0999 -0.7942
  108OSM     O311059   2.864   5.988  10.655  0.2578  0.2086 -0.6457
  108OSM    HO311060   2.845   6.080  10.676  0.2205  0.6209 -2.3331
  108OSM    C4S11061   2.768   5.855  10.470 -0.4104  0.1117  0.4121
  108OSM    H4S11062   2.699   5.770  10.460  0.7891 -1.0867  1.8991
  108OSM    C5S11063   2.865   5.864  10.377 -0.2907  0.0741 -0.4535
  108OSM    H5S11064   2.935   5.948  10.384  0.1167 -0.2700 -0.3262
  108OSM    C6S11065   2.883   5.773  10.259 -0.2008  0.1679  0.5688
  108OSM    H6S11066   2.815   5.685  10.257  1.6056 -1.2692 -0.4717
  108OSM    H6T11067   2.984   5.728  10.268  0.6905  1.9703 -0.0344
  108OSM    C7S11068   2.869   5.833  10.113  0.2257 -0.9463  0.0881
  108OSM    H7S11069   2.905   5.765  10.033  1.4600  0.6948 -0.8265
  108OSM    H7T11070   2.928   5.926  10.094 -0.8420 -0.1150  0.7023
  108OSM    C8S11071   2.721   5.860  10.070  0.0287  0.2275 -0.2917
  108OSM    H8S11072   2.670   5.912  10.153  1.2182  2.8144 -1.0787
  108OSM    H8T11073   2.674   5.761  10.050  1.1317 -0.3059 -0.2925
  108OSM    C9S11074   2.723   5.938   9.935  0.1521  0.1886  0.3077
  108OSM    H9S11075   2.801   6.015   9.953 -0.3503 -0.0075  4.2874
  108OSM    H9T11076   2.631   5.996   9.918 -1.0965 -2.1277 -1.5195
  108OSM   C10S11077   2.755   5.849   9.813 -0.3456  0.0469 -0.4129
  108OSM   H10S11078   2.668   5.794   9.772  0.7088 -0.5192 -1.9784
  108OSM   H10T11079   2.823   5.768   9.845  2.0960  2.0545 -0.1423
  108OSM   C11S11080   2.828   5.920   9.699  0.1699 -0.3296 -0.5577
  108OSM   H11S11081   2.916   5.974   9.739 -0.5959  0.4860  0.0811
  108OSM   H11T11082   2.759   5.996   9.656 -0.8241 -0.8667  0.0574
  108OSM   C12S11083   2.860   5.816   9.582  0.4970 -0.1272 -0.6573
  108OSM   H12S11084   2.757   5.787   9.554  0.6810 -0.9192 -0.5456
  108OSM   H12T11085   2.906   5.719   9.612 -1.7793 -1.1801 -0.3825
  108OSM   C13S11086   2.935   5.882   9.468  0.0107  0.9285  0.0580
  108OSM   H13S11087   3.044   5.878   9.493  0.2338 -0.2368 -0.9851
  108OSM   H13T11088   2.911   5.990   9.458  2.4069  1.4993 -0.3289
  108OSM   C14S11089   2.911   5.824   9.327 -0.4108  0.3501 -0.0164
  108OSM   H14S11090   2.803   5.840   9.307 -0.8332 -1.2374  0.8107
  108OSM   H14T11091   2.930   5.714   9.324 -2.1795  0.0275 -1.6229
  108OSM   C15S11092   2.986   5.892   9.208 -0.1777 -0.2193 -0.1271
  108OSM   H15S11093   3.093   5.916   9.226 -0.0230 -0.3963 -0.7816
  108OSM   H15T11094   2.935   5.990   9.200 -0.6618 -0.4763 -0.2661
  108OSM   C16S11095   2.957   5.814   9.079  0.0249  0.6112  0.3707
  108OSM   H16S11096   2.846   5.812   9.076  0.0044 -2.5118 -0.6246
  108OSM   H16T11097   2.991   5.708   9.079  0.4936  0.7494 -0.7922
  108OSM   C17S11098   3.011   5.883   8.950  0.2745 -0.1127  0.7595
  108OSM   H17S11099   3.120   5.884   8.933  0.8384  2.0135  3.7160
  108OSM   H17T11100   2.984   5.991   8.954 -1.3911 -0.1679 -3.5755
  108OSM   C18S11101   2.936   5.833   8.820 -0.5144 -0.3301 -0.6176
  108OSM   H18S11102   2.980   5.877   8.728  4.6367 -2.6100  0.3530
  108OSM   H18T11103   2.827   5.853   8.822 -0.5832 -0.7119 -0.5321
  108OSM   H18U11104   2.961   5.725   8.812  1.3795  0.1444 -1.7967
  108OSM    C1F11105   2.432   6.096  10.423 -0.0487  0.0516 -0.0181
  108OSM     OF11106   2.467   6.204  10.374 -1.0275  0.2015 -0.3001
  108OSM    C2F11107   2.298   6.026  10.402  0.3878  0.0686  0.1454
  108OSM    H2F11108   2.222   6.108  10.401 -0.4938 -0.7237  0.6695
  108OSM    H2G11109   2.264   5.953  10.478  1.0787 -0.2204  0.1813
  108OSM    C3F11110   2.299   5.932  10.280  0.6120  0.1597 -0.5573
  108OSM    H3F11111   2.224   5.850  10.287  0.5088  0.3375  0.9034
  108OSM    H3G11112   2.397   5.880  10.283  0.4459 -0.1798 -0.9453
  108OSM    C4F11113   2.258   6.008  10.161  0.0554 -0.3567 -0.2777
  108OSM    H4F11114   2.345   6.073  10.138  0.2708 -0.6955 -0.4370
  108OSM    H4G11115   2.161   6.062  10.156  0.9402  1.4234  0.6434
  108OSM    C5F11116   2.228   5.910  10.045  0.7229  0.0852 -0.0814
  108OSM    H5F11117   2.145   5.839  10.061 -0.6432  0.9979 -2.5268
  108OSM    H5G11118   2.323   5.859  10.016 -0.9134 -1.2824 -3.6527
  108OSM    C6F11119   2.188   5.993   9.915 -0.7554  0.2356 -0.0796
  108OSM    H6F11120   2.098   6.056   9.930 -0.3086  0.7957  0.2935
  108OSM    H6G11121   2.166   5.921   9.834  2.6901 -0.4550 -0.5464
  108OSM    C7F11122   2.306   6.072   9.863 -0.7338  0.3721 -0.6810
  108OSM    H7F11123   2.391   6.005   9.837 -0.5045 -0.0674  1.0155
  108OSM    H7G11124   2.337   6.144   9.942  1.1255 -1.6901  0.6138
  108OSM    C8F11125   2.268   6.151   9.740  0.0706  0.3137 -0.1026
  108OSM    H8F11126   2.174   6.203   9.768 -0.1633 -0.6337  0.9605
  108OSM    H8G11127   2.236   6.084   9.658  0.6173 -1.7451  1.2858
  108OSM    C9F11128   2.376   6.239   9.689 -0.5160 -0.4320 -0.1614
  108OSM    H9F11129   2.389   6.335   9.740  0.1859 -0.0369 -1.0455
  108OSM   C10F11130   2.456   6.197   9.588  0.2162 -0.2346 -0.2311
  108OSM   H10F11131   2.521   6.274   9.543  1.4047 -0.5158  0.9350
  108OSM   C11F11132   2.456   6.070   9.509  0.2499 -0.1034 -0.6385
  108OSM   H11F11133   2.353   6.055   9.470 -0.2903 -1.8191  1.2896
  108OSM   H11G11134   2.494   5.994   9.579  1.7658  0.6652 -0.5876
  108OSM   C12F11135   2.565   6.072   9.399  0.0286  0.0568  0.2805
  108OSM   H12F11136   2.582   5.972   9.354 -1.0552  0.4737 -1.1445
  108OSM   H12G11137   2.658   6.098   9.454 -0.2182 -0.1441  0.8028
  108OSM   C13F11138   2.547   6.173   9.288  0.1523  0.3716  0.5682
  108OSM   H13F11139   2.532   6.279   9.318  1.1858  0.1983  1.8263
  108OSM   H13G11140   2.456   6.151   9.228  0.5322  2.8471 -1.0093
  108OSM   C14F11141   2.656   6.153   9.183  0.1049  0.2307 -0.2841
  108OSM   H14F11142   2.664   6.043   9.173  0.6467  0.1389  0.9800
  108OSM   H14G11143   2.747   6.178   9.241 -1.2519 -0.0284  2.1014
  108OSM   C15F11144   2.635   6.233   9.054  0.5419 -0.1283 -0.4540
  108OSM   H15F11145   2.621   6.341   9.075  1.0794  0.4741 -2.8419
  108OSM   H15G11146   2.541   6.198   9.006  0.6636 -1.7371  0.4129
  108OSM   C16F11147   2.745   6.215   8.948 -0.2337  0.1563 -0.0390
  108OSM   H16F11148   2.765   6.105   8.942 -0.2034  0.2259 -2.2641
  108OSM   H16G11149   2.846   6.253   8.975 -0.0321 -1.8268  2.2941
  108OSM   C17F11150   2.696   6.265   8.812 -0.4888  0.2428  0.4800
  108OSM   H17F11151   2.592   6.230   8.791 -0.1919 -0.0320 -0.5563
  108OSM   H17G11152   2.760   6.205   8.745  1.5909  1.3656  1.3619
  108OSM   C18F11153   2.714   6.414   8.792 -0.5377 -0.1279  0.0846
  108OSM   H18F11154   2.678   6.450   8.694  0.5702  1.4720  0.2248
  108OSM   H18G11155   2.819   6.448   8.807 -0.6974  1.9021 -2.6580
  108OSM   H18H11156   2.653   6.468   8.867  0.3780 -0.9866  1.5031
  109OSM      N11157   1.308   4.957  10.929  1.1933  0.4330 -0.2703
  109OSM    C1511158   1.202   4.934  11.033 -0.2384 -0.3468 -0.3269
  109OSM   H15A11159   1.220   4.973  11.132  2.0839  0.8924 -1.1667
  109OSM   H15B11160   1.186   4.827  11.043  2.3866 -0.9838 -1.8574
  109OSM   H15C11161   1.112   4.981  10.996 -0.1643 -1.2920 -1.8250
  109OSM    C1411162   1.425   4.881  10.959 -0.1324  0.2401  0.6135
  109OSM   H14A11163   1.395   4.777  10.955  0.6864  0.0208 -1.9449
  109OSM   H14B11164   1.464   4.917  11.052 -0.9042  2.2842  0.2145
  109OSM   H14C11165   1.494   4.891  10.877 -1.2365 -1.6141 -0.6456
  109OSM    C1311166   1.254   4.899  10.806  0.5504  0.1896  0.2089
  109OSM   H13A11167   1.225   4.796  10.819  1.1500  0.0282  0.3185
  109OSM   H13B11168   1.332   4.901  10.731 -1.1097  0.8688 -1.5956
  109OSM   H13C11169   1.172   4.959  10.770 -0.7884 -0.5771  1.8510
  109OSM    C1211170   1.336   5.108  10.911  0.7675 -0.0748  0.0399
  109OSM   H12A11171   1.366   5.149  11.007 -1.6456 -3.2605  2.3839
  109OSM   H12B11172   1.238   5.155  10.908  0.7471 -0.1529 -0.5765
  109OSM    C1111173   1.415   5.158  10.785  0.4760  0.3621 -0.7196
  109OSM   H11A11174   1.401   5.268  10.781 -1.7189  0.1244 -0.4287
  109OSM   H11B11175   1.363   5.119  10.695 -2.1644 -1.2430  1.3758
  109OSM      P11176   1.654   5.194  10.892  0.2648  0.4056  0.1395
  109OSM    O1311177   1.580   5.287  10.981  0.2539 -0.0200 -0.4162
  109OSM    O1411178   1.752   5.105  10.958  0.3361 -0.5557  0.2448
  109OSM    O1111179   1.733   5.274  10.780  0.6753 -0.6272  0.4662
  109OSM    O1211180   1.547   5.110  10.795  0.5061  0.2910 -0.5936
  109OSM    C1S11181   1.814   5.205  10.686  0.3554 -0.4726 -0.1147
  109OSM    H1S11182   1.806   5.094  10.689 -0.7849 -0.6431 -3.9710
  109OSM    H1T11183   1.922   5.221  10.703  0.1147  0.7533  0.3593
  109OSM     NF11184   1.868   5.133  10.463 -0.3183  0.3496  0.8325
  109OSM    HNF11185   1.965   5.151  10.448 -0.4562  1.0500  0.7850
  109OSM    C2S11186   1.793   5.239  10.527 -0.6305  0.0117 -0.7007
  109OSM    H2S11187   1.688   5.226  10.494 -0.7055 -3.2500  0.4277
  109OSM    C3S11188   1.840   5.376  10.495 -0.6031  0.5265  0.3885
  109OSM    H3S11189   1.951   5.376  10.502 -0.5742  1.2559  0.0425
  109OSM     O311190   1.797   5.468  10.590 -0.1199  0.0094  0.0390
  109OSM    HO311191   1.781   5.418  10.670 -2.4997 -1.1147 -1.0412
  109OSM    C4S11192   1.802   5.416  10.352  0.4572 -0.7397  0.8474
  109OSM    H4S11193   1.695   5.440  10.350  0.4980 -0.5609  0.7716
  109OSM    C5S11194   1.883   5.429  10.252 -0.0221 -0.1325 -0.6497
  109OSM    H5S11195   1.987   5.398  10.270  0.1256  1.4497  1.7287
  109OSM    C6S11196   1.859   5.468  10.111 -0.7612  0.5797  0.2133
  109OSM    H6S11197   1.860   5.579  10.105  1.1917  0.5522 -1.0608
  109OSM    H6T11198   1.770   5.412  10.075  0.1684 -1.4578  0.9021
  109OSM    C7S11199   1.982   5.407  10.041 -0.2153  0.0096  0.1364
  109OSM    H7S11200   1.995   5.300  10.068  2.2767  0.2882  0.2982
  109OSM    H7T11201   2.067   5.468  10.078 -1.1475  2.0670 -0.9196
  109OSM    C8S11202   1.979   5.433   9.881  0.3521  0.3919 -0.8454
  109OSM    H8S11203   1.907   5.362   9.833 -0.6476  1.6249 -1.2105
  109OSM    H8T11204   2.075   5.397   9.838 -0.0412 -0.5855 -0.9563
  109OSM    C9S11205   1.944   5.575   9.841 -0.0167  0.1696 -0.7213
  109OSM    H9S11206   2.006   5.645   9.902  0.2390 -1.5531  1.1006
  109OSM    H9T11207   1.843   5.598   9.880  0.9350 -0.1929  2.2174
  109OSM   C10S11208   1.949   5.605   9.692 -0.1806  0.2768  0.3600
  109OSM   H10S11209   1.852   5.646   9.655 -0.2088  0.1712  0.3151
  109OSM   H10T11210   1.963   5.515   9.627 -1.4514  0.2252  0.1271
  109OSM   C11S11211   2.058   5.704   9.653  0.4790  0.2635  0.2535
  109OSM   H11S11212   2.158   5.672   9.687  0.4476 -1.9397 -1.4898
  109OSM   H11T11213   2.032   5.805   9.693  0.0124  0.4870 -0.6025
  109OSM   C12S11214   2.063   5.711   9.498  0.1322 -0.2019  0.8849
  109OSM   H12S11215   1.962   5.730   9.456 -0.1508 -2.4100  0.4485
  109OSM   H12T11216   2.095   5.610   9.466 -0.0884  0.0881 -0.3108
  109OSM   C13S11217   2.174   5.805   9.443 -0.4409  0.2812  0.2638
  109OSM   H13S11218   2.269   5.776   9.492  0.4626  1.2280 -0.8315
  109OSM   H13T11219   2.154   5.911   9.470  0.3046  0.7354 -0.8692
  109OSM   C14S11220   2.200   5.791   9.294  0.3264 -0.1509 -0.0145
  109OSM   H14S11221   2.099   5.794   9.249 -0.0253 -0.7603  0.7032
  109OSM   H14T11222   2.249   5.697   9.262  1.0861  0.4451 -0.6221
  109OSM   C15S11223   2.277   5.911   9.245 -0.9051 -0.3717 -0.1684
  109OSM   H15S11224   2.367   5.909   9.310 -0.3215 -2.0282 -0.9709
  109OSM   H15T11225   2.222   6.004   9.270  0.7452  0.8129 -0.7807
  109OSM   C16S11226   2.335   5.906   9.098  0.6570  0.1156 -0.0133
  109OSM   H16S11227   2.389   6.001   9.078 -1.0622  1.6317  2.1528
  109OSM   H16T11228   2.255   5.904   9.021  1.7629 -1.1781 -1.1965
  109OSM   C17S11229   2.433   5.794   9.083  0.8313  0.0576 -0.9092
  109OSM   H17S11230   2.373   5.701   9.074 -1.7454  1.7001 -1.7865
  109OSM   H17T11231   2.503   5.787   9.169  1.3804 -1.0582 -1.4167
  109OSM   C18S11232   2.521   5.805   8.962 -0.4578 -0.5777  0.0802
  109OSM   H18S11233   2.454   5.810   8.873 -1.1558 -1.4398  0.5365
  109OSM   H18T11234   2.586   5.715   8.955 -2.5165 -2.3173  1.7597
  109OSM   H18U11235   2.573   5.902   8.977  0.3837 -0.9498 -0.3652
  109OSM    C1F11236   1.813   5.019  10.435 -0.1615  0.8388  0.3634
  109OSM     OF11237   1.691   5.007  10.439  0.1236  0.1155 -0.1668
  109OSM    C2F11238   1.904   4.897  10.425  0.6578  0.1172 -0.5239
  109OSM    H2F11239   1.912   4.855  10.528  0.0607  0.1416 -0.4655
  109OSM    H2G11240   2.002   4.918  10.376  0.0350  1.7679 -1.1071
  109OSM    C3F11241   1.834   4.792  10.342  0.1513  0.0421 -0.0466
  109OSM    H3F11242   1.802   4.836  10.245 -1.1886 -1.4520 -0.3146
  109OSM    H3G11243   1.745   4.764  10.401  1.5454 -0.3659  1.9846
  109OSM    C4F11244   1.920   4.664  10.331  0.4471 -0.1329 -0.5944
  109OSM    H4F11245   1.963   4.642  10.431  0.5742  0.2067 -0.5694
  109OSM    H4G11246   2.011   4.698  10.277  1.4541  0.3552  1.3025
  109OSM    C5F11247   1.858   4.555  10.242  0.7918  0.3958 -0.1317
  109OSM    H5F11248   1.917   4.462  10.257 -1.7813 -1.2770  0.3127
  109OSM    H5G11249   1.849   4.576  10.133 -0.9686  0.5949  0.0151
  109OSM    C6F11250   1.720   4.508  10.291  0.0007  0.1431 -0.5361
  109OSM    H6F11251   1.628   4.570  10.283 -0.8499 -0.6046  2.2685
  109OSM    H6G11252   1.710   4.491  10.401  0.0905 -0.4780 -0.6212
  109OSM    C7F11253   1.676   4.372  10.219 -0.4260 -0.3687 -0.2893
  109OSM    H7F11254   1.582   4.344  10.271  0.9205 -2.0398  1.3584
  109OSM    H7G11255   1.754   4.301  10.254 -0.9140 -0.0118  1.6890
  109OSM    C8F11256   1.658   4.370  10.072 -0.4011  0.2040  0.6206
  109OSM    H8F11257   1.759   4.366  10.026 -0.2463  0.0457  0.9770
  109OSM    H8G11258   1.612   4.467  10.043 -1.3596  0.2137  2.0854
  109OSM    C9F11259   1.576   4.260  10.017  0.5122 -0.0069 -0.0518
  109OSM    H9F11260   1.568   4.166  10.074 -4.3070 -0.6685 -1.3609
  109OSM   C10F11261   1.503   4.261   9.903  0.3235  0.8260 -0.8649
  109OSM   H10F11262   1.445   4.171   9.880  1.5851  0.0826 -1.2184
  109OSM   C11F11263   1.490   4.372   9.806  0.2775 -0.1559 -0.9574
  109OSM   H11F11264   1.512   4.343   9.701 -0.5549  1.1928 -1.5316
  109OSM   H11G11265   1.569   4.448   9.826  0.6655 -0.7673 -0.1176
  109OSM   C12F11266   1.352   4.444   9.804 -0.6404 -0.2080 -0.5310
  109OSM   H12F11267   1.329   4.465   9.911  1.2212  0.3651 -0.2161
  109OSM   H12G11268   1.275   4.371   9.770  2.3823 -2.9584 -2.0673
  109OSM   C13F11269   1.341   4.569   9.712  0.6183 -0.1352 -0.2000
  109OSM   H13F11270   1.428   4.633   9.738  0.5660 -0.3804  0.6076
  109OSM   H13G11271   1.247   4.623   9.738 -0.3781 -1.2155 -1.4485
  109OSM   C14F11272   1.329   4.530   9.562  0.3514  0.8127  0.2370
  109OSM   H14F11273   1.238   4.469   9.546  1.5712 -0.5468 -2.0649
  109OSM   H14G11274   1.412   4.465   9.528 -2.1911 -1.8371 -1.3728
  109OSM   C15F11275   1.329   4.652   9.476 -0.3498 -0.1615 -0.1798
  109OSM   H15F11276   1.436   4.662   9.450 -1.0186  0.3109 -3.1168
  109OSM   H15G11277   1.310   4.740   9.542  1.9016 -0.3397  0.7892
  109OSM   C16F11278   1.239   4.648   9.360  0.2345  0.0753 -0.6018
  109OSM   H16F11279   1.190   4.740   9.323 -0.1830 -1.0386 -2.9865
  109OSM   H16G11280   1.157   4.575   9.380  1.9469 -1.0546  3.3625
  109OSM   C17F11281   1.319   4.607   9.233 -0.0192 -0.3741  0.2957
  109OSM   H17F11282   1.351   4.502   9.247 -2.6825 -1.0706  1.9805
  109OSM   H17G11283   1.400   4.682   9.222 -0.6295  0.2819  0.2086
  109OSM   C18F11284   1.234   4.611   9.105  0.1283 -0.1947 -0.7348
  109OSM   H18F11285   1.141   4.551   9.110 -0.9735  1.4272 -1.0669
  109OSM   H18G11286   1.285   4.568   9.016  0.8551  0.5478 -0.6956
  109OSM   H18H11287   1.213   4.719   9.089  0.0512 -0.3587 -1.8675
  110OSM      N11288   0.415   3.435  10.660  0.6504 -0.2761  0.8945
  110OSM    C1511289   0.533   3.399  10.748 -0.9532  0.0466  0.8463
  110OSM   H15A11290   0.613   3.372  10.680  1.3178 -1.2045  3.7605
  110OSM   H15B11291   0.516   3.325  10.825  2.3153 -0.4690  1.2459
  110OSM   H15C11292   0.575   3.487  10.794  3.0709 -1.2971  0.1444
  110OSM    C1411293   0.458   3.520  10.536  0.1143 -0.2479 -0.2878
  110OSM   H14A11294   0.363   3.530  10.485 -0.4765  0.9484  0.9815
  110OSM   H14B11295   0.525   3.470  10.467  0.9689  1.0766 -0.4503
  110OSM   H14C11296   0.488   3.622  10.551  0.4042 -0.3094 -0.4321
  110OSM    C1311297   0.359   3.307  10.601 -0.1951  0.3317  0.7496
  110OSM   H13A11298   0.347   3.224  10.670 -0.2497 -1.3442 -1.1839
  110OSM   H13B11299   0.423   3.267  10.525 -3.1776  0.9092 -2.3237
  110OSM   H13C11300   0.265   3.316  10.548 -0.2865 -0.1273  0.8302
  110OSM    C1211301   0.315   3.525  10.737 -0.3041 -0.3499  0.1553
  110OSM   H12A11302   0.371   3.606  10.780  4.4651 -2.5251 -1.3137
  110OSM   H12B11303   0.268   3.469  10.817  0.6671 -2.4162 -0.6651
  110OSM    C1111304   0.189   3.586  10.664 -0.0375 -0.2409 -0.1872
  110OSM   H11A11305   0.219   3.659  10.587 -0.9282 -0.6272 -0.9206
  110OSM   H11B11306   0.126   3.639  10.739 -1.1827 -3.7173  1.5596
  110OSM      P11307   0.020   3.376  10.655 -0.1339  0.4112  0.2374
  110OSM    O1311308   0.067   3.238  10.620 -0.3050  0.0134  0.0003
  110OSM    O1411309   0.001   3.416  10.795 -0.4059 -0.2586 -0.4559
  110OSM    O1111310  -0.120   3.414  10.594 -0.5377 -0.3503 -0.2636
  110OSM    O1211311   0.112   3.486  10.588  0.4071  0.3437  0.0782
  110OSM    C1S11312  -0.128   3.479  10.463 -0.1933  0.5479 -0.2893
  110OSM    H1S11313  -0.075   3.405  10.399  0.8505 -1.7186  2.9515
  110OSM    H1T11314  -0.092   3.584  10.462  0.7470  0.2630 -2.1303
  110OSM     NF11315  -0.270   3.540  10.261 -0.3738 -0.0452  0.0664
  110OSM    HNF11316  -0.281   3.639  10.254  0.8494  0.1141  0.1489
  110OSM    C2S11317  -0.272   3.484  10.397  0.4233 -0.6724  0.3666
  110OSM    H2S11318  -0.306   3.378  10.389 -0.6417 -0.2833 -0.5519
  110OSM    C3S11319  -0.380   3.555  10.492  0.0499  0.3099  0.0429
  110OSM    H3S11320  -0.361   3.662  10.516  1.2403 -0.1137  1.0945
  110OSM     O311321  -0.378   3.492  10.620 -0.3007 -0.5837  0.0600
  110OSM    HO311322  -0.317   3.419  10.614  1.8326  1.0287  0.9127
  110OSM    C4S11323  -0.514   3.536  10.427  0.3289  0.0601  1.3521
  110OSM    H4S11324  -0.547   3.620  10.363  0.6820  0.5466  1.8031
  110OSM    C5S11325  -0.582   3.419  10.421  0.3718 -0.3616  0.3372
  110OSM    H5S11326  -0.540   3.329  10.467 -2.7711 -0.8318  2.6061
  110OSM    C6S11327  -0.713   3.390  10.346 -0.3393  0.3468  0.3332
  110OSM    H6S11328  -0.796   3.447  10.392 -1.4268  0.2226 -1.3634
  110OSM    H6T11329  -0.725   3.279  10.343  0.5145  0.2490  0.2097
  110OSM    C7S11330  -0.728   3.441  10.196  0.1880 -0.0907 -0.1713
  110OSM    H7S11331  -0.725   3.552  10.194 -1.0142 -0.0252  0.2349
  110OSM    H7T11332  -0.836   3.423  10.174  0.5529 -2.2654 -0.3892
  110OSM    C8S11333  -0.630   3.377  10.101  0.2996 -0.0912  0.7613
  110OSM    H8S11334  -0.629   3.271  10.136  0.0080  0.5906  2.9761
  110OSM    H8T11335  -0.526   3.415  10.111  0.5238 -0.8335  1.4764
  110OSM    C9S11336  -0.681   3.385   9.955  0.1913  0.1693  0.2062
  110OSM    H9S11337  -0.765   3.456   9.965 -1.2321 -1.5296  0.7606
  110OSM    H9T11338  -0.708   3.290   9.905  1.0176 -0.4046  0.8159
  110OSM   C10S11339  -0.583   3.447   9.851  0.1037 -0.8869 -0.6179
  110OSM   H10S11340  -0.520   3.367   9.806 -1.6612 -2.5482 -0.2558
  110OSM   H10T11341  -0.526   3.530   9.900  0.3308 -1.0096 -0.6726
  110OSM   C11S11342  -0.669   3.505   9.741  0.0298 -0.1746  0.3464
  110OSM   H11S11343  -0.734   3.593   9.759 -0.8881 -1.0421  1.4087
  110OSM   H11T11344  -0.734   3.423   9.703 -1.1087 -0.4541  2.7332
  110OSM   C12S11345  -0.569   3.533   9.626 -0.1307  0.5062 -0.1133
  110OSM   H12S11346  -0.539   3.434   9.585  0.5727  0.2222  1.0284
  110OSM   H12T11347  -0.472   3.577   9.658  1.0553 -0.6160 -1.9925
  110OSM   C13S11348  -0.622   3.615   9.502  0.0127 -0.2712 -0.4332
  110OSM   H13S11349  -0.660   3.715   9.533 -1.0531 -0.7626 -0.1114
  110OSM   H13T11350  -0.712   3.565   9.461 -1.1449 -0.3386  2.0618
  110OSM   C14S11351  -0.520   3.644   9.395  0.1825  0.4423 -0.3793
  110OSM   H14S11352  -0.461   3.551   9.380 -0.4264  0.3028 -2.2484
  110OSM   H14T11353  -0.451   3.725   9.426 -0.6762  0.3952  1.8278
  110OSM   C15S11354  -0.578   3.684   9.260  0.2948 -0.4165 -0.8739
  110OSM   H15S11355  -0.659   3.760   9.267 -0.4849 -0.7312 -4.3194
  110OSM   H15T11356  -0.631   3.599   9.212 -2.6484  1.8931 -2.0001
  110OSM   C16S11357  -0.476   3.724   9.154 -0.4737  0.0267 -0.1108
  110OSM   H16S11358  -0.406   3.640   9.136 -2.0624 -1.3248 -0.1800
  110OSM   H16T11359  -0.419   3.813   9.187 -0.6036  1.0371 -2.3985
  110OSM   C17S11360  -0.537   3.754   9.023  0.0652  0.0945  0.0529
  110OSM   H17S11361  -0.620   3.682   9.007 -1.2279  0.9112  2.5218
  110OSM   H17T11362  -0.460   3.735   8.944 -1.1567 -3.7648 -0.4288
  110OSM   C18S11363  -0.586   3.898   9.000 -1.2030 -0.9016  0.0763
  110OSM   H18S11364  -0.501   3.969   9.008 -1.6651 -0.4093  0.7559
  110OSM   H18T11365  -0.673   3.932   9.060 -1.6771 -0.0053 -1.0812
  110OSM   H18U11366  -0.625   3.900   8.896  0.3578 -0.7239 -0.5325
  110OSM    C1F11367  -0.192   3.480  10.173  0.0374 -0.0883 -0.8671
  110OSM     OF11368  -0.159   3.362  10.186  0.0510  0.4003 -0.2009
  110OSM    C2F11369  -0.131   3.568  10.067 -0.9895  0.4511 -0.0825
  110OSM    H2F11370  -0.064   3.647  10.105  2.8472 -1.5981 -1.9936
  110OSM    H2G11371  -0.213   3.617  10.010 -0.8026  0.4087 -0.3876
  110OSM    C3F11372  -0.040   3.487   9.970 -0.2429  0.6294  0.0540
  110OSM    H3F11373   0.048   3.439  10.019 -0.4922  1.8817  1.8134
  110OSM    H3G11374   0.000   3.574   9.915 -1.2595  0.7868 -0.4564
  110OSM    C4F11375  -0.113   3.395   9.870  0.5542  0.1225 -0.2037
  110OSM    H4F11376  -0.183   3.460   9.815 -1.0960  0.0078  1.6646
  110OSM    H4G11377  -0.161   3.307   9.918 -0.0478 -0.6351 -2.1120
  110OSM    C5F11378  -0.022   3.329   9.765 -0.0531  0.3844  0.1593
  110OSM    H5F11379  -0.067   3.245   9.707  0.0224 -0.4565  1.2951
  110OSM    H5G11380   0.056   3.293   9.835 -0.0031  1.8486  0.8866
  110OSM    C6F11381   0.046   3.425   9.667  0.7495  0.4445  0.3434
  110OSM    H6F11382   0.110   3.500   9.719 -0.0696  0.5251  1.2641
  110OSM    H6G11383  -0.038   3.466   9.608  1.0961  2.1765  0.9918
  110OSM    C7F11384   0.143   3.347   9.577 -0.4985 -0.5613  0.4400
  110OSM    H7F11385   0.088   3.263   9.530  1.5054 -1.4660 -0.3872
  110OSM    H7G11386   0.231   3.306   9.631 -2.0191 -0.3583  3.2622
  110OSM    C8F11387   0.194   3.437   9.458  0.0618  0.5996 -0.2118
  110OSM    H8F11388   0.230   3.533   9.499  0.7198 -0.7772  2.7035
  110OSM    H8G11389   0.116   3.467   9.385 -1.9140  2.8632  2.6082
  110OSM    C9F11390   0.308   3.357   9.402  0.2210 -0.2299  0.3693
  110OSM    H9F11391   0.391   3.351   9.474  0.4316  3.0156  0.5474
  110OSM   C10F11392   0.315   3.293   9.284  0.1859  0.1487  0.2954
  110OSM   H10F11393   0.407   3.239   9.259  1.0448  1.7260 -0.0880
  110OSM   C11F11394   0.206   3.285   9.169 -0.2904  0.1894 -0.5509
  110OSM   H11F11395   0.104   3.305   9.209 -0.1814  2.7255 -1.3568
  110OSM   H11G11396   0.198   3.185   9.121  0.5721 -1.2239  2.0257
  110OSM   C12F11397   0.237   3.397   9.069 -0.3561 -0.0106  0.4362
  110OSM   H12F11398   0.263   3.493   9.118 -1.3646 -0.3034  1.6014
  110OSM   H12G11399   0.147   3.395   9.004  1.5709 -2.1808 -2.3976
  110OSM   C13F11400   0.355   3.353   8.972  0.8472  1.1466 -0.6213
  110OSM   H13F11401   0.332   3.375   8.866  0.7559 -1.1165 -1.1263
  110OSM   H13G11402   0.363   3.242   8.979 -1.9810  0.9136  0.4868
  110OSM   C14F11403   0.494   3.413   9.007  0.0072  0.8255  0.2696
  110OSM   H14F11404   0.579   3.343   8.994  1.3195  2.1883  1.1033
  110OSM   H14G11405   0.490   3.449   9.112 -0.8123 -0.6876  0.7821
  110OSM   C15F11406   0.518   3.539   8.921 -0.7614  0.8725  0.2949
  110OSM   H15F11407   0.600   3.593   8.974 -0.4299 -0.4600  1.1817
  110OSM   H15G11408   0.431   3.607   8.914 -1.2221  0.1130 -3.4206
  110OSM   C16F11409   0.567   3.513   8.783  0.2525  0.0755  0.3368
  110OSM   H16F11410   0.492   3.449   8.732 -1.2302  1.0083  1.2917
  110OSM   H16G11411   0.667   3.464   8.784  1.3019  2.1245  0.4865
  110OSM   C17F11412   0.581   3.639   8.693  0.4976  0.3899 -0.0679
  110OSM   H17F11413   0.477   3.666   8.664  0.7839 -1.1916 -2.8844
  110OSM   H17G11414   0.633   3.612   8.599  1.4220  0.1072  0.5023
  110OSM   C18F11415   0.664   3.757   8.752  0.0476  0.0114 -0.1442
  110OSM   H18F11416   0.624   3.810   8.842  2.3605  0.1690  0.8459
  110OSM   H18G11417   0.679   3.837   8.676 -1.2812  1.4283  1.0055
  110OSM   H18H11418   0.764   3.730   8.792  0.0808 -1.4478 -1.1566
  111OSM      N11419   4.112   0.864  10.714  0.5419  0.4829  0.3701
  111OSM    C1511420   4.031   0.834  10.834  0.2746 -0.1296 -0.6221
  111OSM   H15A11421   3.926   0.821  10.812  0.5704 -0.9177 -1.6098
  111OSM   H15B11422   4.028   0.933  10.878  1.4222 -0.5569  0.4772
  111OSM   H15C11423   4.078   0.762  10.899  2.3746 -0.3982 -2.3190
  111OSM    C1411424   4.242   0.937  10.755  0.7885 -0.2323  0.3114
  111OSM   H14A11425   4.224   1.042  10.775 -1.4401 -0.2464 -1.2912
  111OSM   H14B11426   4.318   0.942  10.678 -1.1813  0.5180 -1.6844
  111OSM   H14C11427   4.292   0.888  10.836  0.8273  1.7629  1.5593
  111OSM    C1311428   4.143   0.721  10.670  0.3353 -0.2373  0.6163
  111OSM   H13A11429   4.207   0.728  10.584  0.4764  1.3057  0.8208
  111OSM   H13B11430   4.045   0.681  10.647 -0.6465  2.6603 -0.7400
  111OSM   H13C11431   4.189   0.678  10.758 -0.9779 -0.2215  1.3390
  111OSM    C1211432   4.028   0.943  10.615  0.3618  0.3885  0.1634
  111OSM   H12A11433   4.092   0.963  10.530  3.0691 -0.4007  1.9082
  111OSM   H12B11434   4.011   1.045  10.647 -2.2380  0.6992 -1.8261
  111OSM    C1111435   3.888   0.885  10.567 -0.1115  0.8701 -0.5087
  111OSM   H11A11436   3.898   0.791  10.508  1.4566  0.5510  0.2025
  111OSM   H11B11437   3.845   0.960  10.497 -1.0554  1.7083  0.9210
  111OSM      P11438   3.694   0.745  10.673 -0.7189  0.0285  0.2225
  111OSM    O1311439   3.771   0.620  10.674 -0.5444  0.0426 -0.4447
  111OSM    O1411440   3.590   0.761  10.778 -0.0197 -0.4090 -0.2333
  111OSM    O1111441   3.624   0.753  10.530  0.2722 -0.1090  0.7957
  111OSM    O1211442   3.792   0.861  10.675  0.2921  1.1239  0.1895
  111OSM    C1S11443   3.527   0.853  10.504  0.0551  0.4049 -0.2572
  111OSM    H1S11444   3.558   0.943  10.562  0.9414  1.1771 -1.8597
  111OSM    H1T11445   3.426   0.808  10.518  0.7653 -1.1485  0.1588
  111OSM     NF11446   3.442   1.015  10.338  0.1524 -0.0829  0.4349
  111OSM    HNF11447   3.353   1.005  10.294  1.4452  0.0599 -2.4402
  111OSM    C2S11448   3.532   0.900  10.355 -0.5695 -0.0485 -0.0871
  111OSM    H2S11449   3.636   0.935  10.342 -1.2129  1.7980 -0.4547
  111OSM    C3S11450   3.511   0.779  10.258  0.4728 -0.3828  0.9114
  111OSM    H3S11451   3.409   0.736  10.257 -0.0179  0.7503  0.7356
  111OSM     O311452   3.590   0.667  10.285  0.3705 -0.2217 -1.0260
  111OSM    HO311453   3.638   0.696  10.363  0.3988 -0.3709 -0.9867
  111OSM    C4S11454   3.536   0.821  10.125  0.5634 -0.0685  0.1116
  111OSM    H4S11455   3.634   0.865  10.099 -0.7462  2.2536 -1.1489
  111OSM    C5S11456   3.455   0.808  10.016  0.5412 -0.3317  0.1977
  111OSM    H5S11457   3.361   0.750  10.011 -0.5216  1.4151 -0.9042
  111OSM    C6S11458   3.499   0.861   9.878  0.1870 -0.4985 -0.6327
  111OSM    H6S11459   3.609   0.863   9.860  1.1671  1.8554  3.9890
  111OSM    H6T11460   3.480   0.970   9.881 -0.0325 -0.4867 -1.9234
  111OSM    C7S11461   3.417   0.807   9.762 -0.8727 -0.7924 -0.1351
  111OSM    H7S11462   3.314   0.842   9.786 -0.3329 -0.7605  2.4433
  111OSM    H7T11463   3.424   0.696   9.759  0.0063 -0.7218 -1.4719
  111OSM    C8S11464   3.455   0.855   9.628  0.3721  0.0918  0.3989
  111OSM    H8S11465   3.452   0.966   9.623 -1.1027  0.1061 -5.0860
  111OSM    H8T11466   3.383   0.829   9.547  2.2585  0.2685 -1.4196
  111OSM    C9S11467   3.594   0.816   9.580  0.8880  0.2370 -0.0255
  111OSM    H9S11468   3.604   0.707   9.566 -1.3609  0.1378 -1.1692
  111OSM    H9T11469   3.663   0.856   9.658  0.9729  0.8198 -0.3870
  111OSM   C10S11470   3.639   0.888   9.446 -0.4232 -0.5561  0.2762
  111OSM   H10S11471   3.578   0.979   9.431 -0.6534 -0.4562  1.7026
  111OSM   H10T11472   3.617   0.817   9.363 -1.9299 -1.1275  1.1223
  111OSM   C11S11473   3.791   0.932   9.440  1.5366 -1.3153  0.1533
  111OSM   H11S11474   3.861   0.847   9.426  2.7337 -0.0511 -2.0211
  111OSM   H11T11475   3.824   0.986   9.532 -0.9847  0.0513  0.3420
  111OSM   C12S11476   3.821   1.027   9.322  0.7330 -0.2125 -0.4062
  111OSM   H12S11477   3.931   1.037   9.309  1.2590 -0.1163  3.2310
  111OSM   H12T11478   3.779   1.124   9.356 -1.1092 -0.9536 -0.4416
  111OSM   C13S11479   3.757   0.982   9.193  0.1258 -0.0188  0.2100
  111OSM   H13S11480   3.647   0.967   9.200  0.2508 -1.2134 -0.1500
  111OSM   H13T11481   3.802   0.892   9.146  0.8149  1.5549 -2.3449
  111OSM   C14S11482   3.792   1.079   9.079 -0.5091 -0.3626 -0.5575
  111OSM   H14S11483   3.902   1.096   9.084 -0.4615 -0.9084  0.4544
  111OSM   H14T11484   3.739   1.176   9.089 -0.8630 -0.7753  2.1626
  111OSM   C15S11485   3.743   1.039   8.937  0.6504 -0.3935 -0.3707
  111OSM   H15S11486   3.635   1.022   8.956  0.6786  0.6125  0.8463
  111OSM   H15T11487   3.793   0.946   8.902  1.4719  0.1149 -0.5960
  111OSM   C16S11488   3.762   1.140   8.824  0.1521  0.0712 -0.3116
  111OSM   H16S11489   3.865   1.128   8.784  0.2293 -1.0058  0.1848
  111OSM   H16T11490   3.742   1.239   8.871  1.2714 -0.6796  1.8909
  111OSM   C17S11491   3.661   1.123   8.714 -0.0256 -0.2054  0.0667
  111OSM   H17S11492   3.557   1.128   8.753 -1.1317  0.3723 -2.7051
  111OSM   H17T11493   3.678   1.020   8.675  0.6489 -0.2511  0.4602
  111OSM   C18S11494   3.668   1.215   8.596 -0.0064  0.3384 -0.3795
  111OSM   H18S11495   3.677   1.323   8.621  1.1139  0.6075 -1.7978
  111OSM   H18T11496   3.596   1.194   8.513  0.1606  1.0468 -0.7123
  111OSM   H18U11497   3.765   1.197   8.544 -0.8206  1.4761 -2.4375
  111OSM    C1F11498   3.466   1.139  10.388 -0.1996 -0.1757 -0.2211
  111OSM     OF11499   3.570   1.158  10.450  0.0019 -0.0769 -0.1278
  111OSM    C2F11500   3.362   1.246  10.372  0.4896  0.3812  0.0773
  111OSM    H2F11501   3.263   1.206  10.402 -0.1617  0.4250 -1.9149
  111OSM    H2G11502   3.361   1.266  10.263 -1.6975 -1.1027 -0.2336
  111OSM    C3F11503   3.380   1.383  10.446 -0.2268  0.6373 -0.3490
  111OSM    H3F11504   3.484   1.414  10.424  0.0710 -0.4694 -0.5880
  111OSM    H3G11505   3.360   1.374  10.555 -1.1844 -0.1475 -0.5669
  111OSM    C4F11506   3.300   1.504  10.383 -0.6438 -0.0312  0.1641
  111OSM    H4F11507   3.327   1.585  10.455 -1.6920  0.0004  0.5388
  111OSM    H4G11508   3.189   1.494  10.382 -0.7710  1.1970  0.2976
  111OSM    C5F11509   3.358   1.552  10.244 -0.0599 -0.2183 -0.3355
  111OSM    H5F11510   3.362   1.458  10.184  0.7429  0.5219 -1.4939
  111OSM    H5G11511   3.459   1.594  10.263  0.2868 -1.9274  2.1245
  111OSM    C6F11512   3.274   1.666  10.180 -0.1757 -0.2378 -0.2384
  111OSM    H6F11513   3.261   1.753  10.248 -0.3808 -0.7007  0.3264
  111OSM    H6G11514   3.176   1.615  10.169 -0.7520  1.0048 -1.1232
  111OSM    C7F11515   3.327   1.694  10.041 -0.4642  0.6957 -0.5341
  111OSM    H7F11516   3.319   1.603   9.978 -1.2916  1.3802 -1.4289
  111OSM    H7G11517   3.437   1.705  10.055 -0.6085 -0.4371  2.1211
  111OSM    C8F11518   3.271   1.833   9.988  0.1038 -1.4647 -0.6983
  111OSM    H8F11519   3.342   1.863   9.907  0.1809  1.0016  0.1918
  111OSM    H8G11520   3.286   1.907  10.070  0.3819 -2.8917  0.5772
  111OSM    C9F11521   3.132   1.809   9.939  0.2985 -0.3452 -0.4529
  111OSM    H9F11522   3.054   1.843  10.009  0.6625  0.7659 -0.5675
  111OSM   C10F11523   3.096   1.759   9.820  0.0430  0.4879 -0.0803
  111OSM   H10F11524   2.989   1.744   9.796  0.3498 -0.8905 -0.6761
  111OSM   C11F11525   3.189   1.719   9.708 -1.1451  1.3139 -0.1308
  111OSM   H11F11526   3.159   1.618   9.674 -1.1298  0.6759  1.6420
  111OSM   H11G11527   3.297   1.723   9.734 -0.7061 -0.3378 -1.5493
  111OSM   C12F11528   3.173   1.811   9.583 -0.0130  0.7093  0.1646
  111OSM   H12F11529   3.246   1.777   9.507 -1.1519 -0.1212 -0.5876
  111OSM   H12G11530   3.193   1.917   9.612 -1.2049  0.9452  0.1613
  111OSM   C13F11531   3.027   1.803   9.523  0.2289  0.4571  0.0954
  111OSM   H13F11532   2.947   1.832   9.595 -1.9714 -2.1282 -1.1230
  111OSM   H13G11533   3.004   1.697   9.498  0.6911  0.1765  0.8216
  111OSM   C14F11534   3.016   1.887   9.399 -0.2528  0.1170  0.5581
  111OSM   H14F11535   3.031   1.995   9.422 -3.7924  1.1146 -1.1142
  111OSM   H14G11536   2.914   1.869   9.358  0.9900 -1.8935 -1.9253
  111OSM   C15F11537   3.089   1.832   9.272  0.1938 -0.6073 -0.1928
  111OSM   H15F11538   3.027   1.752   9.226 -0.8492 -1.1067  1.9529
  111OSM   H15G11539   3.193   1.794   9.284  0.6526  1.0316  1.5049
  111OSM   C16F11540   3.113   1.934   9.157 -0.4950  0.3935  0.1674
  111OSM   H16F11541   3.169   1.891   9.072  0.7185 -0.1521  1.1985
  111OSM   H16G11542   3.180   2.013   9.197 -1.0123 -0.1283  2.2007
  111OSM   C17F11543   2.984   1.992   9.095 -0.1315  0.1832  0.5086
  111OSM   H17F11544   2.940   2.071   9.160  1.4149  1.3997  0.1453
  111OSM   H17G11545   2.913   1.908   9.079  0.0369  0.2516 -0.6379
  111OSM   C18F11546   2.996   2.054   8.949  0.2260 -0.8207  0.4618
  111OSM   H18F11547   3.086   2.119   8.956 -0.4377  0.0959  0.6222
  111OSM   H18G11548   2.899   2.105   8.931  1.0677  0.1482 -1.6837
  111OSM   H18H11549   3.010   1.976   8.871 -0.8674 -1.1729  0.6055
  112OSM      N11550   0.477   0.591  10.632 -0.1202  0.0376  0.2226
  112OSM    C1511551   0.596   0.684  10.665  0.1248  0.4344  0.0368
  112OSM   H15A11552   0.632   0.651  10.762 -0.0780  1.1632  0.3703
  112OSM   H15B11553   0.573   0.786  10.690  0.2032  0.6221 -0.6362
  112OSM   H15C11554   0.679   0.664  10.599 -0.2046 -0.1264 -0.2149
  112OSM    C1411555   0.358   0.661  10.692  0.4026  0.2666 -0.4475
  112OSM   H14A11556   0.381   0.685  10.795 -0.6987 -0.8368  0.0772
  112OSM   H14B11557   0.266   0.609  10.674 -0.1779  1.2034 -0.2685
  112OSM   H14C11558   0.345   0.748  10.628 -1.1492 -0.3074 -0.9451
  112OSM    C1311559   0.459   0.593  10.485 -0.4621 -0.4646  0.1945
  112OSM   H13A11560   0.551   0.556  10.441 -0.6661 -0.6745 -0.0574
  112OSM   H13B11561   0.442   0.693  10.447 -0.8664 -1.2779 -1.8964
  112OSM   H13C11562   0.374   0.538  10.448 -1.4218  2.0404 -1.6008
  112OSM    C1211563   0.488   0.451  10.686  0.4194 -0.9073 -0.2546
  112OSM   H12A11564   0.400   0.394  10.662  1.2897 -2.4100 -0.0640
  112OSM   H12B11565   0.484   0.462  10.793  1.2779  0.8853 -0.3727
  112OSM    C1111566   0.611   0.370  10.648 -0.1621  0.5594 -0.0059
  112OSM   H11A11567   0.709   0.411  10.682  1.4246 -4.9821  3.5123
  112OSM   H11B11568   0.607   0.349  10.539  0.7374 -0.8074  0.2020
  112OSM      P11569   0.508   0.131  10.698  0.1754  0.1667  0.6198
  112OSM    O1311570   0.555  -0.001  10.738 -0.4527 -0.2452 -0.4563
  112OSM    O1411571   0.381   0.182  10.755  0.4730 -0.4253  0.0783
  112OSM    O1111572   0.484   0.127  10.542 -0.4867 -0.0755  0.6479
  112OSM    O1211573   0.614   0.243  10.716 -0.3016  0.4837  0.1279
  112OSM    C1S11574   0.583   0.056  10.459 -0.2181  0.8869 -0.2094
  112OSM    H1S11575   0.581  -0.054  10.478  1.3512  0.8925  0.0735
  112OSM    H1T11576   0.686   0.094  10.475 -0.3764  0.5077  1.9831
  112OSM     NF11577   0.663   0.004  10.229  0.0914  0.1580  0.1891
  112OSM    HNF11578   0.734   0.043  10.172  0.2837 -2.5439 -1.5613
  112OSM    C2S11579   0.562   0.076  10.305 -0.4575 -0.0757  0.7556
  112OSM    H2S11580   0.463   0.039  10.272 -0.4050 -0.4091  0.9668
  112OSM    C3S11581   0.567   0.221  10.267 -0.1079 -0.3600 -0.5655
  112OSM    H3S11582   0.661   0.268  10.304  0.8774  0.4641 -3.8345
  112OSM     O311583   0.468   0.293  10.341  0.0494 -0.2706  0.5424
  112OSM    HO311584   0.460   0.248  10.425  0.4057  1.0355  1.2971
  112OSM    C4S11585   0.564   0.259  10.117 -0.5062 -1.4469  0.9141
  112OSM    H4S11586   0.660   0.259  10.063 -0.6539  1.2546  0.4680
  112OSM    C5S11587   0.454   0.270  10.042  0.0614 -1.2366  0.4383
  112OSM    H5S11588   0.356   0.240  10.084 -0.2354 -1.2807 -0.2772
  112OSM    C6S11589   0.445   0.301   9.896 -0.4684 -0.7766 -0.5449
  112OSM    H6S11590   0.518   0.379   9.864 -0.5206 -0.5036 -0.0135
  112OSM    H6T11591   0.343   0.340   9.875  0.4002  1.9332 -0.1637
  112OSM    C7S11592   0.448   0.185   9.794  1.0727 -0.0167  0.1550
  112OSM    H7S11593   0.437   0.228   9.692  2.2371  1.6366  0.6774
  112OSM    H7T11594   0.362   0.117   9.810  0.0921  0.3774 -2.8157
  112OSM    C8S11595   0.569   0.092   9.803  0.0101 -0.5948 -1.2615
  112OSM    H8S11596   0.555   0.038   9.899 -2.1037  1.2006 -0.4868
  112OSM    H8T11597   0.665   0.149   9.799  1.3365 -2.4661  1.0546
  112OSM    C9S11598   0.575   0.001   9.682 -0.1893  0.0513  0.4785
  112OSM    H9S11599   0.482  -0.058   9.669  0.1388 -0.4960  0.5711
  112OSM    H9T11600   0.643  -0.080   9.717  0.9474  1.7294  2.3872
  112OSM   C10S11601   0.630   0.056   9.546 -0.0749  0.6479 -0.3145
  112OSM   H10S11602   0.637  -0.040   9.491  1.0130  0.1291  0.6963
  112OSM   H10T11603   0.728   0.104   9.566 -0.0116  0.8245 -1.0176
  112OSM   C11S11604   0.545   0.146   9.478  0.4903  0.6339 -0.1001
  112OSM   H11S11605   0.565   0.242   9.530 -0.7644  1.4500 -1.0827
  112OSM   H11T11606   0.439   0.122   9.496  0.7516  0.1302  0.8300
  112OSM   C12S11607   0.571   0.164   9.331 -0.5830 -0.2459  0.3508
  112OSM   H12S11608   0.569   0.059   9.296  3.2927 -0.5159  0.5258
  112OSM   H12T11609   0.665   0.218   9.307 -0.7413  0.4014  1.1424
  112OSM   C13S11610   0.463   0.253   9.269  0.2923  0.0085 -0.4544
  112OSM   H13S11611   0.477   0.356   9.307  2.8732 -0.6572  0.6089
  112OSM   H13T11612   0.372   0.198   9.304  1.6662 -0.3499  2.9194
  112OSM   C14S11613   0.443   0.251   9.116 -0.6010  0.2894 -0.2114
  112OSM   H14S11614   0.399   0.150   9.098 -1.6768  0.8831 -1.0402
  112OSM   H14T11615   0.545   0.244   9.074 -0.0392  0.5674  1.0637
  112OSM   C15S11616   0.351   0.356   9.049  0.2178 -0.1785  0.4456
  112OSM   H15S11617   0.400   0.450   9.080 -0.3024 -0.1357  1.1654
  112OSM   H15T11618   0.252   0.343   9.099 -0.5205 -0.4250 -1.0130
  112OSM   C16S11619   0.352   0.345   8.892  0.0671 -0.5161 -0.4720
  112OSM   H16S11620   0.289   0.429   8.856 -2.3743 -0.7332  2.8285
  112OSM   H16T11621   0.310   0.245   8.865  1.1517 -0.8127 -1.1380
  112OSM   C17S11622   0.491   0.362   8.829 -0.0343 -0.3184  0.3987
  112OSM   H17S11623   0.558   0.286   8.876  0.7614  0.4957  0.6332
  112OSM   H17T11624   0.540   0.458   8.856  0.0746  0.4229 -2.2007
  112OSM   C18S11625   0.498   0.334   8.677 -0.7129  0.0560 -0.7033
  112OSM   H18S11626   0.598   0.302   8.642 -0.3431  0.1823  0.1933
  112OSM   H18T11627   0.478   0.428   8.622 -0.7183 -0.4849 -1.6311
  112OSM   H18U11628   0.422   0.260   8.644 -1.2611 -0.5760  1.7097
  112OSM    C1F11629   0.662  -0.127  10.219 -0.6098  0.0682  0.2645
  112OSM     OF11630   0.585  -0.192  10.280 -0.3840  0.4042 -0.4742
  112OSM    C2F11631   0.765  -0.191  10.123 -0.1103 -0.4588  0.1502
  112OSM    H2F11632   0.867  -0.163  10.160  0.5911 -2.4527 -0.1170
  112OSM    H2G11633   0.745  -0.139  10.028 -0.3992  1.5243  1.2436
  112OSM    C3F11634   0.761  -0.337  10.099  0.1282  0.1306 -0.3772
  112OSM    H3F11635   0.783  -0.391  10.194  1.7119  1.0196 -0.2066
  112OSM    H3G11636   0.855  -0.359  10.044  0.7562  1.1222  0.2907
  112OSM    C4F11637   0.633  -0.385  10.027  1.0623 -0.3135 -0.5908
  112OSM    H4F11638   0.583  -0.304   9.969 -2.0907 -2.0344 -0.4738
  112OSM    H4G11639   0.554  -0.413  10.099  2.6741  1.7421  2.1845
  112OSM    C5F11640   0.664  -0.502   9.933  0.2448  0.7745  0.0188
  112OSM    H5F11641   0.568  -0.558   9.933  0.5106  0.3138  0.3894
  112OSM    H5G11642   0.736  -0.578   9.966  2.5447  2.2301 -1.3678
  112OSM    C6F11643   0.704  -0.463   9.789 -0.4123  0.7475  0.3860
  112OSM    H6F11644   0.793  -0.399   9.799 -1.1863  2.1322 -1.1146
  112OSM    H6G11645   0.622  -0.409   9.736 -1.1941 -1.9252 -1.3808
  112OSM    C7F11646   0.735  -0.595   9.706  0.6949  0.6795  0.2004
  112OSM    H7F11647   0.643  -0.657   9.711  1.3044 -0.1524  1.5819
  112OSM    H7G11648   0.816  -0.646   9.762  0.0648  0.1938  0.6889
  112OSM    C8F11649   0.783  -0.566   9.565 -0.8729  0.5887  0.5128
  112OSM    H8F11650   0.834  -0.657   9.524 -0.7073  1.4753 -1.3631
  112OSM    H8G11651   0.862  -0.489   9.569  0.5591 -0.6596 -1.4129
  112OSM    C9F11652   0.671  -0.521   9.476  0.0579  0.0517  0.2921
  112OSM    H9F11653   0.602  -0.445   9.514 -0.9503 -0.4873 -0.4032
  112OSM   C10F11654   0.646  -0.574   9.354 -0.8662 -0.0554 -0.8332
  112OSM   H10F11655   0.568  -0.527   9.293  0.0341  2.6330 -0.0627
  112OSM   C11F11656   0.732  -0.680   9.289 -0.2705 -0.3108  0.6165
  112OSM   H11F11657   0.726  -0.771   9.352  1.8558 -1.2064 -0.3581
  112OSM   H11G11658   0.840  -0.655   9.283 -0.6758  1.6212  0.6477
  112OSM   C12F11659   0.702  -0.690   9.133  0.6682  0.1810 -0.8362
  112OSM   H12F11660   0.728  -0.602   9.070 -0.0851 -0.3414 -1.8916
  112OSM   H12G11661   0.593  -0.703   9.118  0.5666  1.3459 -1.2688
  112OSM   C13F11662   0.772  -0.811   9.063 -0.4971 -0.2827  0.0248
  112OSM   H13F11663   0.749  -0.815   8.954 -0.3764 -1.4786  0.0242
  112OSM   H13G11664   0.739  -0.909   9.104 -0.2940 -0.1591  0.4910
  112OSM   C14F11665   0.927  -0.799   9.067  0.3917 -0.3045  0.6396
  112OSM   H14F11666   0.963  -0.877   9.137  0.6517 -0.4557  0.3371
  112OSM   H14G11667   0.963  -0.707   9.118 -0.3934  0.2296  0.2468
  112OSM   C15F11668   0.995  -0.807   8.930 -0.4565 -0.3838  0.7451
  112OSM   H15F11669   0.991  -0.909   8.886 -1.0844  0.7860 -2.1116
  112OSM   H15G11670   1.103  -0.794   8.954  0.2969 -0.3635 -2.2931
  112OSM   C16F11671   0.952  -0.696   8.831  0.1344  0.0344  0.4445
  112OSM   H16F11672   0.844  -0.694   8.803  0.0532  0.5538  0.7931
  112OSM   H16G11673   1.021  -0.715   8.746 -0.1335  1.2550 -0.0602
  112OSM   C17F11674   0.983  -0.554   8.879  0.6583  0.7501 -0.5021
  112OSM   H17F11675   1.084  -0.562   8.923  0.5177  1.8843  0.0715
  112OSM   H17G11676   0.919  -0.517   8.962  0.4060 -3.9155  1.7103
  112OSM   C18F11677   0.987  -0.454   8.762 -0.0682  0.1472 -0.3153
  112OSM   H18F11678   0.983  -0.352   8.805  0.9290 -0.8760  2.4828
  112OSM   H18G11679   0.898  -0.463   8.697  0.4480 -0.6378 -0.9347
  112OSM   H18H11680   1.078  -0.476   8.702 -0.0505  1.4901 -0.8092
  113OSM      N11681   2.066   5.057  11.173 -0.0521 -0.3470  0.0357
  113OSM    C1511682   2.036   5.182  11.110 -0.1165 -0.5891 -0.1892
  113OSM   H15A11683   2.085   5.196  11.015  0.6507  3.2109  0.6374
  113OSM   H15B11684   2.059   5.268  11.170  1.9664  0.7059 -2.6611
  113OSM   H15C11685   1.928   5.189  11.104 -0.2331 -0.9206  1.1615
  113OSM    C1411686   1.997   5.041  11.301 -0.1322 -0.2742  0.6746
  113OSM   H14A11687   2.019   4.946  11.347  0.3361 -1.3458 -1.6033
  113OSM   H14B11688   1.890   5.057  11.295 -0.1996 -0.7383  0.5783
  113OSM   H14C11689   2.027   5.127  11.357  1.9187  0.0886 -0.8639
  113OSM    C1311690   2.012   4.940  11.090  0.1202 -0.1793  0.2747
  113OSM   H13A11691   1.904   4.936  11.085  0.1940 -2.0611 -0.2691
  113OSM   H13B11692   2.051   4.843  11.116 -1.6674 -1.6141 -1.9932
  113OSM   H13C11693   2.046   4.965  10.990  0.9574  0.3240  0.6713
  113OSM    C1211694   2.220   5.047  11.192  0.1865 -0.0043  0.0820
  113OSM   H12A11695   2.239   4.967  11.262  1.0409  1.0084  1.0382
  113OSM   H12B11696   2.248   5.140  11.238  0.1831 -0.4055  0.9106
  113OSM    C1111697   2.308   5.033  11.065 -0.2000  0.1712 -0.4671
  113OSM   H11A11698   2.291   4.942  11.003 -0.2007  0.5205 -0.9860
  113OSM   H11B11699   2.412   5.021  11.102 -0.7991 -0.7548  1.0296
  113OSM      P11700   2.376   5.279  11.012  0.0661 -0.0147  0.2826
  113OSM    O1311701   2.288   5.387  11.043  0.3834 -0.6106  0.2826
  113OSM    O1411702   2.487   5.243  11.100  0.4389 -0.2267 -0.0729
  113OSM    O1111703   2.443   5.303  10.866  0.2696 -0.5830  0.2607
  113OSM    O1211704   2.297   5.146  10.981  0.1055  0.0125  0.1321
  113OSM    C1S11705   2.488   5.192  10.785  0.0274 -0.3113  0.0080
  113OSM    H1S11706   2.405   5.157  10.720  1.2590 -1.6626 -0.8799
  113OSM    H1T11707   2.532   5.109  10.845  1.0761  0.2804  0.0683
  113OSM     NF11708   2.626   5.108  10.606 -0.1607  0.1940  0.5636
  113OSM    HNF11709   2.713   5.067  10.631  0.6181  0.1623 -1.9544
  113OSM    C2S11710   2.599   5.228  10.682  0.4680  0.2939  0.5599
  113OSM    H2S11711   2.564   5.304  10.609 -0.0928  0.0495  0.5702
  113OSM    C3S11712   2.721   5.290  10.751  0.2858  0.1435  0.1556
  113OSM    H3S11713   2.771   5.224  10.825 -0.7367 -0.5573  0.2240
  113OSM     O311714   2.681   5.403  10.825 -0.2620  0.3814 -0.1195
  113OSM    HO311715   2.588   5.384  10.842 -0.0039 -1.0953 -0.2658
  113OSM    C4S11716   2.822   5.338  10.651  0.2286  0.5350 -0.0548
  113OSM    H4S11717   2.907   5.270  10.637 -0.1944  0.3434 -1.9650
  113OSM    C5S11718   2.817   5.449  10.572  0.4654  0.1027  0.3321
  113OSM    H5S11719   2.726   5.510  10.581  1.9328  2.3323  0.8629
  113OSM    C6S11720   2.922   5.496  10.471  0.3560  0.6056 -0.0825
  113OSM    H6S11721   2.937   5.603  10.493  0.7394  0.8301 -1.3571
  113OSM    H6T11722   2.893   5.487  10.364  0.1979 -0.2747  0.0212
  113OSM    C7S11723   3.064   5.437  10.473  0.5031  0.1555  0.0413
  113OSM    H7S11724   3.052   5.331  10.442  1.3077 -0.6221  2.2733
  113OSM    H7T11725   3.103   5.442  10.576  1.5292  0.8699 -0.3653
  113OSM    C8S11726   3.163   5.512  10.386 -0.2080  0.1509 -0.5655
  113OSM    H8S11727   3.266   5.478  10.411 -0.8303 -1.1807  0.3020
  113OSM    H8T11728   3.149   5.621  10.398  1.3097  0.5345 -1.9017
  113OSM    C9S11729   3.139   5.483  10.234 -0.0326  0.4505 -0.1722
  113OSM    H9S11730   3.044   5.526  10.195  0.0720  1.8677  1.0419
  113OSM    H9T11731   3.138   5.373  10.221  0.2472  0.3584  0.5431
  113OSM   C10S11732   3.241   5.534  10.130 -0.4067  0.2549 -0.9765
  113OSM   H10S11733   3.343   5.494  10.148 -0.8091 -0.5188 -0.3593
  113OSM   H10T11734   3.243   5.643  10.151  0.6715 -0.3392  2.6690
  113OSM   C11S11735   3.183   5.509   9.990 -0.2949  0.3995  0.7265
  113OSM   H11S11736   3.073   5.528   9.994 -0.5430 -0.6808 -0.0848
  113OSM   H11T11737   3.190   5.398   9.977 -0.6917  0.3253  1.1264
  113OSM   C12S11738   3.254   5.581   9.873  0.3626  0.1321  0.3883
  113OSM   H12S11739   3.352   5.535   9.848  0.3783  0.0330  0.6313
  113OSM   H12T11740   3.267   5.686   9.907 -1.5064  0.6334 -0.3472
  113OSM   C13S11741   3.173   5.568   9.750  0.0016 -0.2512  0.1039
  113OSM   H13S11742   3.080   5.628   9.761  1.9911  2.9751  0.7947
  113OSM   H13T11743   3.132   5.466   9.739  2.3310 -1.2743  0.2894
  113OSM   C14S11744   3.250   5.603   9.625  0.4501 -0.1875  0.6051
  113OSM   H14S11745   3.346   5.546   9.622 -0.1695 -1.2152 -0.2140
  113OSM   H14T11746   3.275   5.711   9.623  0.8971 -0.2869  0.6667
  113OSM   C15S11747   3.183   5.564   9.489 -0.8835  0.0013  0.2341
  113OSM   H15S11748   3.085   5.616   9.481 -0.8401  0.2978  1.4983
  113OSM   H15T11749   3.150   5.458   9.482 -0.7939  0.0661 -1.7910
  113OSM   C16S11750   3.265   5.600   9.362  0.3705  0.2967  0.1290
  113OSM   H16S11751   3.372   5.575   9.374  0.3766  0.5445  0.5902
  113OSM   H16T11752   3.257   5.709   9.340 -1.6704 -0.4050 -3.5568
  113OSM   C17S11753   3.206   5.527   9.236 -0.1679  0.1942 -0.0150
  113OSM   H17S11754   3.104   5.571   9.234  0.3357  1.4211  0.5315
  113OSM   H17T11755   3.187   5.419   9.258 -1.5474  0.2310 -0.9302
  113OSM   C18S11756   3.272   5.537   9.102 -0.6682 -0.0675  1.0397
  113OSM   H18S11757   3.206   5.512   9.016 -0.2143 -2.3487  1.2808
  113OSM   H18T11758   3.351   5.458   9.092  0.5374  0.9607  2.0518
  113OSM   H18U11759   3.323   5.634   9.084  1.0007 -1.0097  0.4327
  113OSM    C1F11760   2.551   5.066  10.501 -0.3739 -0.4199  0.0188
  113OSM     OF11761   2.463   5.140  10.451 -0.1161 -0.1809 -0.1465
  113OSM    C2F11762   2.570   4.932  10.449 -0.0869 -0.5274 -0.4618
  113OSM    H2F11763   2.506   4.862  10.507 -1.5546  0.1764 -1.1502
  113OSM    H2G11764   2.679   4.912  10.446 -0.4257 -2.4297 -1.6310
  113OSM    C3F11765   2.528   4.913  10.303 -0.0469  1.4769 -0.2832
  113OSM    H3F11766   2.553   4.808  10.277  3.6904  1.9372  0.7478
  113OSM    H3G11767   2.595   4.973  10.238 -1.8775  1.6611 -2.0930
  113OSM    C4F11768   2.385   4.923  10.255 -0.3048 -0.0554  0.3825
  113OSM    H4F11769   2.330   5.016  10.283 -1.6387 -1.1508  1.5818
  113OSM    H4G11770   2.316   4.844  10.291 -0.7554 -1.7178 -3.6500
  113OSM    C5F11771   2.378   4.924  10.102 -0.0152 -0.4016  0.3925
  113OSM    H5F11772   2.418   4.835  10.049  0.5099  0.4312 -0.6677
  113OSM    H5G11773   2.452   5.001  10.069  0.1096 -0.2953  0.9061
  113OSM    C6F11774   2.240   4.955  10.049  0.2993 -0.3212  0.1971
  113OSM    H6F11775   2.179   5.024  10.112  1.3065 -0.1136  0.9865
  113OSM    H6G11776   2.193   4.855  10.055  1.2222 -1.0481 -3.0671
  113OSM    C7F11777   2.237   5.006   9.907  0.1157 -0.2695 -0.1278
  113OSM    H7F11778   2.328   4.984   9.847 -0.2873  0.9952 -1.2519
  113OSM    H7G11779   2.236   5.117   9.913  0.0889 -0.3357  1.7003
  113OSM    C8F11780   2.112   4.966   9.842 -0.0002  0.4266 -0.6019
  113OSM    H8F11781   2.036   4.951   9.921  1.4590 -1.8195  0.4879
  113OSM    H8G11782   2.132   4.862   9.808  1.4419 -0.7510  3.3061
  113OSM    C9F11783   2.068   5.066   9.738 -0.3755 -0.2144  0.7244
  113OSM    H9F11784   1.990   5.138   9.768 -1.4312 -1.0384  0.0354
  113OSM   C10F11785   2.112   5.068   9.610  0.3655 -0.4866 -0.3609
  113OSM   H10F11786   2.063   5.144   9.548  0.4297 -0.4006 -0.3058
  113OSM   C11F11787   2.220   4.978   9.552  0.3364 -0.2052 -1.0805
  113OSM   H11F11788   2.223   4.883   9.608 -0.2952  0.3202 -0.1222
  113OSM   H11G11789   2.321   5.019   9.577  0.8202 -1.4595 -0.9289
  113OSM   C12F11790   2.204   4.960   9.401  0.7391 -0.0475 -0.1017
  113OSM   H12F11791   2.109   4.911   9.369  1.9487 -0.8216 -2.7872
  113OSM   H12G11792   2.287   4.901   9.357 -0.7305 -1.7089 -0.8077
  113OSM   C13F11793   2.207   5.088   9.319 -0.3278  0.1890  0.3734
  113OSM   H13F11794   2.276   5.067   9.235 -2.3776  0.1448 -1.3625
  113OSM   H13G11795   2.266   5.167   9.372 -0.2611  0.1488  0.3591
  113OSM   C14F11796   2.069   5.133   9.264 -0.3624 -0.2560 -1.1315
  113OSM   H14F11797   1.991   5.147   9.343 -0.6000  2.1722 -1.7190
  113OSM   H14G11798   2.040   5.050   9.196 -0.3087 -0.6242 -0.7092
  113OSM   C15F11799   2.076   5.254   9.173  0.0079  0.2473  0.0318
  113OSM   H15F11800   2.145   5.227   9.090  0.3410  0.5825  0.1923
  113OSM   H15G11801   2.112   5.347   9.222 -1.7402  0.5070  0.9113
  113OSM   C16F11802   1.939   5.271   9.107 -0.0038 -0.5136  0.2204
  113OSM   H16F11803   1.879   5.327   9.182  0.3840  1.3552 -0.7989
  113OSM   H16G11804   1.893   5.172   9.086  0.6716 -0.2882 -2.7891
  113OSM   C17F11805   1.945   5.369   8.981  0.4133 -0.1541 -0.0654
  113OSM   H17F11806   1.983   5.316   8.892  0.2641 -0.1361 -0.1400
  113OSM   H17G11807   2.017   5.448   9.013  1.6955 -0.9324 -0.9093
  113OSM   C18F11808   1.812   5.418   8.935  0.6794  0.3203 -0.2716
  113OSM   H18F11809   1.834   5.498   8.861  2.3624  0.9718  0.8714
  113OSM   H18G11810   1.758   5.461   9.022 -0.4599  2.4553 -1.9302
  113OSM   H18H11811   1.743   5.337   8.904 -0.6830  1.2462  0.2497
  114OSM      N11812   2.680   4.247  11.402  0.0465 -0.3041 -0.3346
  114OSM    C1511813   2.602   4.166  11.501 -0.1771  0.6932 -0.0049
  114OSM   H15A11814   2.565   4.226  11.584 -1.1894 -1.9186  1.5702
  114OSM   H15B11815   2.666   4.094  11.550 -0.1430  1.9971  2.0008
  114OSM   H15C11816   2.512   4.124  11.458  0.2992  0.5399 -0.8731
  114OSM    C1411817   2.597   4.356  11.349  0.6915  0.4096  0.3814
  114OSM   H14A11818   2.647   4.423  11.280 -1.6083 -1.2934 -3.2644
  114OSM   H14B11819   2.553   4.423  11.420 -0.4605 -1.4088  1.4611
  114OSM   H14C11820   2.517   4.313  11.291  3.0940 -3.1551 -0.6505
  114OSM    C1311821   2.784   4.320  11.485  0.0059 -0.0382  0.5534
  114OSM   H13A11822   2.737   4.379  11.562 -0.5700  1.3056 -0.7893
  114OSM   H13B11823   2.833   4.397  11.427 -2.5026  0.0199 -1.6526
  114OSM   H13C11824   2.858   4.250  11.521  0.0854  0.4685  1.3936
  114OSM    C1211825   2.736   4.178  11.277 -0.2758  0.1751  0.6754
  114OSM   H12A11826   2.810   4.103  11.302 -1.3803 -0.8766  0.8765
  114OSM   H12B11827   2.795   4.250  11.222 -3.0906  0.3180 -2.4082
  114OSM    C1111828   2.637   4.110  11.180 -0.7677 -0.0394 -0.3788
  114OSM   H11A11829   2.700   4.071  11.098 -0.3249  0.7082 -0.3979
  114OSM   H11B11830   2.580   4.187  11.123  0.3174  0.3692 -0.9334
  114OSM      P11831   2.400   4.019  11.249 -0.0544 -0.1525  0.1785
  114OSM    O1311832   2.352   3.898  11.323  0.2126  0.1184  0.8486
  114OSM    O1411833   2.368   4.157  11.298  0.2717 -0.1955  0.1587
  114OSM    O1111834   2.364   4.003  11.088 -0.8437  0.6474 -0.4425
  114OSM    O1211835   2.559   4.014  11.250 -0.5370  0.1728 -0.6816
  114OSM    C1S11836   2.413   3.884  11.020  0.3276 -0.1822  0.0708
  114OSM    H1S11837   2.353   3.795  11.049 -0.7322  0.4166 -0.2287
  114OSM    H1T11838   2.523   3.874  11.036  0.3620  1.4739  1.0425
  114OSM     NF11839   2.440   3.762  10.818  0.0062 -0.3918  0.5622
  114OSM    HNF11840   2.530   3.756  10.776 -0.3008  0.8282 -0.3483
  114OSM    C2S11841   2.396   3.895  10.864  0.3462 -0.6685 -0.7504
  114OSM    H2S11842   2.287   3.910  10.849  0.3262  1.1935  0.9101
  114OSM    C3S11843   2.487   4.012  10.822 -0.4077 -0.4279  0.9223
  114OSM    H3S11844   2.587   3.987  10.862 -0.1581 -0.5157  0.2619
  114OSM     O311845   2.443   4.139  10.873 -0.0398  0.5782 -0.0030
  114OSM    HO311846   2.386   4.113  10.946 -1.4787  0.4935 -1.1135
  114OSM    C4S11847   2.515   4.011  10.671  0.2061  0.3498 -0.6942
  114OSM    H4S11848   2.585   3.928  10.651  0.5150  0.7367 -1.2648
  114OSM    C5S11849   2.449   4.075  10.569 -0.3079 -0.0577 -0.0954
  114OSM    H5S11850   2.380   4.152  10.604  0.2023  0.6691 -0.6526
  114OSM    C6S11851   2.485   4.044  10.421  0.3042  0.4921  0.0513
  114OSM    H6S11852   2.510   4.141  10.373  1.1213 -0.4825 -1.5845
  114OSM    H6T11853   2.389   4.016  10.371  0.1619  0.0876  0.5448
  114OSM    C7S11854   2.601   3.943  10.400  0.3764  0.3441  0.3625
  114OSM    H7S11855   2.580   3.840  10.436  0.3847 -0.2107 -1.1677
  114OSM    H7T11856   2.691   3.985  10.449  1.2204 -0.4367 -0.4823
  114OSM    C8S11857   2.647   3.916  10.256  0.3825 -0.7452 -0.2864
  114OSM    H8S11858   2.573   3.868  10.188 -0.5334  1.7530 -1.1593
  114OSM    H8T11859   2.736   3.850  10.252  1.0792  0.1956 -0.6317
  114OSM    C9S11860   2.712   4.043  10.188 -0.3023 -0.3866  0.5045
  114OSM    H9S11861   2.784   4.098  10.252  1.2044  0.5728 -1.8773
  114OSM    H9T11862   2.623   4.106  10.169  1.0826  1.4405 -0.2390
  114OSM   C10S11863   2.781   4.012  10.052 -0.4525  0.4284  0.2966
  114OSM   H10S11864   2.831   3.913  10.048 -0.5658  0.3897 -0.2339
  114OSM   H10T11865   2.854   4.092  10.024 -0.3124  1.6706  3.6984
  114OSM   C11S11866   2.678   3.981   9.941 -0.2767 -0.4755  0.2458
  114OSM   H11S11867   2.618   3.891   9.965 -3.0481  1.2843  0.4541
  114OSM   H11T11868   2.751   3.972   9.858 -0.7303 -1.7797 -0.0298
  114OSM   C12S11869   2.588   4.102   9.910  0.3446 -0.0623 -0.0062
  114OSM   H12S11870   2.631   4.203   9.924 -2.5262  1.7895 -2.9730
  114OSM   H12T11871   2.503   4.113   9.981  1.3615  0.7658  1.1193
  114OSM   C13S11872   2.528   4.089   9.774 -0.4151 -0.0653  0.7914
  114OSM   H13S11873   2.468   3.998   9.752 -0.1422  0.0287 -0.4219
  114OSM   H13T11874   2.607   4.081   9.696  0.4561  2.3893  1.3250
  114OSM   C14S11875   2.455   4.215   9.732  0.3450 -0.4491  0.2543
  114OSM   H14S11876   2.514   4.306   9.757  0.0855 -0.4935  1.0637
  114OSM   H14T11877   2.372   4.219   9.806 -0.4688  1.4669 -0.6739
  114OSM   C15S11878   2.407   4.216   9.593 -0.3446  0.2949 -0.5743
  114OSM   H15S11879   2.399   4.108   9.568 -1.7466  0.2121  0.1222
  114OSM   H15T11880   2.478   4.258   9.518 -0.1351  1.4920  0.2722
  114OSM   C16S11881   2.272   4.295   9.566 -0.2396  0.4937  0.0224
  114OSM   H16S11882   2.290   4.393   9.615 -0.4846  0.4086  0.2913
  114OSM   H16T11883   2.191   4.234   9.613 -0.6174  0.6068 -0.4775
  114OSM   C17S11884   2.253   4.315   9.419  0.3009 -1.1123 -0.0904
  114OSM   H17S11885   2.236   4.219   9.366  1.5601 -2.1561  1.3049
  114OSM   H17T11886   2.343   4.363   9.373  0.7155 -0.0809  1.7079
  114OSM   C18S11887   2.132   4.403   9.401  0.0333 -0.6109 -0.0414
  114OSM   H18S11888   2.115   4.439   9.298 -0.1356  0.3601  0.3188
  114OSM   H18T11889   2.132   4.484   9.477  0.2898  0.7592 -1.4527
  114OSM   H18U11890   2.043   4.344   9.433 -1.3617  0.1963 -2.2878
  114OSM    C1F11891   2.360   3.658  10.827  0.3576 -0.3231 -0.0995
  114OSM     OF11892   2.238   3.673  10.841 -1.0310  0.9201 -0.2348
  114OSM    C2F11893   2.416   3.521  10.822  0.1094  0.4955 -0.1584
  114OSM    H2F11894   2.391   3.474  10.919  0.6242  0.4496 -0.0416
  114OSM    H2G11895   2.527   3.527  10.823  0.1047  0.5827 -0.1740
  114OSM    C3F11896   2.352   3.439  10.709 -0.1536  0.0731  0.9804
  114OSM    H3F11897   2.244   3.419  10.722 -0.0721 -2.1010 -1.0259
  114OSM    H3G11898   2.406   3.342  10.719  0.9757  0.5527 -0.2775
  114OSM    C4F11899   2.413   3.502  10.575  0.3695 -0.5198  0.0255
  114OSM    H4F11900   2.410   3.612  10.563  0.5846 -0.5835 -0.6579
  114OSM    H4G11901   2.358   3.444  10.497  1.6535 -2.3948  0.4560
  114OSM    C5F11902   2.560   3.468  10.562 -0.0751  0.1729  0.0152
  114OSM    H5F11903   2.572   3.358  10.569 -0.0626  0.2556  1.9058
  114OSM    H5G11904   2.624   3.501  10.646 -0.4086 -0.7035  0.6264
  114OSM    C6F11905   2.639   3.510  10.428  0.5860  0.3155  0.3830
  114OSM    H6F11906   2.727   3.442  10.432  0.5331  0.2018 -0.3681
  114OSM    H6G11907   2.674   3.615  10.431  0.9522  0.2682 -1.2355
  114OSM    C7F11908   2.552   3.491  10.304  0.2160 -0.4369  0.4298
  114OSM    H7F11909   2.472   3.566  10.323  2.7791  2.5199  0.5458
  114OSM    H7G11910   2.513   3.388  10.299 -2.1759  0.3073  1.8785
  114OSM    C8F11911   2.608   3.550  10.175  0.0820 -0.4941  0.3587
  114OSM    H8F11912   2.653   3.647  10.204  1.9452 -0.8901 -0.9974
  114OSM    H8G11913   2.521   3.563  10.107  0.5513  3.7407  0.2996
  114OSM    C9F11914   2.711   3.459  10.112 -0.1926 -0.1882 -0.0215
  114OSM    H9F11915   2.679   3.355  10.092  0.2183 -0.4433  0.6353
  114OSM   C10F11916   2.840   3.482  10.084 -0.5705  0.2086 -0.4078
  114OSM   H10F11917   2.904   3.405  10.039  1.3855  0.9267  0.9997
  114OSM   C11F11918   2.923   3.606  10.106  0.3802 -0.0163  0.0471
  114OSM   H11F11919   2.993   3.602  10.192  0.6639  1.3931 -0.1019
  114OSM   H11G11920   2.853   3.691  10.116 -0.4888 -0.6369 -0.5532
  114OSM   C12F11921   3.009   3.621   9.973  0.0774 -0.1718 -0.0538
  114OSM   H12F11922   3.064   3.527   9.952 -1.0325 -0.6703 -0.8685
  114OSM   H12G11923   3.078   3.706   9.993 -1.8162  1.6259 -0.6577
  114OSM   C13F11924   2.932   3.666   9.840  0.3145  0.7397 -0.3325
  114OSM   H13F11925   2.855   3.745   9.855  0.2613  1.0651 -2.1451
  114OSM   H13G11926   2.880   3.574   9.806  1.8896 -0.3652  0.1181
  114OSM   C14F11927   3.026   3.732   9.741  0.1571  0.3110  0.1390
  114OSM   H14F11928   3.114   3.671   9.711 -1.1934 -1.2911 -0.7458
  114OSM   H14G11929   3.069   3.818   9.796  1.4648 -1.3328  1.8535
  114OSM   C15F11930   2.949   3.794   9.616 -0.5678 -0.0817  0.7938
  114OSM   H15F11931   3.031   3.826   9.547 -1.2204  1.9501  0.9074
  114OSM   H15G11932   2.897   3.888   9.643  1.2920  1.2062  0.1228
  114OSM   C16F11933   2.864   3.702   9.542  0.9115 -0.2330  0.3622
  114OSM   H16F11934   2.810   3.642   9.618 -0.1095  1.1525  0.7716
  114OSM   H16G11935   2.920   3.630   9.479  1.0458 -1.2576  1.6151
  114OSM   C17F11936   2.772   3.781   9.446  0.2252  0.7023  0.3320
  114OSM   H17F11937   2.828   3.808   9.354  0.0426 -0.6170 -0.1821
  114OSM   H17G11938   2.742   3.879   9.489 -1.0014  0.9058 -0.9114
  114OSM   C18F11939   2.637   3.717   9.403  0.5779 -0.1461  0.8802
  114OSM   H18F11940   2.600   3.782   9.321  0.9904  0.8265  1.4480
  114OSM   H18G11941   2.564   3.716   9.487 -0.0403 -1.1287  0.3524
  114OSM   H18H11942   2.636   3.612   9.368  0.1551  0.3076 -0.5764
  115OSM      N11943   3.912   0.158   5.999  0.3192 -0.1532 -0.0879
  115OSM    C1511944   3.895   0.236   5.874  0.3705  0.7310 -0.1719
  115OSM   H15A11945   3.793   0.255   5.844 -0.2304 -0.3641  1.0823
  115OSM   H15B11946   3.947   0.190   5.791  0.8206 -0.6435  0.8350
  115OSM   H15C11947   3.948   0.330   5.879  2.4124 -0.3965  0.5531
  115OSM    C1411948   3.871   0.017   5.969  0.2225 -0.2344  0.0701
  115OSM   H14A11949   3.939  -0.043   5.911 -0.6849  0.2129 -1.5439
  115OSM   H14B11950   3.783   0.017   5.905  2.0969  0.0060 -2.6659
  115OSM   H14C11951   3.845  -0.028   6.063 -0.5233  1.8800  0.9490
  115OSM    C1311952   4.057   0.161   6.030  0.2420 -0.6969 -0.1901
  115OSM   H13A11953   4.071   0.107   6.122 -1.4450 -2.9771 -1.1621
  115OSM   H13B11954   4.087   0.263   6.050  1.5848 -0.7450 -1.7572
  115OSM   H13C11955   4.119   0.118   5.952 -1.8782  0.8040 -2.8871
  115OSM    C1211956   3.826   0.208   6.115  0.3454 -0.7040 -0.2606
  115OSM   H12A11957   3.727   0.205   6.072 -0.0264 -2.3808  0.6488
  115OSM   H12B11958   3.840   0.314   6.132 -0.4057 -1.0207  3.0191
  115OSM    C1111959   3.822   0.136   6.253 -0.3415 -0.5006  0.4118
  115OSM   H11A11960   3.783   0.211   6.326  1.9920  1.4796 -0.2253
  115OSM   H11B11961   3.929   0.131   6.282 -1.0037 -0.5220  3.0788
  115OSM      P11962   3.614  -0.016   6.225  0.4761 -0.0955  0.1873
  115OSM    O1311963   3.549   0.111   6.264 -0.2716  0.5258  0.5184
  115OSM    O1411964   3.578  -0.061   6.089 -0.2195  0.1584 -0.2628
  115OSM    O1111965   3.588  -0.137   6.324 -0.4224 -0.1031 -0.0806
  115OSM    O1211966   3.767   0.007   6.235  0.2365  1.2674 -0.2649
  115OSM    C1S11967   3.667  -0.161   6.435 -0.1444 -0.4443 -0.5591
  115OSM    H1S11968   3.772  -0.166   6.398  0.1407  1.7820 -0.1498
  115OSM    H1T11969   3.645  -0.265   6.468  0.3251 -1.1789 -2.4475
  115OSM     NF11970   3.736  -0.106   6.656  0.3105  0.0918  0.3091
  115OSM    HNF11971   3.698  -0.134   6.744  2.3704  1.5827  1.7501
  115OSM    C2S11972   3.648  -0.063   6.558 -0.3325 -0.2554  0.4389
  115OSM    H2S11973   3.679   0.038   6.521 -0.9333 -1.0792 -2.5551
  115OSM    C3S11974   3.506  -0.056   6.610  0.3656  0.4758  0.0589
  115OSM    H3S11975   3.462  -0.153   6.642 -1.2821  1.1691  0.0165
  115OSM     O311976   3.417  -0.004   6.514  0.4336  0.1967 -0.0300
  115OSM    HO311977   3.466  -0.014   6.433  2.0080 -2.7003  1.1226
  115OSM    C4S11978   3.492   0.028   6.739  0.1830  0.2785  0.8809
  115OSM    H4S11979   3.498  -0.034   6.829  1.0897  0.6764  1.0983
  115OSM    C5S11980   3.460   0.158   6.745 -0.5884 -0.2443  0.1690
  115OSM    H5S11981   3.456   0.206   6.646 -2.1213 -0.1936  0.2267
  115OSM    C6S11982   3.448   0.239   6.874  0.3911  0.5328 -0.8411
  115OSM    H6S11983   3.344   0.266   6.901 -0.3294 -2.2036 -0.5107
  115OSM    H6T11984   3.505   0.334   6.865  2.5954 -0.3749  1.9777
  115OSM    C7S11985   3.518   0.172   7.001  0.0402 -0.2234 -0.2702
  115OSM    H7S11986   3.623   0.138   6.992  0.7200  1.4950  0.8149
  115OSM    H7T11987   3.462   0.077   7.015 -0.3898  0.1115  0.2983
  115OSM    C8S11988   3.503   0.258   7.129 -0.6062 -0.0158  0.1073
  115OSM    H8S11989   3.406   0.313   7.122 -0.1884  0.6424 -0.7114
  115OSM    H8T11990   3.578   0.340   7.133 -1.5729  0.8387  2.5350
  115OSM    C9S11991   3.505   0.174   7.254 -0.1356  0.4998 -0.4081
  115OSM    H9S11992   3.600   0.117   7.254 -0.7526 -0.5819 -1.9657
  115OSM    H9T11993   3.421   0.101   7.254  1.2243 -1.1342 -0.2301
  115OSM   C10S11994   3.471   0.260   7.380  0.1719 -0.3444  0.1814
  115OSM   H10S11995   3.374   0.313   7.374 -0.4434 -1.4833 -0.2582
  115OSM   H10T11996   3.543   0.344   7.388  2.2146 -1.8706 -0.8241
  115OSM   C11S11997   3.476   0.184   7.507  0.1724 -0.2807  0.5868
  115OSM   H11S11998   3.574   0.135   7.521  1.4228  1.6589 -0.8379
  115OSM   H11T11999   3.412   0.093   7.500 -0.9463  0.4668  0.7817
  115OSM   C12S12000   3.456   0.252   7.641 -0.4330  0.2381 -1.4271
  115OSM   H12S12001   3.352   0.292   7.647 -1.0762 -1.4496 -0.8591
  115OSM   H12T12002   3.528   0.336   7.643 -0.5656  0.3470  0.3091
  115OSM   C13S12003   3.508   0.179   7.771 -0.0455 -0.1109 -1.1028
  115OSM   H13S12004   3.594   0.110   7.755  1.5993  1.2424  1.1525
  115OSM   H13T12005   3.433   0.100   7.795  3.2282 -3.0803  0.3482
  115OSM   C14S12006   3.520   0.280   7.881 -0.3621  0.2445  0.5396
  115OSM   H14S12007   3.426   0.338   7.875  0.0373  0.7466 -3.1731
  115OSM   H14T12008   3.613   0.339   7.865 -0.3128  0.4129  1.4387
  115OSM   C15S12009   3.530   0.215   8.019  1.2050  0.0779  0.2516
  115OSM   H15S12010   3.636   0.192   8.045  1.0134 -1.4442 -0.1803
  115OSM   H15T12011   3.484   0.114   8.012 -1.4882  1.0595  2.3376
  115OSM   C16S12012   3.464   0.293   8.131 -0.6269  0.3541  0.8810
  115OSM   H16S12013   3.355   0.283   8.114 -0.6335  0.8921  0.5663
  115OSM   H16T12014   3.490   0.402   8.130  3.1633 -0.3985 -1.1741
  115OSM   C17S12015   3.493   0.240   8.271 -0.1728  0.7316  0.2593
  115OSM   H17S12016   3.459   0.324   8.335  0.1955  2.0349 -1.2087
  115OSM   H17T12017   3.600   0.220   8.290  0.5959  3.4740 -0.7949
  115OSM   C18S12018   3.412   0.119   8.305  0.4939  0.2127  0.0962
  115OSM   H18S12019   3.444   0.084   8.406  1.3323 -0.8252 -0.5151
  115OSM   H18T12020   3.416   0.034   8.234 -0.6161 -0.3507  0.6865
  115OSM   H18U12021   3.305   0.148   8.296  0.3899 -0.6011 -1.6198
  115OSM    C1F12022   3.862  -0.084   6.653  0.0519 -0.0538  0.0044
  115OSM     OF12023   3.921  -0.047   6.553 -0.1915 -0.1367  0.2096
  115OSM    C2F12024   3.933  -0.108   6.784 -0.7896  0.3484  0.2274
  115OSM    H2F12025   4.042  -0.110   6.764 -0.6213  2.3527  0.6998
  115OSM    H2G12026   3.896  -0.207   6.817 -1.3246  0.2558 -0.6286
  115OSM    C3F12027   3.912  -0.002   6.886  0.3100 -0.3967  0.6827
  115OSM    H3F12028   3.802   0.011   6.896 -0.0856 -0.6285 -2.3606
  115OSM    H3G12029   3.943   0.093   6.837 -0.8606 -0.8991 -1.1662
  115OSM    C4F12030   3.975  -0.034   7.020 -0.1527 -0.2334  0.1891
  115OSM    H4F12031   4.084  -0.054   7.009  0.2443  0.5831  2.1295
  115OSM    H4G12032   3.922  -0.120   7.067 -2.2427  0.7643 -0.2328
  115OSM    C5F12033   3.957   0.078   7.124  0.1800  0.2392 -0.4319
  115OSM    H5F12034   3.847   0.085   7.139  0.0558  1.6698 -1.7063
  115OSM    H5G12035   3.984   0.179   7.086  0.3559 -0.1521 -1.3937
  115OSM    C6F12036   4.034   0.035   7.246  0.6088  1.1322  0.1864
  115OSM    H6F12037   4.139   0.010   7.222  0.1500 -1.2773  0.5203
  115OSM    H6G12038   3.999  -0.054   7.301  2.0989 -2.0817 -3.5893
  115OSM    C7F12039   4.030   0.142   7.356 -0.2063 -0.3732 -0.7833
  115OSM    H7F12040   4.087   0.234   7.330  2.5406 -1.5182  0.8032
  115OSM    H7G12041   4.080   0.091   7.441 -3.1064 -2.9805 -0.4462
  115OSM    C8F12042   3.888   0.173   7.411 -0.0331  0.2943  0.1361
  115OSM    H8F12043   3.840   0.072   7.413 -1.6688  1.0471  0.2170
  115OSM    H8G12044   3.830   0.225   7.332 -0.0732 -1.3618 -0.9729
  115OSM    C9F12045   3.882   0.252   7.542  0.1319 -0.1966  0.2252
  115OSM    H9F12046   3.894   0.361   7.537 -0.3714 -0.1689 -3.8600
  115OSM   C10F12047   3.863   0.186   7.664  0.5149  0.7001 -0.4023
  115OSM   H10F12048   3.861   0.249   7.754 -0.4291  1.1374 -0.7093
  115OSM   C11F12049   3.857   0.040   7.694 -0.4269  0.6422 -0.0301
  115OSM   H11F12050   3.910  -0.004   7.608  0.2009 -1.0515  1.1717
  115OSM   H11G12051   3.751   0.008   7.697 -1.0644  2.5945  0.0433
  115OSM   C12F12052   3.925  -0.003   7.825  0.0120  0.6814 -0.1247
  115OSM   H12F12053   4.018   0.058   7.836 -1.1372  2.3775  0.7942
  115OSM   H12G12054   3.955  -0.109   7.810 -1.8690  0.2163 -0.8469
  115OSM   C13F12055   3.841   0.019   7.954  0.2971  0.4281  0.3618
  115OSM   H13F12056   3.733   0.002   7.936  0.3100  0.5544  0.1593
  115OSM   H13G12057   3.833   0.128   7.974 -2.1497  0.4528 -0.5446
  115OSM   C14F12058   3.883  -0.063   8.069  0.1576 -0.4783  0.3855
  115OSM   H14F12059   3.989  -0.037   8.089 -0.0164 -1.0779  2.2932
  115OSM   H14G12060   3.879  -0.171   8.044  1.7658 -0.3659 -0.4940
  115OSM   C15F12061   3.797  -0.027   8.194  0.2032 -0.2061 -1.2466
  115OSM   H15F12062   3.701  -0.077   8.169  1.1687 -2.5942 -0.4107
  115OSM   H15G12063   3.785   0.084   8.192 -2.3947 -0.1774  3.2533
  115OSM   C16F12064   3.861  -0.064   8.332  0.4821  0.2847  0.0205
  115OSM   H16F12065   3.964  -0.022   8.336 -0.2432  2.0649  1.3179
  115OSM   H16G12066   3.864  -0.173   8.352 -0.7506  0.4284  1.0912
  115OSM   C17F12067   3.780   0.006   8.442  0.0022 -0.1596  0.9812
  115OSM   H17F12068   3.685  -0.047   8.465  1.2793 -2.4944  1.1391
  115OSM   H17G12069   3.758   0.112   8.417 -0.2382 -0.2420  0.8408
  115OSM   C18F12070   3.868   0.006   8.566  0.0793  0.0938  0.2653
  115OSM   H18F12071   3.905  -0.096   8.586  3.6896  1.2663  0.2080
  115OSM   H18G12072   3.832   0.042   8.665  1.1149  0.8374  0.3911
  115OSM   H18H12073   3.954   0.061   8.522 -0.2643 -0.1517 -0.7386
  116OSM      N12074   4.930   5.490   6.158  0.0020  0.4444  0.3863
  116OSM    C1512075   4.885   5.613   6.238 -0.3372  0.2375  0.8720
  116OSM   H15A12076   4.896   5.587   6.343 -2.1551 -3.1227  0.3561
  116OSM   H15B12077   4.778   5.616   6.225 -0.0233  2.5179 -2.2578
  116OSM   H15C12078   4.936   5.705   6.213  0.3381 -0.2253  0.5200
  116OSM    C1412079   4.867   5.486   6.023 -0.1154 -0.9996  0.0582
  116OSM   H14A12080   4.843   5.586   5.991 -0.7421 -1.0359  0.3926
  116OSM   H14B12081   4.768   5.449   6.041 -0.8850  2.0286  3.1330
  116OSM   H14C12082   4.925   5.440   5.944  2.5910  0.3068  1.1173
  116OSM    C1312083   5.076   5.494   6.140  0.3012 -0.2059  0.7380
  116OSM   H13A12084   5.099   5.573   6.070 -2.6257  1.1958  1.2151
  116OSM   H13B12085   5.097   5.396   6.099  0.8317 -0.5745  1.8501
  116OSM   H13C12086   5.124   5.503   6.237  2.0487 -1.1266  0.0004
  116OSM    C1212087   4.907   5.350   6.230 -1.1508 -0.5166  0.2457
  116OSM   H12A12088   4.987   5.332   6.300 -0.8582 -0.2298 -0.0184
  116OSM   H12B12089   4.922   5.269   6.160 -1.0233 -1.6220  1.5034
  116OSM    C1112090   4.770   5.330   6.292  0.0447  0.0492 -0.2247
  116OSM   H11A12091   4.757   5.386   6.388 -1.0759 -0.7569  0.1035
  116OSM   H11B12092   4.771   5.222   6.319  3.3954  0.5234  2.3054
  116OSM      P12093   4.511   5.375   6.255  0.2902 -0.4310 -0.1401
  116OSM    O1312094   4.438   5.406   6.131 -0.6194  0.4742  0.3434
  116OSM    O1412095   4.467   5.250   6.316 -0.7190  0.1150  0.4694
  116OSM    O1112096   4.524   5.500   6.357  0.3292 -0.1393  0.1106
  116OSM    O1212097   4.657   5.356   6.208 -0.2708  0.0303 -0.2059
  116OSM    C1S12098   4.457   5.495   6.486  0.2851 -0.1840 -0.2640
  116OSM    H1S12099   4.369   5.427   6.479  1.2706 -1.5968  0.5244
  116OSM    H1T12100   4.411   5.595   6.501 -0.8651 -0.9620  1.8664
  116OSM     NF12101   4.466   5.437   6.720  0.2291  0.1439 -0.7604
  116OSM    HNF12102   4.485   5.499   6.795  3.7654 -0.7427 -0.7615
  116OSM    C2S12103   4.546   5.460   6.605  0.1849 -0.2272  0.1761
  116OSM    H2S12104   4.597   5.364   6.583 -1.2098 -0.9295 -0.0848
  116OSM    C3S12105   4.661   5.571   6.628  0.0962  0.3693  0.5872
  116OSM    H3S12106   4.604   5.664   6.648 -0.7176 -0.1288  0.6381
  116OSM     O312107   4.746   5.602   6.519 -0.3188  0.4480  0.2502
  116OSM    HO312108   4.711   5.548   6.447  0.7419 -0.1360  0.1543
  116OSM    C4S12109   4.742   5.533   6.754  0.4464 -0.6635  0.1360
  116OSM    H4S12110   4.783   5.432   6.749 -2.2057 -1.7697 -1.2652
  116OSM    C5S12111   4.756   5.608   6.864 -0.0012 -0.2816 -0.6280
  116OSM    H5S12112   4.695   5.699   6.871 -2.5418 -1.7156 -2.5006
  116OSM    C6S12113   4.829   5.554   6.985 -0.2295  0.4086 -0.2864
  116OSM    H6S12114   4.936   5.524   6.973 -0.3021  0.5403 -1.2910
  116OSM    H6T12115   4.790   5.461   7.032  1.1123 -0.7188 -1.3306
  116OSM    C7S12116   4.825   5.668   7.088  0.2922  0.2932 -0.2969
  116OSM    H7S12117   4.723   5.687   7.125  1.8029  2.1569  3.4169
  116OSM    H7T12118   4.880   5.756   7.049  1.7030 -0.1728  0.5547
  116OSM    C8S12119   4.893   5.622   7.214  0.2548 -0.3720 -0.8235
  116OSM    H8S12120   4.993   5.575   7.201 -0.2602 -1.3455 -1.3387
  116OSM    H8T12121   4.836   5.534   7.250  1.1097 -0.9372 -0.8335
  116OSM    C9S12122   4.910   5.729   7.319 -0.4340 -0.6778 -0.1487
  116OSM    H9S12123   4.820   5.794   7.326 -0.0025 -0.2722  3.6529
  116OSM    H9T12124   4.994   5.798   7.299 -0.9149 -0.3662 -1.1460
  116OSM   C10S12125   4.924   5.665   7.460  0.0254 -0.0536 -0.8549
  116OSM   H10S12126   5.028   5.652   7.496 -0.3220 -0.9289 -0.1270
  116OSM   H10T12127   4.866   5.570   7.458  1.8919 -1.2676  0.3883
  116OSM   C11S12128   4.868   5.757   7.565 -0.6596  0.0466 -0.4097
  116OSM   H11S12129   4.768   5.776   7.521 -0.4041 -1.0894 -1.5383
  116OSM   H11T12130   4.925   5.853   7.571 -2.7836  1.3370  0.2461
  116OSM   C12S12131   4.859   5.685   7.694 -0.0963  0.0143 -0.1944
  116OSM   H12S12132   4.954   5.676   7.751 -0.0006  1.4897 -0.0706
  116OSM   H12T12133   4.832   5.582   7.662  0.5294  0.7478 -3.3739
  116OSM   C13S12134   4.750   5.749   7.786  0.1817 -0.3095  0.2308
  116OSM   H13S12135   4.675   5.803   7.725  1.0041  0.4544 -0.1193
  116OSM   H13T12136   4.797   5.817   7.860 -1.0681  1.3217 -0.4396
  116OSM   C14S12137   4.704   5.633   7.872 -0.0654  0.2682  0.1187
  116OSM   H14S12138   4.794   5.574   7.902  1.2867  1.5149 -1.2929
  116OSM   H14T12139   4.643   5.561   7.815  0.6443  0.0413 -0.3675
  116OSM   C15S12140   4.634   5.676   7.996 -0.2110 -0.6651 -0.2478
  116OSM   H15S12141   4.526   5.697   7.978 -0.3634 -0.7952  0.4745
  116OSM   H15T12142   4.688   5.758   8.047  0.4357 -1.0964 -0.2170
  116OSM   C16S12143   4.648   5.571   8.109  0.3568  0.4714  0.2185
  116OSM   H16S12144   4.752   5.541   8.133 -0.4315 -1.5819  1.2795
  116OSM   H16T12145   4.600   5.479   8.071 -0.4020  1.3328 -0.9877
  116OSM   C17S12146   4.580   5.616   8.245 -0.9735  0.0055  0.2791
  116OSM   H17S12147   4.472   5.633   8.224 -1.1223 -2.0710 -0.8790
  116OSM   H17T12148   4.612   5.721   8.264  0.4430 -0.5256  1.0052
  116OSM   C18S12149   4.591   5.539   8.376  0.0571  0.2507 -0.1091
  116OSM   H18S12150   4.544   5.439   8.376  1.1363 -0.2958  1.6981
  116OSM   H18T12151   4.547   5.598   8.459 -1.4105 -0.5343 -0.2885
  116OSM   H18U12152   4.698   5.524   8.398 -0.5649  0.0274  3.2551
  116OSM    C1F12153   4.371   5.337   6.731  0.3018 -0.6797 -0.4985
  116OSM     OF12154   4.355   5.243   6.652  0.5268 -0.7738 -0.1128
  116OSM    C2F12155   4.270   5.362   6.842  0.1777  0.2305  0.7490
  116OSM    H2F12156   4.232   5.265   6.880  0.1482 -0.2901 -0.5602
  116OSM    H2G12157   4.185   5.407   6.786  1.0898 -0.8742 -1.6401
  116OSM    C3F12158   4.315   5.442   6.962 -0.7233  0.0817 -0.6998
  116OSM    H3F12159   4.225   5.460   7.025  0.2594 -2.2261  1.5580
  116OSM    H3G12160   4.358   5.540   6.931  0.2707 -0.5069 -1.2270
  116OSM    C4F12161   4.413   5.358   7.047  0.5220 -0.2304 -1.2158
  116OSM    H4F12162   4.490   5.319   6.977 -0.3765 -2.6564 -0.9397
  116OSM    H4G12163   4.359   5.269   7.086 -1.0206  1.8273  1.7431
  116OSM    C5F12164   4.478   5.425   7.167  0.1559  0.3298 -0.0846
  116OSM    H5F12165   4.398   5.460   7.236  0.5617  2.1599 -0.4978
  116OSM    H5G12166   4.542   5.509   7.136  0.0324  0.7344  0.7345
  116OSM    C6F12167   4.567   5.336   7.257  0.0627  1.1679 -0.3853
  116OSM    H6F12168   4.656   5.293   7.206  0.2164 -0.3126  1.0541
  116OSM    H6G12169   4.509   5.244   7.279 -1.2910  1.8741 -0.9008
  116OSM    C7F12170   4.619   5.393   7.389 -0.7963 -0.4540 -0.0487
  116OSM    H7F12171   4.547   5.399   7.473  1.1153  0.0733  1.6206
  116OSM    H7G12172   4.651   5.496   7.360  2.0056 -1.1831  0.1795
  116OSM    C8F12173   4.742   5.319   7.443 -0.2225  0.1311 -0.2502
  116OSM    H8F12174   4.798   5.379   7.519 -0.6973 -2.8374  2.7091
  116OSM    H8G12175   4.817   5.305   7.363  0.3620  0.6074  0.2003
  116OSM    C9F12176   4.714   5.186   7.508  0.2281  0.2739  0.2640
  116OSM    H9F12177   4.711   5.105   7.433  1.7188  0.4906 -0.0705
  116OSM   C10F12178   4.683   5.162   7.634 -0.5869 -0.4502 -0.0410
  116OSM   H10F12179   4.663   5.058   7.663  0.2800 -0.5973  0.0333
  116OSM   C11F12180   4.672   5.264   7.742  0.3251 -0.5883  0.1151
  116OSM   H11F12181   4.574   5.270   7.794  0.7413  0.7833  0.8023
  116OSM   H11G12182   4.698   5.367   7.707  0.8153 -0.6790  0.1954
  116OSM   C12F12183   4.771   5.238   7.857  0.5954  0.1471  0.2143
  116OSM   H12F12184   4.793   5.327   7.920  3.2596  0.3937 -0.9253
  116OSM   H12G12185   4.872   5.226   7.811  1.3711  2.5175  1.1107
  116OSM   C13F12186   4.738   5.118   7.952  0.0652 -0.3644  0.1309
  116OSM   H13F12187   4.832   5.075   7.992  0.0547 -2.0803 -1.5772
  116OSM   H13G12188   4.704   5.039   7.882 -0.2431 -0.6138  0.5635
  116OSM   C14F12189   4.638   5.144   8.063 -0.2951 -0.1301 -0.4142
  116OSM   H14F12190   4.539   5.154   8.012 -1.1427  0.5483  1.2840
  116OSM   H14G12191   4.669   5.231   8.125 -2.3253 -0.4463  1.1635
  116OSM   C15F12192   4.633   5.023   8.168  0.8986  0.4554  0.8717
  116OSM   H15F12193   4.737   4.989   8.183  1.0939 -0.6131 -2.1505
  116OSM   H15G12194   4.570   4.944   8.123 -0.6609  1.5951  0.9452
  116OSM   C16F12195   4.560   5.041   8.298  0.1766 -0.0095 -0.1101
  116OSM   H16F12196   4.622   5.120   8.344  1.7260 -0.5297 -1.2399
  116OSM   H16G12197   4.566   4.951   8.362 -5.7911 -0.5741  0.1979
  116OSM   C17F12198   4.405   5.072   8.294  0.7788  0.4798 -0.1224
  116OSM   H17F12199   4.352   5.000   8.228  0.7001  0.2333  0.2069
  116OSM   H17G12200   4.396   5.171   8.246 -1.5884 -0.3014 -1.4579
  116OSM   C18F12201   4.336   5.074   8.436  0.0469 -0.5091 -0.2369
  116OSM   H18F12202   4.248   5.142   8.431  0.1163 -0.3597  0.5314
  116OSM   H18G12203   4.417   5.103   8.506  0.5492 -1.3881 -0.4422
  116OSM   H18H12204   4.299   4.976   8.472 -0.4824  0.4481  2.0268
  117OSM      N12205   2.021   4.820   6.623 -1.2982  0.0112 -0.8411
  117OSM    C1512206   1.932   4.936   6.651  0.0807  1.2333 -0.8834
  117OSM   H15A12207   1.988   5.025   6.679  2.1329  0.5952 -2.6422
  117OSM   H15B12208   1.876   4.918   6.741  0.0722 -1.4215 -1.3513
  117OSM   H15C12209   1.876   4.960   6.562  0.4420  2.8909 -0.6972
  117OSM    C1412210   2.118   4.790   6.739 -0.2723  0.0811  0.1451
  117OSM   H14A12211   2.201   4.728   6.707 -0.3672 -1.4967  2.7208
  117OSM   H14B12212   2.072   4.738   6.821 -1.4974 -2.1805 -1.8539
  117OSM   H14C12213   2.165   4.883   6.769  0.4913 -0.1044 -0.4379
  117OSM    C1312214   1.943   4.702   6.592 -0.1315  0.0763 -0.1831
  117OSM   H13A12215   1.878   4.675   6.674  0.5116  1.1460  0.7163
  117OSM   H13B12216   1.990   4.607   6.573  2.0767  0.6280  1.8926
  117OSM   H13C12217   1.886   4.725   6.503  1.3267 -0.9275 -1.4233
  117OSM    C1212218   2.106   4.854   6.505  0.2434 -0.7749  0.3595
  117OSM   H12A12219   2.177   4.932   6.531 -0.4868  0.1559 -0.3893
  117OSM   H12B12220   2.045   4.904   6.432  2.3655 -0.1296 -1.0619
  117OSM    C1112221   2.190   4.742   6.448  0.2077  0.1728 -0.0487
  117OSM   H11A12222   2.119   4.671   6.401  0.3309 -0.4092  0.6246
  117OSM   H11B12223   2.242   4.689   6.530 -0.4655 -0.7159 -0.1816
  117OSM      P12224   2.422   4.846   6.403  0.3003  0.3848 -0.0800
  117OSM    O1312225   2.515   4.734   6.395 -0.2419  0.1133 -0.1900
  117OSM    O1412226   2.469   4.970   6.337 -0.3676 -0.1290 -0.2278
  117OSM    O1112227   2.396   4.879   6.553  0.8695 -0.3797 -0.0586
  117OSM    O1212228   2.282   4.800   6.349  0.1895 -0.0492  0.2074
  117OSM    C1S12229   2.407   5.009   6.612  0.0130  0.0184  0.1377
  117OSM    H1S12230   2.310   5.056   6.636  1.6379  3.7193  0.1159
  117OSM    H1T12231   2.469   5.079   6.552  2.4399 -2.0139  0.1084
  117OSM     NF12232   2.444   5.112   6.830 -0.1847  0.3305  0.7026
  117OSM    HNF12233   2.493   5.199   6.832 -2.0550  1.4192  1.7263
  117OSM    C2S12234   2.489   5.004   6.742 -0.0150  0.8239 -0.6982
  117OSM    H2S12235   2.456   4.908   6.789  0.1275  1.2494  0.3019
  117OSM    C3S12236   2.645   4.988   6.713  1.1942  0.0594 -0.5052
  117OSM    H3S12237   2.682   5.085   6.675 -1.1028  0.4586 -1.9740
  117OSM     O312238   2.681   4.889   6.617  0.0380 -0.4132 -0.0722
  117OSM    HO312239   2.597   4.848   6.593  0.1531 -0.2433 -0.7866
  117OSM    C4S12240   2.712   4.966   6.852 -0.3003  0.3110  0.8516
  117OSM    H4S12241   2.725   5.062   6.904  2.0077  0.7574 -0.4045
  117OSM    C5S12242   2.741   4.845   6.910 -0.0563  0.5463 -0.4666
  117OSM    H5S12243   2.720   4.751   6.856  2.7636 -0.7017  0.3964
  117OSM    C6S12244   2.813   4.833   7.040 -0.0850 -0.6024 -0.1268
  117OSM    H6S12245   2.905   4.895   7.031 -1.9296  2.3236 -0.3016
  117OSM    H6T12246   2.836   4.727   7.062  0.2542 -0.9232 -1.8651
  117OSM    C7S12247   2.729   4.899   7.156 -0.3979 -0.0849  0.7838
  117OSM    H7S12248   2.625   4.861   7.147 -0.2516 -0.2905 -0.0866
  117OSM    H7T12249   2.711   5.009   7.155  0.9351  0.1682  2.0639
  117OSM    C8S12250   2.793   4.872   7.285  0.3806 -0.0290 -0.9235
  117OSM    H8S12251   2.902   4.894   7.292  0.0964  0.9710  0.7673
  117OSM    H8T12252   2.776   4.765   7.310 -0.9175  0.8026  2.1496
  117OSM    C9S12253   2.717   4.953   7.392  0.4967 -0.8402 -0.4531
  117OSM    H9S12254   2.619   4.905   7.411 -0.1058  0.3630 -0.4442
  117OSM    H9T12255   2.707   5.059   7.361 -2.2708 -1.1068 -0.6739
  117OSM   C10S12256   2.799   4.953   7.524 -0.1999 -0.3485 -0.0616
  117OSM   H10S12257   2.907   4.973   7.508 -0.2959  0.2226 -0.0174
  117OSM   H10T12258   2.797   4.849   7.564 -2.5099 -0.2533  0.1712
  117OSM   C11S12259   2.743   5.048   7.625 -0.2060  0.1489 -0.5098
  117OSM   H11S12260   2.645   5.005   7.655 -0.3351  0.9349  0.2699
  117OSM   H11T12261   2.728   5.148   7.579  1.2088 -0.0411 -1.4225
  117OSM   C12S12262   2.839   5.064   7.746 -0.4773 -0.3670  0.3547
  117OSM   H12S12263   2.828   5.160   7.802  2.1497 -0.9367  2.0218
  117OSM   H12T12264   2.942   5.071   7.705 -0.9748  0.3427 -0.8193
  117OSM   C13S12265   2.831   4.947   7.845  0.0852  0.2638 -0.0541
  117OSM   H13S12266   2.862   4.852   7.797 -2.9510 -0.9277  0.1373
  117OSM   H13T12267   2.729   4.935   7.886  0.0049 -0.9637 -0.6031
  117OSM   C14S12268   2.918   4.981   7.968  0.0975  0.1649 -0.7162
  117OSM   H14S12269   3.002   5.047   7.937 -0.0201  0.2892 -0.7711
  117OSM   H14T12270   2.959   4.886   8.009 -2.9311 -1.0408 -0.2457
  117OSM   C15S12271   2.838   5.046   8.086  0.0078 -0.7924  0.0670
  117OSM   H15S12272   2.747   4.986   8.106 -0.8303  0.8424  1.3607
  117OSM   H15T12273   2.809   5.150   8.058 -0.3697 -0.8982  0.0572
  117OSM   C16S12274   2.929   5.068   8.211  1.0159 -0.2913 -0.2336
  117OSM   H16S12275   3.004   5.144   8.180  1.3292 -0.5140 -0.0251
  117OSM   H16T12276   2.990   4.977   8.230 -1.5297 -1.7519  1.5628
  117OSM   C17S12277   2.850   5.121   8.331 -0.3088  0.1639  0.1003
  117OSM   H17S12278   2.759   5.057   8.335 -0.1349 -0.0178  1.7491
  117OSM   H17T12279   2.805   5.221   8.315 -0.3746 -0.2361 -2.7187
  117OSM   C18S12280   2.939   5.107   8.451 -0.2770  0.8400  0.0517
  117OSM   H18S12281   3.031   5.168   8.437  0.3857  0.3250  1.9246
  117OSM   H18T12282   2.965   5.000   8.465 -0.3336  0.8903  0.5424
  117OSM   H18U12283   2.888   5.140   8.544  0.8382  0.0644  0.9637
  117OSM    C1F12284   2.329   5.105   6.889 -0.3390  0.1939 -0.1910
  117OSM     OF12285   2.271   4.993   6.895  0.1435 -0.3183  0.5128
  117OSM    C2F12286   2.278   5.237   6.951  0.5138  0.3184  0.0931
  117OSM    H2F12287   2.171   5.232   6.981  0.2927 -0.9871 -0.8474
  117OSM    H2G12288   2.296   5.309   6.868 -2.9740 -0.6243 -1.6776
  117OSM    C3F12289   2.346   5.290   7.080  0.9917 -0.6844 -0.8867
  117OSM    H3F12290   2.457   5.293   7.077  0.9659  0.6436 -1.0101
  117OSM    H3G12291   2.322   5.224   7.166  1.0951  0.5704  0.1398
  117OSM    C4F12292   2.297   5.434   7.139  0.0349  0.1322  0.0135
  117OSM    H4F12293   2.197   5.417   7.184 -0.3380  0.8062 -0.5391
  117OSM    H4G12294   2.293   5.513   7.061 -0.2600  1.3787  1.2429
  117OSM    C5F12295   2.380   5.489   7.260  0.4193  0.1421  0.1148
  117OSM    H5F12296   2.325   5.581   7.288  0.3237 -0.1769  0.9744
  117OSM    H5G12297   2.483   5.519   7.230  0.3980  0.8440  0.7250
  117OSM    C6F12298   2.379   5.391   7.380  0.6776 -0.9505 -0.0851
  117OSM    H6F12299   2.407   5.291   7.341 -0.9827 -1.9530  1.1249
  117OSM    H6G12300   2.282   5.371   7.431  0.1865  0.9609 -0.1777
  117OSM    C7F12301   2.473   5.430   7.500 -1.2044 -0.1522 -0.6897
  117OSM    H7F12302   2.431   5.523   7.544 -1.9832  0.0966 -1.9098
  117OSM    H7G12303   2.572   5.474   7.475 -0.8017  1.4263  3.0434
  117OSM    C8F12304   2.481   5.325   7.617 -0.0008  0.5384  0.5261
  117OSM    H8F12305   2.498   5.224   7.573  0.4473  1.3814 -1.3412
  117OSM    H8G12306   2.377   5.325   7.656  0.2920  1.8704  1.3751
  117OSM    C9F12307   2.584   5.378   7.704  0.0414 -0.6621 -0.2892
  117OSM    H9F12308   2.675   5.410   7.651 -0.8827  1.9592 -0.4427
  117OSM   C10F12309   2.568   5.423   7.829 -0.8999 -0.3755 -1.0091
  117OSM   H10F12310   2.649   5.480   7.876 -1.6068 -1.1677  1.3397
  117OSM   C11F12311   2.441   5.411   7.906 -0.3153  0.3670  0.3128
  117OSM   H11F12312   2.433   5.307   7.943  1.2594 -0.0776 -0.4946
  117OSM   H11G12313   2.351   5.433   7.844  0.4316 -1.2731 -1.4761
  117OSM   C12F12314   2.422   5.513   8.017 -0.5270 -0.7853 -0.7776
  117OSM   H12F12315   2.324   5.484   8.060 -0.2468  0.5037  0.8365
  117OSM   H12G12316   2.413   5.616   7.977 -1.1504 -0.1474  0.9147
  117OSM   C13F12317   2.534   5.509   8.114 -0.5589 -0.8928  0.7586
  117OSM   H13F12318   2.505   5.579   8.194  2.8174 -0.3296  1.6635
  117OSM   H13G12319   2.631   5.549   8.077 -0.4434 -1.8933 -0.0884
  117OSM   C14F12320   2.565   5.368   8.177  0.1340 -0.2114 -0.1820
  117OSM   H14F12321   2.635   5.382   8.263  0.8559  3.4015 -1.1649
  117OSM   H14G12322   2.611   5.304   8.100  0.9651 -0.3500  0.4198
  117OSM   C15F12323   2.438   5.304   8.245 -0.1262 -0.8748  0.2187
  117OSM   H15F12324   2.473   5.202   8.273  1.1792  0.1879  2.8141
  117OSM   H15G12325   2.373   5.302   8.155  0.4061 -0.7626 -0.1722
  117OSM   C16F12326   2.376   5.376   8.369 -0.1083 -0.2187  0.2416
  117OSM   H16F12327   2.338   5.476   8.337  0.6229  0.9970  2.8691
  117OSM   H16G12328   2.452   5.396   8.448 -2.6358  0.7309  2.5595
  117OSM   C17F12329   2.267   5.298   8.439 -0.4345 -0.3089 -0.4803
  117OSM   H17F12330   2.216   5.365   8.511 -0.4906  1.9189 -2.4740
  117OSM   H17G12331   2.191   5.256   8.369  0.2496 -1.0456 -0.8157
  117OSM   C18F12332   2.315   5.175   8.517 -0.5369  0.6251  0.4771
  117OSM   H18F12333   2.383   5.203   8.600  0.0229 -1.0575  0.6225
  117OSM   H18G12334   2.363   5.106   8.444 -0.0891 -0.2308  1.5603
  117OSM   H18H12335   2.234   5.108   8.552 -0.2283 -0.4379 -0.7391
  118OSM      N12336   5.577   0.512   6.104  0.1296 -0.3242  0.2217
  118OSM    C1512337   5.569   0.464   5.961  0.0549 -0.4423 -0.5863
  118OSM   H15A12338   5.661   0.429   5.917  0.5474 -2.5204  1.8334
  118OSM   H15B12339   5.533   0.550   5.907 -4.6822 -1.9724 -0.3429
  118OSM   H15C12340   5.494   0.387   5.952  1.3938 -1.5840 -3.0736
  118OSM    C1412341   5.638   0.395   6.175  0.3283 -0.1453 -0.1422
  118OSM   H14A12342   5.738   0.375   6.141  0.9960 -1.8152  2.5348
  118OSM   H14B12343   5.578   0.307   6.160  1.6920 -0.9075 -1.3617
  118OSM   H14C12344   5.658   0.425   6.277  0.3362 -0.6130 -0.0042
  118OSM    C1312345   5.675   0.628   6.109  0.3971 -0.0849  0.5252
  118OSM   H13A12346   5.752   0.598   6.040 -1.4173 -1.0949 -1.1538
  118OSM   H13B12347   5.712   0.650   6.208 -0.8903 -1.4934  1.3436
  118OSM   H13C12348   5.632   0.724   6.086 -0.7606  0.3520  3.9620
  118OSM    C1212349   5.439   0.546   6.159 -0.0429  0.4497 -0.0019
  118OSM   H12A12350   5.445   0.550   6.267 -0.7920 -0.6445  0.0915
  118OSM   H12B12351   5.378   0.460   6.137 -0.1969  0.4616  0.3666
  118OSM    C1112352   5.360   0.665   6.104  0.1767  0.1648 -0.8693
  118OSM   H11A12353   5.253   0.651   6.130  0.3445 -0.5007 -0.5134
  118OSM   H11B12354   5.361   0.648   5.994  1.1404  0.7215 -0.9558
  118OSM      P12355   5.409   0.840   6.297 -0.1145  0.0592 -0.0364
  118OSM    O1312356   5.465   0.980   6.311  0.1239 -0.0335 -0.4746
  118OSM    O1412357   5.277   0.807   6.350  0.0709  0.7484  0.4761
  118OSM    O1112358   5.503   0.736   6.375  0.2406  0.1353  0.2120
  118OSM    O1212359   5.419   0.787   6.150  0.5019  0.2430 -0.6586
  118OSM    C1S12360   5.488   0.719   6.519 -0.4938 -0.2162  0.2124
  118OSM    H1S12361   5.396   0.662   6.547 -1.0061  0.6427  0.3108
  118OSM    H1T12362   5.477   0.814   6.575 -0.4820  0.1756 -0.4509
  118OSM     NF12363   5.576   0.648   6.740 -0.2838  0.2689  0.4688
  118OSM    HNF12364   5.613   0.732   6.779 -1.2478  1.7969 -1.7042
  118OSM    C2S12365   5.597   0.638   6.598  0.0214  0.4367  1.4857
  118OSM    H2S12366   5.606   0.531   6.567  0.6377  0.3259  2.0412
  118OSM    C3S12367   5.737   0.694   6.558  0.2518 -0.0411 -0.0603
  118OSM    H3S12368   5.728   0.804   6.572  0.9047 -0.0041  0.0788
  118OSM     O312369   5.761   0.686   6.423  0.4448 -0.5306 -0.0373
  118OSM    HO312370   5.669   0.693   6.398  0.5120  0.5703 -0.0170
  118OSM    C4S12371   5.853   0.639   6.627  0.3511 -0.7451 -0.0097
  118OSM    H4S12372   5.854   0.529   6.626 -1.8055 -0.8429  1.6893
  118OSM    C5S12373   5.937   0.716   6.697 -0.1420  0.0619  0.1707
  118OSM    H5S12374   5.922   0.825   6.690  0.8613  0.2644  0.9743
  118OSM    C6S12375   6.053   0.667   6.793 -0.1302 -0.2145  0.2758
  118OSM    H6S12376   6.140   0.639   6.730  1.3076 -0.8306  2.4467
  118OSM    H6T12377   6.029   0.585   6.863  3.5474 -0.6767  1.1794
  118OSM    C7S12378   6.098   0.784   6.881 -0.8091  0.2201  0.2201
  118OSM    H7S12379   6.009   0.811   6.942 -1.6100 -0.7458 -0.4949
  118OSM    H7T12380   6.131   0.871   6.820 -0.9395  0.6114  0.6965
  118OSM    C8S12381   6.215   0.741   6.978  0.5417  0.2182  0.7215
  118OSM    H8S12382   6.307   0.714   6.920  0.8779 -0.1909  1.4319
  118OSM    H8T12383   6.179   0.648   7.028 -1.5149  0.4345 -0.2714
  118OSM    C9S12384   6.245   0.835   7.086  0.0045  0.3600 -0.0885
  118OSM    H9S12385   6.156   0.887   7.127 -0.5791 -0.0104 -0.8585
  118OSM    H9T12386   6.332   0.897   7.058  1.0353 -0.3048  1.4819
  118OSM   C10S12387   6.305   0.763   7.213  0.4950 -0.8187  0.5844
  118OSM   H10S12388   6.397   0.712   7.176  0.1802 -1.8423  1.1990
  118OSM   H10T12389   6.233   0.686   7.246 -0.5339  0.0801  0.4671
  118OSM   C11S12390   6.339   0.858   7.326 -0.1733  0.2696 -0.6886
  118OSM   H11S12391   6.242   0.900   7.361 -2.1167 -3.9013 -0.4478
  118OSM   H11T12392   6.410   0.938   7.295  1.5896  0.6556  3.5700
  118OSM   C12S12393   6.405   0.773   7.439  0.1073  0.0643 -0.0029
  118OSM   H12S12394   6.500   0.722   7.413 -0.7230 -1.6564  0.2556
  118OSM   H12T12395   6.329   0.698   7.470  0.7384  0.3757  2.4917
  118OSM   C13S12396   6.436   0.865   7.557 -0.6671  0.2952 -0.3592
  118OSM   H13S12397   6.366   0.951   7.553 -0.2406  0.6166 -1.4865
  118OSM   H13T12398   6.544   0.889   7.544 -0.4716  0.0653  0.7535
  118OSM   C14S12399   6.410   0.800   7.701 -0.2002 -0.5727  0.8360
  118OSM   H14S12400   6.428   0.690   7.710  0.8745 -0.2795  2.9279
  118OSM   H14T12401   6.301   0.792   7.722 -0.9922  0.1878 -2.5297
  118OSM   C15S12402   6.500   0.863   7.804  0.0387  0.4516  0.7422
  118OSM   H15S12403   6.474   0.971   7.810  1.0066  0.6654  1.3996
  118OSM   H15T12404   6.607   0.860   7.774  0.0093  1.7021  0.4395
  118OSM   C16S12405   6.480   0.806   7.946  0.0277 -0.4490  0.5818
  118OSM   H16S12406   6.487   0.696   7.939 -3.5443 -0.7302 -0.3186
  118OSM   H16T12407   6.377   0.836   7.976  0.2842 -0.6363  1.7147
  118OSM   C17S12408   6.581   0.864   8.033 -0.6068 -0.5707 -0.8774
  118OSM   H17S12409   6.551   0.970   8.045  2.6995  0.5987 -1.9462
  118OSM   H17T12410   6.682   0.873   7.987 -0.6593  0.9747 -0.7336
  118OSM   C18S12411   6.593   0.783   8.162  0.6323  0.2338 -0.4823
  118OSM   H18S12412   6.677   0.822   8.223 -0.6328  2.7134 -0.1706
  118OSM   H18T12413   6.603   0.674   8.149 -0.6303  0.1688 -1.1159
  118OSM   H18U12414   6.498   0.804   8.216  0.2191 -0.0834 -1.0759
  118OSM    C1F12415   5.467   0.582   6.784  0.2284 -0.2765  0.4230
  118OSM     OF12416   5.422   0.481   6.730  0.7709  0.4364 -0.0763
  118OSM    C2F12417   5.400   0.649   6.901  0.3462  0.0206 -0.5461
  118OSM    H2F12418   5.427   0.757   6.904  0.0918  0.1803 -2.6330
  118OSM    H2G12419   5.442   0.612   6.997 -2.1150 -0.2493  0.4993
  118OSM    C3F12420   5.246   0.619   6.892 -0.2204 -0.2874 -0.0956
  118OSM    H3F12421   5.229   0.509   6.900  1.3729 -0.6763 -1.4406
  118OSM    H3G12422   5.196   0.635   6.794 -2.3472  0.2473  1.0077
  118OSM    C4F12423   5.165   0.691   6.991 -0.4107 -0.2355  0.2807
  118OSM    H4F12424   5.060   0.655   7.003 -0.6006 -0.5091 -1.8010
  118OSM    H4G12425   5.154   0.800   6.976  0.2751  0.1360  2.1688
  118OSM    C5F12426   5.217   0.681   7.136 -0.5447 -0.1000  0.2899
  118OSM    H5F12427   5.318   0.725   7.148  0.5576 -2.4542  0.2004
  118OSM    H5G12428   5.211   0.571   7.153 -1.6210  0.1797  2.0437
  118OSM    C6F12429   5.124   0.761   7.237  0.4620 -0.9551 -0.0140
  118OSM    H6F12430   5.023   0.715   7.226  0.1064 -0.1168 -0.3612
  118OSM    H6G12431   5.109   0.866   7.204 -0.5489 -0.5844  1.5198
  118OSM    C7F12432   5.180   0.765   7.377  0.2610 -0.5038  0.2027
  118OSM    H7F12433   5.262   0.840   7.379 -0.1218  0.0004 -1.5974
  118OSM    H7G12434   5.226   0.666   7.399  0.1086 -0.2452  1.7887
  118OSM    C8F12435   5.085   0.776   7.491 -0.2975  0.1582 -0.6511
  118OSM    H8F12436   5.003   0.702   7.494 -0.1114 -0.0271  0.4118
  118OSM    H8G12437   5.034   0.874   7.495 -1.3911 -0.1289 -3.9748
  118OSM    C9F12438   5.157   0.770   7.622  0.3319 -0.2789  0.0899
  118OSM    H9F12439   5.267   0.773   7.628  0.2432  1.7619  1.4871
  118OSM   C10F12440   5.107   0.751   7.741 -0.3526  0.5368 -0.3037
  118OSM   H10F12441   5.181   0.738   7.822  2.0794  0.6254 -2.4057
  118OSM   C11F12442   4.957   0.735   7.776 -0.2298  0.4877 -0.5886
  118OSM   H11F12443   4.916   0.635   7.750 -2.3520  1.4679 -1.2773
  118OSM   H11G12444   4.890   0.796   7.711 -0.4860 -1.1507 -1.9184
  118OSM   C12F12445   4.916   0.762   7.917 -0.5189  0.7611 -0.1291
  118OSM   H12F12446   4.808   0.738   7.927 -0.3977  0.2268 -0.1071
  118OSM   H12G12447   4.923   0.871   7.937  0.5570  0.2845  2.3877
  118OSM   C13F12448   4.987   0.674   8.020 -0.3692 -0.4376  0.2722
  118OSM   H13F12449   5.091   0.709   8.041 -0.4452  0.1902 -0.3842
  118OSM   H13G12450   4.996   0.574   7.971 -0.1550 -0.2812 -0.0097
  118OSM   C14F12451   4.897   0.667   8.152 -0.3643 -0.7041  0.3762
  118OSM   H14F12452   4.803   0.610   8.134 -0.0931 -1.7346  1.9997
  118OSM   H14G12453   4.873   0.768   8.193  0.1066 -1.4648  2.6510
  118OSM   C15F12454   4.973   0.595   8.251  0.7776 -0.2028  0.9705
  118OSM   H15F12455   5.055   0.661   8.288  0.8378  0.6055 -0.5084
  118OSM   H15G12456   5.019   0.505   8.205  0.0412 -0.3591  0.5414
  118OSM   C16F12457   4.889   0.560   8.372  0.4931 -0.1644  0.7201
  118OSM   H16F12458   4.781   0.542   8.351 -0.1503 -1.2262  4.2341
  118OSM   H16G12459   4.886   0.640   8.449 -0.1210  2.4587 -1.8353
  118OSM   C17F12460   4.954   0.440   8.438 -0.4941 -0.0276 -0.6943
  118OSM   H17F12461   5.056   0.475   8.463 -0.7659 -0.3525  1.0041
  118OSM   H17G12462   4.969   0.361   8.362  0.1396  0.7592 -1.4044
  118OSM   C18F12463   4.890   0.381   8.564 -0.3136 -0.0174 -0.3728
  118OSM   H18F12464   4.870   0.455   8.644 -1.7905 -0.8055  0.0084
  118OSM   H18G12465   4.966   0.311   8.604  0.8966  1.7682  0.6333
  118OSM   H18H12466   4.798   0.325   8.537  1.5164 -2.1593 -2.6734
  119OSM      N12467   4.824   0.092   5.880 -0.4096  0.2787  0.2094
  119OSM    C1512468   4.903   0.087   5.756 -0.8412 -0.4836 -0.7668
  119OSM   H15A12469   4.941   0.185   5.734 -0.1757 -0.5159  0.1804
  119OSM   H15B12470   4.849   0.052   5.669  1.0381 -1.8100 -1.4739
  119OSM   H15C12471   4.990   0.025   5.770  0.0840  0.1493 -3.2482
  119OSM    C1412472   4.724   0.193   5.874 -0.9219  0.6014  0.1089
  119OSM   H14A12473   4.772   0.290   5.874  0.3513  0.0033 -0.8211
  119OSM   H14B12474   4.659   0.184   5.960 -0.8399 -0.6640  0.0487
  119OSM   H14C12475   4.663   0.168   5.789  0.3427 -2.4063 -0.0367
  119OSM    C1312476   4.748  -0.035   5.879 -0.0351  0.4310  0.4577
  119OSM   H13A12477   4.705  -0.063   5.784  0.5750  2.5665 -0.5013
  119OSM   H13B12478   4.672  -0.032   5.956 -0.7663 -2.5867 -0.0081
  119OSM   H13C12479   4.813  -0.118   5.901  0.2530 -0.0288 -1.9075
  119OSM    C1212480   4.904   0.113   6.006  0.0992  0.0750 -0.0273
  119OSM   H12A12481   4.834   0.128   6.088 -2.2536 -1.3791 -1.6650
  119OSM   H12B12482   4.953   0.210   6.010  1.2514 -0.4057  5.2064
  119OSM    C1112483   5.010   0.007   6.035 -0.6413 -0.2760 -0.0130
  119OSM   H11A12484   4.961  -0.093   6.028  3.1058 -2.5217  2.1467
  119OSM   H11B12485   5.041   0.020   6.141 -1.2045  0.3174  0.0802
  119OSM      P12486   5.195  -0.099   5.897  0.2301 -0.1458 -0.0879
  119OSM    O1312487   5.110  -0.155   5.795  0.7871 -0.5015  0.1343
  119OSM    O1412488   5.334  -0.070   5.859 -0.3834  0.1630  0.2351
  119OSM    O1112489   5.202  -0.192   6.017 -0.0954 -0.0985  0.1683
  119OSM    O1212490   5.126   0.031   5.954 -0.3072  0.0517  0.1084
  119OSM    C1S12491   5.301  -0.175   6.123 -0.0028 -0.9880 -0.3441
  119OSM    H1S12492   5.310  -0.074   6.168  1.9239 -1.8031  1.2759
  119OSM    H1T12493   5.405  -0.198   6.093 -0.0808  0.9083 -2.3211
  119OSM     NF12494   5.342  -0.244   6.359  0.8651 -0.3378 -0.2488
  119OSM    HNF12495   5.422  -0.304   6.355  1.9304  1.0369 -0.1597
  119OSM    C2S12496   5.261  -0.268   6.242 -0.5373 -0.0294  0.0701
  119OSM    H2S12497   5.159  -0.241   6.274 -0.1988  0.7446  0.5340
  119OSM    C3S12498   5.260  -0.411   6.185 -0.5665 -0.7980 -0.2950
  119OSM    H3S12499   5.367  -0.422   6.154 -0.0943  1.3964  0.3841
  119OSM     O312500   5.172  -0.442   6.077 -0.8872 -0.0590  0.4737
  119OSM    HO312501   5.156  -0.354   6.041 -2.8219 -0.3308  0.5330
  119OSM    C4S12502   5.240  -0.520   6.294 -0.1756 -0.2638 -0.3791
  119OSM    H4S12503   5.329  -0.569   6.338 -1.4151 -1.8216  0.4884
  119OSM    C5S12504   5.122  -0.565   6.338 -1.2843 -0.5348  0.3392
  119OSM    H5S12505   5.036  -0.526   6.282 -1.1697 -1.0378 -0.1912
  119OSM    C6S12506   5.087  -0.674   6.437  0.3289  0.3863  0.2036
  119OSM    H6S12507   5.060  -0.766   6.379  3.2953 -1.1861  1.1149
  119OSM    H6T12508   5.000  -0.650   6.501 -0.2158 -2.4687  0.7002
  119OSM    C7S12509   5.190  -0.714   6.548 -0.1347  0.0131  0.1333
  119OSM    H7S12510   5.285  -0.734   6.495 -1.3032  2.1160 -3.0663
  119OSM    H7T12511   5.154  -0.811   6.589  2.5686 -1.3376 -0.4719
  119OSM    C8S12512   5.223  -0.613   6.656  0.3318 -0.4281  0.2172
  119OSM    H8S12513   5.127  -0.594   6.709  0.6807  0.2939  0.6144
  119OSM    H8T12514   5.256  -0.514   6.616  0.5247  1.0739  3.6683
  119OSM    C9S12515   5.338  -0.651   6.755 -0.0359  0.6731  0.4205
  119OSM    H9S12516   5.430  -0.646   6.693 -0.8623  2.5300 -0.7588
  119OSM    H9T12517   5.325  -0.759   6.774 -2.0293  0.6466 -0.7709
  119OSM   C10S12518   5.362  -0.559   6.875  1.3286  0.5214  0.0580
  119OSM   H10S12519   5.266  -0.551   6.932  0.8608 -0.9430 -0.4949
  119OSM   H10T12520   5.393  -0.460   6.835 -0.8002  0.3363 -2.2876
  119OSM   C11S12521   5.463  -0.598   6.976  0.2713  0.3669 -0.0635
  119OSM   H11S12522   5.559  -0.584   6.923 -0.9180  0.8957 -2.1970
  119OSM   H11T12523   5.446  -0.704   7.005 -0.7730  0.4827 -0.1915
  119OSM   C12S12524   5.460  -0.519   7.111  0.2790  1.0542 -0.5383
  119OSM   H12S12525   5.366  -0.541   7.166  1.0604 -1.6125 -0.1094
  119OSM   H12T12526   5.464  -0.409   7.096 -0.6244  0.9907 -1.3800
  119OSM   C13S12527   5.558  -0.549   7.226 -0.2959 -0.0559  0.5456
  119OSM   H13S12528   5.660  -0.519   7.193 -0.7194  2.1463  1.0810
  119OSM   H13T12529   5.563  -0.658   7.247  0.5088 -0.1584 -0.1156
  119OSM   C14S12530   5.522  -0.473   7.352 -0.1243 -0.2103 -0.3862
  119OSM   H14S12531   5.412  -0.488   7.356 -0.5849  2.7743  1.4460
  119OSM   H14T12532   5.547  -0.364   7.354  0.1942 -0.2793 -0.4798
  119OSM   C15S12533   5.579  -0.525   7.481  0.1428 -0.1041 -1.0423
  119OSM   H15S12534   5.688  -0.503   7.490 -0.0350  0.6364 -0.5705
  119OSM   H15T12535   5.554  -0.632   7.493  0.6965 -0.0628  0.6740
  119OSM   C16S12536   5.513  -0.449   7.606  0.2295  0.3557  0.6322
  119OSM   H16S12537   5.405  -0.474   7.619  0.5454 -0.2216  2.4618
  119OSM   H16T12538   5.524  -0.340   7.587 -0.2707  0.3696  0.4257
  119OSM   C17S12539   5.593  -0.486   7.728 -0.4580  0.6268 -0.4844
  119OSM   H17S12540   5.699  -0.459   7.710 -0.0004  0.6057  1.8979
  119OSM   H17T12541   5.591  -0.597   7.738 -1.2677  0.3033 -3.2149
  119OSM   C18S12542   5.549  -0.408   7.855  0.0232  0.0050 -0.1270
  119OSM   H18S12543   5.557  -0.301   7.826  3.3538  0.0125  0.4202
  119OSM   H18T12544   5.616  -0.424   7.941 -1.3954 -1.4783  0.7687
  119OSM   H18U12545   5.444  -0.428   7.885 -0.1870  1.6968  0.3647
  119OSM    C1F12546   5.333  -0.131   6.427  0.2517  0.5532 -0.6439
  119OSM     OF12547   5.248  -0.050   6.407  0.5087 -0.1220  0.4475
  119OSM    C2F12548   5.441  -0.108   6.532 -0.7279 -0.5043 -0.6252
  119OSM    H2F12549   5.513  -0.047   6.473 -3.5829  0.2605 -3.6336
  119OSM    H2G12550   5.477  -0.208   6.565 -2.3386 -0.6386  0.8664
  119OSM    C3F12551   5.381  -0.027   6.650 -0.4358  0.5032 -0.3593
  119OSM    H3F12552   5.319  -0.093   6.713  0.3589  1.6287  1.6991
  119OSM    H3G12553   5.322   0.061   6.616  2.5472  2.9138  0.2237
  119OSM    C4F12554   5.495   0.034   6.742  0.2017  0.4900  0.0804
  119OSM    H4F12555   5.564   0.087   6.673  0.6209 -0.9554 -0.6501
  119OSM    H4G12556   5.549  -0.047   6.794 -2.4321 -1.1204  0.5114
  119OSM    C5F12557   5.431   0.131   6.836 -0.3580 -0.2292  0.2631
  119OSM    H5F12558   5.338   0.088   6.879 -1.4713  1.3408 -0.4676
  119OSM    H5G12559   5.400   0.214   6.769  0.9449 -0.0095 -0.0992
  119OSM    C6F12560   5.509   0.176   6.957 -0.3249 -0.0648  0.3906
  119OSM    H6F12561   5.596   0.237   6.924 -0.7638  0.8573  0.9231
  119OSM    H6G12562   5.551   0.089   7.014  0.6319 -0.9710 -1.5894
  119OSM    C7F12563   5.429   0.281   7.038  0.9547  0.6348  0.0194
  119OSM    H7F12564   5.346   0.233   7.095 -0.8250  0.7907 -2.2990
  119OSM    H7G12565   5.382   0.347   6.963 -1.9000  0.0339  1.1394
  119OSM    C8F12566   5.517   0.365   7.130 -0.6042  0.2340  0.1938
  119OSM    H8F12567   5.464   0.446   7.185 -0.8907 -0.6858  1.3065
  119OSM    H8G12568   5.605   0.395   7.069  0.0856 -2.5266 -0.2860
  119OSM    C9F12569   5.580   0.274   7.236  0.3124 -0.1494 -0.1364
  119OSM    H9F12570   5.632   0.188   7.193  1.1610 -0.3240  1.1901
  119OSM   C10F12571   5.579   0.285   7.369 -0.2140 -0.3697 -0.5965
  119OSM   H10F12572   5.631   0.201   7.418 -1.3187 -0.1446  1.0228
  119OSM   C11F12573   5.516   0.383   7.460  0.1380 -0.3134  0.5014
  119OSM   H11F12574   5.434   0.327   7.509 -2.0138 -1.0831 -3.5584
  119OSM   H11G12575   5.473   0.463   7.397  1.1203 -0.6143 -0.5905
  119OSM   C12F12576   5.603   0.445   7.573  0.0617  0.2613 -0.2681
  119OSM   H12F12577   5.546   0.529   7.619  2.8481  3.7502 -2.6165
  119OSM   H12G12578   5.696   0.480   7.524  1.6888 -2.9735  0.2519
  119OSM   C13F12579   5.652   0.341   7.675 -0.2807 -0.3107 -0.0624
  119OSM   H13F12580   5.705   0.252   7.634 -1.1556 -0.0954 -1.7483
  119OSM   H13G12581   5.555   0.299   7.709  0.2433 -0.5029  1.2923
  119OSM   C14F12582   5.729   0.408   7.789 -0.3954 -0.7631 -0.0570
  119OSM   H14F12583   5.666   0.497   7.813 -2.5642 -2.2571  0.0810
  119OSM   H14G12584   5.831   0.438   7.758  0.3575 -1.9960  1.0991
  119OSM   C15F12585   5.754   0.323   7.913  0.4901  0.3577  0.0271
  119OSM   H15F12586   5.779   0.222   7.873  0.7641 -0.0358  1.1249
  119OSM   H15G12587   5.664   0.323   7.979  0.5012  0.2690  0.0430
  119OSM   C16F12588   5.884   0.369   7.992  1.1405  0.3211  0.1736
  119OSM   H16F12589   5.975   0.355   7.930  0.5532  1.0874 -0.8985
  119OSM   H16G12590   5.895   0.297   8.076 -2.5444 -0.0844  0.4731
  119OSM   C17F12591   5.868   0.509   8.053  0.4815 -0.1252  1.1462
  119OSM   H17F12592   5.778   0.520   8.117  1.1199  0.3215  1.9811
  119OSM   H17G12593   5.848   0.581   7.971 -3.5658  0.7871  2.6944
  119OSM   C18F12594   5.975   0.557   8.149  0.3337  0.0639 -0.3656
  119OSM   H18F12595   6.059   0.609   8.098 -1.6219  3.3208 -0.5138
  119OSM   H18G12596   6.020   0.477   8.212  1.3992  0.2308 -0.8818
  119OSM   H18H12597   5.926   0.625   8.221  3.4120  2.1826 -0.0867
  120OSM      N12598   3.902   5.083   5.898  0.0503 -0.0581  0.9269
  120OSM    C1512599   4.012   5.179   5.879 -0.9281 -0.4518 -0.1912
  120OSM   H15A12600   4.111   5.135   5.875  0.2024  1.7667  1.2995
  120OSM   H15B12601   4.029   5.253   5.956  0.7361 -1.9179  0.9266
  120OSM   H15C12602   4.004   5.225   5.782  2.9998 -0.8075 -0.8461
  120OSM    C1412603   3.765   5.147   5.869 -0.4310  0.4695  0.1955
  120OSM   H14A12604   3.687   5.075   5.888 -1.8246  1.4726 -1.4481
  120OSM   H14B12605   3.756   5.170   5.764 -0.9599  0.5021  0.2452
  120OSM   H14C12606   3.763   5.237   5.929  0.4029 -0.0071  0.9589
  120OSM    C1312607   3.914   4.967   5.798 -0.1291 -0.7701 -0.2638
  120OSM   H13A12608   4.007   4.919   5.825  1.4988  2.5774  0.5839
  120OSM   H13B12609   3.913   4.999   5.695  2.9125  1.4590  0.2637
  120OSM   H13C12610   3.829   4.902   5.813 -2.4250  1.2131 -3.3778
  120OSM    C1212611   3.903   5.018   6.035  0.3030  0.0856 -0.0621
  120OSM   H12A12612   4.006   4.984   6.037  0.8791  1.6294 -1.2946
  120OSM   H12B12613   3.851   4.924   6.043  1.2979 -0.4451  0.4093
  120OSM    C1112614   3.874   5.097   6.164  0.3385  0.2517  0.2221
  120OSM   H11A12615   3.943   5.184   6.169  1.7772 -0.8156 -0.5394
  120OSM   H11B12616   3.913   5.035   6.248  0.9530  1.3475  0.7723
  120OSM      P12617   3.688   5.277   6.230 -0.4737 -0.1725  0.6101
  120OSM    O1312618   3.756   5.382   6.145  0.5350 -0.1129 -0.1673
  120OSM    O1412619   3.541   5.276   6.233  0.1099  0.1461 -0.0936
  120OSM    O1112620   3.751   5.303   6.375  0.1883 -0.0455  0.4314
  120OSM    O1212621   3.734   5.131   6.178 -0.1104  0.3860 -0.2476
  120OSM    C1S12622   3.672   5.290   6.492 -0.2742  0.3133  0.4225
  120OSM    H1S12623   3.562   5.279   6.475  0.0775 -1.7087 -0.9051
  120OSM    H1T12624   3.674   5.379   6.557  0.2415 -0.1767  1.0920
  120OSM     NF12625   3.641   5.170   6.694 -0.4417 -0.1541 -0.1373
  120OSM    HNF12626   3.674   5.219   6.775  4.8692 -0.9138 -1.4436
  120OSM    C2S12627   3.720   5.173   6.579 -0.7445 -0.3802  0.0230
  120OSM    H2S12628   3.725   5.073   6.530 -2.3018 -1.2669  1.5586
  120OSM    C3S12629   3.872   5.201   6.611  0.8236  0.0905  0.1820
  120OSM    H3S12630   3.867   5.296   6.668 -1.0573 -0.5276  1.1458
  120OSM     O312631   3.957   5.206   6.499  0.0050  0.0114  0.0225
  120OSM    HO312632   3.902   5.239   6.428 -2.2157 -2.2752  0.5256
  120OSM    C4S12633   3.916   5.096   6.700  0.0226  0.1249  0.3097
  120OSM    H4S12634   3.936   5.140   6.799  1.7266  2.5338 -0.9912
  120OSM    C5S12635   3.929   4.961   6.672  0.0600 -0.1922 -0.6098
  120OSM    H5S12636   3.904   4.937   6.567 -0.9025  0.6343 -0.5871
  120OSM    C6S12637   3.989   4.854   6.753 -1.4004 -0.2689  0.7199
  120OSM    H6S12638   4.050   4.792   6.683 -1.0160  1.5789 -0.6741
  120OSM    H6T12639   3.914   4.780   6.789 -1.7569 -0.6259 -0.6558
  120OSM    C7S12640   4.057   4.898   6.880 -0.2528  0.3575 -0.2230
  120OSM    H7S12641   3.982   4.942   6.948 -0.6602 -0.9481  0.1956
  120OSM    H7T12642   4.132   4.975   6.853 -0.0058  0.3576  0.4611
  120OSM    C8S12643   4.116   4.781   6.955 -0.0768  0.1011 -0.2916
  120OSM    H8S12644   4.217   4.746   6.927  0.2668  0.2595  0.6986
  120OSM    H8T12645   4.039   4.701   6.950 -0.2625 -0.0686  2.9352
  120OSM    C9S12646   4.147   4.807   7.102 -0.3007  0.6530 -0.3140
  120OSM    H9S12647   4.194   4.711   7.131 -2.5912 -1.2969 -2.5664
  120OSM    H9T12648   4.054   4.801   7.163 -0.5676  1.8864 -0.5683
  120OSM   C10S12649   4.219   4.934   7.132 -0.0580  0.0413 -0.0196
  120OSM   H10S12650   4.147   5.010   7.170  1.1211  0.2663  1.9513
  120OSM   H10T12651   4.278   4.979   7.049 -1.0382  0.6182 -0.4280
  120OSM   C11S12652   4.305   4.921   7.256 -0.8312  0.3402 -0.3996
  120OSM   H11S12653   4.334   5.023   7.288  0.3940  0.1452 -0.8342
  120OSM   H11T12654   4.389   4.852   7.232 -3.1506 -2.2856 -1.5526
  120OSM   C12S12655   4.239   4.853   7.379  0.3381 -0.0362  0.6242
  120OSM   H12S12656   4.231   4.745   7.353  0.5330  0.7706 -3.3678
  120OSM   H12T12657   4.139   4.897   7.398 -0.1825  0.2838 -2.4650
  120OSM   C13S12658   4.325   4.871   7.501  0.2974 -0.1394  0.7051
  120OSM   H13S12659   4.367   4.974   7.493 -0.9368  0.4739  1.7212
  120OSM   H13T12660   4.414   4.805   7.500 -0.1877 -0.8035  0.9772
  120OSM   C14S12661   4.265   4.854   7.639 -0.2802 -0.4406 -0.6323
  120OSM   H14S12662   4.243   4.747   7.656 -0.0873 -0.4536 -0.4584
  120OSM   H14T12663   4.171   4.909   7.667  1.1330  0.3614  3.2647
  120OSM   C15S12664   4.359   4.900   7.750  0.0760  0.3068 -0.5811
  120OSM   H15S12665   4.380   5.009   7.754 -1.3102  0.5679  0.0038
  120OSM   H15T12666   4.454   4.848   7.722  0.2089  0.6301 -0.7412
  120OSM   C16S12667   4.324   4.856   7.897  0.4156  0.2766  0.3334
  120OSM   H16S12668   4.219   4.882   7.922 -0.2385 -0.8183 -1.1749
  120OSM   H16T12669   4.394   4.917   7.959 -0.5482  1.6563  0.1042
  120OSM   C17S12670   4.340   4.701   7.921  0.3052 -0.0002 -0.2340
  120OSM   H17S12671   4.444   4.682   7.887  0.4088 -1.4568  0.7823
  120OSM   H17T12672   4.267   4.642   7.862 -1.1134  0.6336  0.8313
  120OSM   C18S12673   4.338   4.652   8.063  0.4921  0.4508  0.3174
  120OSM   H18S12674   4.356   4.542   8.064  0.2344  0.4133  1.0947
  120OSM   H18T12675   4.249   4.670   8.127 -0.8944 -1.5400 -0.9455
  120OSM   H18U12676   4.419   4.707   8.116 -0.3445 -0.9065  3.2271
  120OSM    C1F12677   3.517   5.131   6.686 -0.3034 -0.4130  0.2371
  120OSM     OF12678   3.471   5.085   6.578 -0.2865 -0.2437  0.6781
  120OSM    C2F12679   3.421   5.161   6.802 -0.3953 -0.2770 -0.0316
  120OSM    H2F12680   3.370   5.255   6.770  0.4188 -0.2955 -1.4736
  120OSM    H2G12681   3.485   5.179   6.890  1.6804  0.9003 -1.6905
  120OSM    C3F12682   3.320   5.050   6.794  0.1877 -0.4466  0.2075
  120OSM    H3F12683   3.358   4.947   6.779 -3.1034 -1.4006 -3.2328
  120OSM    H3G12684   3.247   5.070   6.712  1.3365 -1.3173 -1.0574
  120OSM    C4F12685   3.238   5.056   6.921 -0.1110  0.1599 -0.2256
  120OSM    H4F12686   3.160   4.978   6.906  0.7074 -0.3156 -2.4205
  120OSM    H4G12687   3.177   5.149   6.921 -0.9010 -0.3430  0.7213
  120OSM    C5F12688   3.304   5.023   7.052  0.0936  0.0490  0.1986
  120OSM    H5F12689   3.411   5.053   7.043  0.1579 -0.2884 -0.2070
  120OSM    H5G12690   3.297   4.913   7.065 -1.4073  0.2632  1.4654
  120OSM    C6F12691   3.237   5.098   7.169 -0.3739  0.6784  0.2261
  120OSM    H6F12692   3.128   5.081   7.169 -0.3431  0.4543 -0.2029
  120OSM    H6G12693   3.265   5.202   7.141  0.7018 -0.6663 -4.8012
  120OSM    C7F12694   3.286   5.063   7.308  0.3487 -0.1691 -0.3094
  120OSM    H7F12695   3.262   4.957   7.331 -1.4042  0.4436  0.9336
  120OSM    H7G12696   3.229   5.122   7.383 -0.9028 -2.2709  0.4854
  120OSM    C8F12697   3.436   5.086   7.334 -0.0984 -1.2810 -0.2928
  120OSM    H8F12698   3.508   5.056   7.255 -0.3500  0.4456 -1.2368
  120OSM    H8G12699   3.458   5.030   7.427 -1.5895 -0.7786  0.3857
  120OSM    C9F12700   3.471   5.231   7.344  0.2405 -0.2005  0.4302
  120OSM    H9F12701   3.441   5.291   7.257  2.2456 -1.0406 -0.9072
  120OSM   C10F12702   3.540   5.289   7.452 -0.1784  0.0997  0.5402
  120OSM   H10F12703   3.571   5.394   7.449  0.1212  0.0409  1.3524
  120OSM   C11F12704   3.574   5.218   7.579  0.3219 -0.5567 -0.4589
  120OSM   H11F12705   3.679   5.188   7.559  0.5466 -0.1839  0.1330
  120OSM   H11G12706   3.511   5.130   7.607 -0.8486  0.5091  0.3530
  120OSM   C12F12707   3.589   5.319   7.700 -0.1674 -0.4556 -0.2886
  120OSM   H12F12708   3.603   5.262   7.794 -0.4950  0.6266  0.4437
  120OSM   H12G12709   3.494   5.372   7.722  0.4201 -0.4587  2.6081
  120OSM   C13F12710   3.715   5.411   7.701  0.5931 -0.7359  0.6342
  120OSM   H13F12711   3.703   5.478   7.613  0.2580 -0.3285  0.9894
  120OSM   H13G12712   3.814   5.361   7.691  0.3118 -1.6325  2.0606
  120OSM   C14F12713   3.713   5.501   7.821  0.6519 -0.3013 -0.0464
  120OSM   H14F12714   3.608   5.533   7.839  0.4722 -0.4392 -0.8191
  120OSM   H14G12715   3.768   5.595   7.798 -0.8920  0.2447 -1.7012
  120OSM   C15F12716   3.769   5.442   7.955 -0.2495 -0.6647 -0.9051
  120OSM   H15F12717   3.877   5.417   7.945  0.0492 -0.0012  0.3420
  120OSM   H15G12718   3.714   5.353   7.993 -0.4184 -0.9561 -1.8175
  120OSM   C16F12719   3.774   5.548   8.069  1.1243 -0.3531 -0.2386
  120OSM   H16F12720   3.837   5.632   8.032  2.3521 -1.6010 -1.0624
  120OSM   H16G12721   3.823   5.505   8.159 -0.8558 -1.4090  0.3886
  120OSM   C17F12722   3.644   5.580   8.124  0.2559  0.0861  1.0155
  120OSM   H17F12723   3.589   5.484   8.136 -0.3858  0.5024  1.5117
  120OSM   H17G12724   3.593   5.650   8.056  1.2475  0.6341  0.8195
  120OSM   C18F12725   3.653   5.644   8.263  0.2444 -0.0742 -0.0826
  120OSM   H18F12726   3.549   5.672   8.288  0.1699  1.0698 -1.5826
  120OSM   H18G12727   3.705   5.742   8.269  1.9288 -0.9711  4.4847
  120OSM   H18H12728   3.691   5.582   8.347 -0.3800 -2.7009 -1.6268
  121OSM      N12729   6.063   0.082   5.928  0.2796  0.4173  0.0092
  121OSM    C1512730   5.912   0.108   5.933 -0.1190  0.1143  0.4814
  121OSM   H15A12731   5.869   0.148   5.843 -0.8869 -0.5597  0.5296
  121OSM   H15B12732   5.886   0.176   6.012  0.6337  0.4818  0.4221
  121OSM   H15C12733   5.861   0.013   5.940  1.0628 -0.6228 -0.5292
  121OSM    C1412734   6.093   0.050   5.788 -0.1914 -0.5759  0.5929
  121OSM   H14A12735   6.199   0.053   5.766 -0.4408  0.8448 -0.6203
  121OSM   H14B12736   6.052   0.124   5.721 -1.1222 -0.3847  1.3605
  121OSM   H14C12737   6.051  -0.043   5.753  1.0225 -0.2026 -2.1675
  121OSM    C1312738   6.119   0.219   5.967 -0.2247  0.4463  0.5558
  121OSM   H13A12739   6.110   0.244   6.072 -0.4512 -0.3307  0.7336
  121OSM   H13B12740   6.069   0.294   5.908  0.2430  0.3846  0.0769
  121OSM   H13C12741   6.223   0.213   5.938  0.1683 -2.2476  2.0845
  121OSM    C1212742   6.110  -0.023   6.022 -0.5294 -0.4012 -0.7259
  121OSM   H12A12743   6.112   0.009   6.125  0.4397 -1.4505 -0.3949
  121OSM   H12B12744   6.213  -0.050   6.004  0.8933  3.7708  0.1506
  121OSM    C1112745   6.015  -0.140   6.048 -0.2617 -0.1475  0.1664
  121OSM   H11A12746   6.073  -0.219   6.100 -0.2359  1.0734  2.0601
  121OSM   H11B12747   5.982  -0.193   5.955  2.2623 -0.7826 -0.4334
  121OSM      P12748   5.823  -0.212   6.195  0.5178 -0.2463  0.3413
  121OSM    O1312749   5.701  -0.162   6.256 -0.0486 -0.4952 -0.4592
  121OSM    O1412750   5.806  -0.321   6.096  0.6893 -0.0403  0.2281
  121OSM    O1112751   5.918  -0.260   6.310 -0.3933  0.2911 -0.2942
  121OSM    O1212752   5.905  -0.093   6.129 -0.4708  0.4072 -0.2026
  121OSM    C1S12753   6.000  -0.180   6.390  0.1445  0.0108  0.2859
  121OSM    H1S12754   6.008  -0.078   6.347 -1.0069 -0.3049 -0.7237
  121OSM    H1T12755   6.099  -0.228   6.402 -0.3164 -0.6748  1.5667
  121OSM     NF12756   6.012  -0.056   6.612 -0.6302  0.8054  0.1453
  121OSM    HNF12757   6.091  -0.089   6.663  0.1237 -0.5036 -1.7077
  121OSM    C2S12758   5.943  -0.162   6.535  0.4078 -0.3037 -0.4629
  121OSM    H2S12759   5.840  -0.126   6.515  0.3859 -0.7523 -1.1816
  121OSM    C3S12760   5.927  -0.300   6.602  0.7297  0.3957 -0.4376
  121OSM    H3S12761   6.030  -0.342   6.597 -0.4360 -3.0530  1.4103
  121OSM     O312762   5.854  -0.396   6.524 -0.5059  0.4499 -1.2303
  121OSM    HO312763   5.874  -0.369   6.434 -0.6492  1.3082 -1.0131
  121OSM    C4S12764   5.884  -0.290   6.747 -0.4456  1.1774 -0.5223
  121OSM    H4S12765   5.968  -0.271   6.815 -0.3007 -0.1788 -0.2836
  121OSM    C5S12766   5.758  -0.303   6.803 -0.9011  0.6137 -0.3679
  121OSM    H5S12767   5.673  -0.307   6.733 -0.9274  2.3250 -0.4837
  121OSM    C6S12768   5.710  -0.285   6.943  0.3290  0.2933 -0.6040
  121OSM    H6S12769   5.706  -0.379   7.003 -1.5583  0.9581  0.3639
  121OSM    H6T12770   5.608  -0.245   6.955  0.3652  0.1053  0.3976
  121OSM    C7S12771   5.789  -0.193   7.038  0.1671  0.3660  0.3674
  121OSM    H7S12772   5.763  -0.091   7.002 -1.4749 -0.4986 -1.0694
  121OSM    H7T12773   5.897  -0.208   7.018 -0.0107  1.0103 -1.1518
  121OSM    C8S12774   5.745  -0.223   7.177  0.1791 -0.2438 -0.6106
  121OSM    H8S12775   5.745  -0.329   7.210  2.4768  0.6082  2.7408
  121OSM    H8T12776   5.645  -0.176   7.191 -0.1117 -0.9342 -0.3391
  121OSM    C9S12777   5.827  -0.140   7.281  0.1559 -0.4769 -0.2443
  121OSM    H9S12778   5.843  -0.036   7.246  3.8302 -0.4264  1.2089
  121OSM    H9T12779   5.926  -0.190   7.275  0.7464  0.7133 -0.5740
  121OSM   C10S12780   5.786  -0.165   7.425 -0.1339  0.1137  0.2987
  121OSM   H10S12781   5.790  -0.275   7.436  0.8686  0.1788  0.6740
  121OSM   H10T12782   5.679  -0.141   7.442 -0.3682 -0.9769  0.3994
  121OSM   C11S12783   5.897  -0.118   7.519 -0.4275 -0.4264 -1.0016
  121OSM   H11S12784   5.899  -0.008   7.507  0.2643 -0.6388 -3.2643
  121OSM   H11T12785   5.999  -0.158   7.496  0.8042  0.7314  1.9068
  121OSM   C12S12786   5.864  -0.149   7.660  0.0157  0.3563 -0.1656
  121OSM   H12S12787   5.826  -0.253   7.669  0.9008  0.1520  1.6396
  121OSM   H12T12788   5.769  -0.094   7.679 -1.0654 -0.4272 -2.8476
  121OSM   C13S12789   5.975  -0.125   7.771  0.3110 -0.0807 -0.0325
  121OSM   H13S12790   6.023  -0.027   7.754  0.3048  0.2665  1.7891
  121OSM   H13T12791   6.062  -0.188   7.740  0.3987  0.6449 -1.3261
  121OSM   C14S12792   5.928  -0.142   7.918 -0.0131  0.5038 -0.0201
  121OSM   H14S12793   5.884  -0.243   7.913 -0.1064  0.5240  0.3617
  121OSM   H14T12794   5.847  -0.068   7.936 -2.5720 -1.2718 -3.2470
  121OSM   C15S12795   6.050  -0.127   8.010 -0.4149  0.2452  0.5447
  121OSM   H15S12796   6.100  -0.040   7.962  0.6998  0.6232  2.2888
  121OSM   H15T12797   6.124  -0.209   7.995  2.5677  2.5574  1.5278
  121OSM   C16S12798   6.028  -0.088   8.158  0.0500 -0.0215  0.6420
  121OSM   H16S12799   5.947  -0.012   8.168  0.4879  0.3417  1.5773
  121OSM   H16T12800   6.124  -0.045   8.194  0.6156 -0.5104 -0.2507
  121OSM   C17S12801   5.990  -0.203   8.249  0.1012  0.5805  0.3639
  121OSM   H17S12802   6.061  -0.288   8.256 -1.8306 -1.0762  0.8354
  121OSM   H17T12803   5.903  -0.250   8.199 -0.2130  0.1804  1.2543
  121OSM   C18S12804   5.964  -0.154   8.390  0.3915  0.0424 -0.1293
  121OSM   H18S12805   6.065  -0.137   8.433  0.6614  2.3425 -1.4998
  121OSM   H18T12806   5.903  -0.221   8.454  1.1841  0.7597  1.4362
  121OSM   H18U12807   5.918  -0.053   8.401 -2.8739 -1.0098 -2.5064
  121OSM    C1F12808   5.988   0.074   6.585 -0.0739  0.3116  0.0980
  121OSM     OF12809   5.901   0.106   6.508  0.1124  0.2904  0.0962
  121OSM    C2F12810   6.075   0.171   6.653 -0.1236  0.4439 -0.9463
  121OSM    H2F12811   6.152   0.205   6.580  1.8495  1.6866  1.5526
  121OSM    H2G12812   6.133   0.115   6.729 -0.8400  0.1938 -0.5698
  121OSM    C3F12813   5.999   0.286   6.723 -0.2627 -0.1122 -0.3573
  121OSM    H3F12814   5.957   0.358   6.651  0.8650  1.3780  0.4135
  121OSM    H3G12815   6.082   0.342   6.771  0.1463 -0.4888 -0.6136
  121OSM    C4F12816   5.896   0.246   6.831 -0.1591 -0.0416  0.2219
  121OSM    H4F12817   5.833   0.166   6.785 -0.4578 -0.9281  2.0835
  121OSM    H4G12818   5.833   0.334   6.854  1.7826  0.8923  2.3443
  121OSM    C5F12819   5.954   0.204   6.961 -0.1488  1.3037 -0.6816
  121OSM    H5F12820   6.061   0.176   6.951 -0.5801  0.0309 -2.1558
  121OSM    H5G12821   5.902   0.120   7.012  1.4764  0.0399 -1.0220
  121OSM    C6F12822   5.948   0.322   7.062 -0.3859  0.5056 -1.0991
  121OSM    H6F12823   5.842   0.345   7.086 -0.5853 -0.5287 -0.9309
  121OSM    H6G12824   6.010   0.405   7.020  1.2132 -0.4513 -0.7227
  121OSM    C7F12825   5.980   0.282   7.208  0.8500  0.7255  0.5714
  121OSM    H7F12826   6.071   0.220   7.193 -0.7456 -2.3283  2.3983
  121OSM    H7G12827   5.903   0.213   7.249  0.4024  0.0074 -1.3840
  121OSM    C8F12828   5.987   0.397   7.306  0.4385  0.3998  0.2281
  121OSM    H8F12829   5.893   0.453   7.289  1.2663  1.1185 -2.4749
  121OSM    H8G12830   6.073   0.463   7.280  0.8626  0.6378  2.1270
  121OSM    C9F12831   5.972   0.355   7.453 -0.4479  0.6986  0.2136
  121OSM    H9F12832   5.873   0.318   7.482 -2.2085  3.4264 -1.8188
  121OSM   C10F12833   6.070   0.352   7.541 -0.1088  0.2848  0.1878
  121OSM   H10F12834   6.053   0.312   7.642  0.9661  0.3613  0.4137
  121OSM   C11F12835   6.212   0.394   7.510 -0.0580 -0.9357 -0.1498
  121OSM   H11F12836   6.223   0.457   7.419 -0.4756  0.9344  1.0450
  121OSM   H11G12837   6.277   0.309   7.480 -0.4436 -1.2673 -0.0553
  121OSM   C12F12838   6.282   0.462   7.635  0.3563 -0.1174  0.3272
  121OSM   H12F12839   6.244   0.565   7.654 -1.4934 -0.2180 -2.2813
  121OSM   H12G12840   6.390   0.473   7.612 -0.2369  1.2290 -2.1403
  121OSM   C13F12841   6.277   0.392   7.769  0.5993  0.5226 -0.0929
  121OSM   H13F12842   6.317   0.289   7.758  0.0201  0.1273  1.3075
  121OSM   H13G12843   6.170   0.384   7.798  0.4858 -1.3339 -0.8685
  121OSM   C14F12844   6.353   0.460   7.876  0.1892 -0.7010 -0.5571
  121OSM   H14F12845   6.312   0.561   7.895 -1.3086 -1.2417 -0.7549
  121OSM   H14G12846   6.457   0.481   7.843  0.4545 -1.3086 -0.1389
  121OSM   C15F12847   6.351   0.385   8.005 -1.0399 -0.1002  0.4414
  121OSM   H15F12848   6.380   0.278   7.996 -1.9210 -0.4977  1.8877
  121OSM   H15G12849   6.244   0.388   8.034 -1.1240  1.8729  0.0532
  121OSM   C16F12850   6.432   0.447   8.116 -0.1281  0.1442 -0.2119
  121OSM   H16F12851   6.388   0.548   8.132  0.8387  1.2812 -3.7524
  121OSM   H16G12852   6.534   0.457   8.073 -0.4470  0.6431 -0.8736
  121OSM   C17F12853   6.453   0.369   8.247 -0.6645  0.2496  0.4547
  121OSM   H17F12854   6.473   0.264   8.216  1.5398  0.1822  1.8879
  121OSM   H17G12855   6.368   0.379   8.317  0.5800  1.9864  1.8177
  121OSM   C18F12856   6.585   0.424   8.309  0.5370 -0.6816  0.1284
  121OSM   H18F12857   6.572   0.527   8.348  2.3504 -0.2785 -0.2588
  121OSM   H18G12858   6.670   0.435   8.239  0.1379  0.9452 -0.1445
  121OSM   H18H12859   6.623   0.359   8.391  1.1466 -0.4550  0.0244
  122OSM      N12860   4.730   2.244   5.958 -0.4859  0.5300 -0.4356
  122OSM    C1512861   4.762   2.386   5.892 -0.0253  1.1382  0.7812
  122OSM   H15A12862   4.665   2.435   5.895 -3.1545 -4.3095  0.7729
  122OSM   H15B12863   4.784   2.371   5.788  3.1859 -0.6496  1.6064
  122OSM   H15C12864   4.848   2.435   5.935  0.9890  0.3413 -0.3027
  122OSM    C1412865   4.846   2.158   5.932 -0.0910 -0.5947  0.6928
  122OSM   H14A12866   4.886   2.167   5.832 -0.9065  1.0156  0.4876
  122OSM   H14B12867   4.829   2.054   5.956 -0.2025 -0.9406 -0.7819
  122OSM   H14C12868   4.931   2.186   5.992  0.1976  0.4302 -0.1812
  122OSM    C1312869   4.720   2.263   6.105  0.4304 -0.7372  0.3945
  122OSM   H13A12870   4.663   2.350   6.131 -2.1097 -2.8631  2.5883
  122OSM   H13B12871   4.817   2.277   6.150  0.0819 -1.4051  1.3840
  122OSM   H13C12872   4.683   2.179   6.162  3.8228 -3.1327 -0.6288
  122OSM    C1212873   4.605   2.182   5.899 -0.5944 -1.1204 -0.1505
  122OSM   H12A12874   4.615   2.179   5.791  1.6851 -2.4736  0.0125
  122OSM   H12B12875   4.523   2.244   5.930 -1.5606 -2.8357  0.8759
  122OSM    C1112876   4.554   2.046   5.950  0.3533 -0.2782 -0.4487
  122OSM   H11A12877   4.628   1.966   5.928 -0.7662 -0.9222 -2.1179
  122OSM   H11B12878   4.463   2.013   5.895  0.6875 -1.6730 -0.2052
  122OSM      P12879   4.408   2.109   6.157 -0.4030  0.8349 -0.6092
  122OSM    O1312880   4.371   2.235   6.085 -0.6536 -0.2713 -0.5737
  122OSM    O1412881   4.311   2.000   6.175 -0.6378 -0.6608  0.7028
  122OSM    O1112882   4.474   2.138   6.298  0.3307 -0.0398  0.8134
  122OSM    O1212883   4.535   2.043   6.091  0.1746 -0.2130 -0.3306
  122OSM    C1S12884   4.498   2.029   6.387 -0.3923 -0.2630 -0.4940
  122OSM    H1S12885   4.532   1.933   6.343 -1.4601 -1.7459  1.7107
  122OSM    H1T12886   4.412   2.010   6.455 -0.0349 -1.5775 -0.3748
  122OSM     NF12887   4.644   1.953   6.579 -0.7076  0.6900 -0.4610
  122OSM    HNF12888   4.616   1.962   6.674  0.2071  3.8979 -0.4067
  122OSM    C2S12889   4.623   2.064   6.485 -0.1265  0.4220  0.5638
  122OSM    H2S12890   4.708   2.063   6.414  0.7118 -1.7971  1.5316
  122OSM    C3S12891   4.606   2.205   6.547  0.2804 -0.1063 -0.2942
  122OSM    H3S12892   4.511   2.194   6.603 -0.0890 -2.0370 -1.1982
  122OSM     O312893   4.575   2.315   6.454  0.3027 -0.2759  0.5052
  122OSM    HO312894   4.559   2.283   6.365  1.3328  0.5154  0.0105
  122OSM    C4S12895   4.719   2.245   6.635  1.1606  0.5533  0.0379
  122OSM    H4S12896   4.692   2.223   6.740  0.5591 -0.3256 -0.2852
  122OSM    C5S12897   4.839   2.306   6.605  1.5730  0.4247 -0.0620
  122OSM    H5S12898   4.858   2.327   6.499  1.8880  0.7730  0.0586
  122OSM    C6S12899   4.945   2.354   6.700  0.0291  0.5507  0.0758
  122OSM    H6S12900   4.968   2.463   6.701 -1.9369  1.0216  0.3257
  122OSM    H6T12901   5.036   2.306   6.660 -0.1697 -1.4784  1.9048
  122OSM    C7S12902   4.917   2.311   6.844  0.1009  0.0399  0.0283
  122OSM    H7S12903   4.924   2.200   6.841 -3.9281 -0.3467 -0.7078
  122OSM    H7T12904   4.814   2.335   6.879 -0.2727  0.0355 -1.0358
  122OSM    C8S12905   5.022   2.356   6.951  0.0355  0.3752  0.2811
  122OSM    H8S12906   5.030   2.467   6.951 -3.2185  0.7282  0.6026
  122OSM    H8T12907   5.121   2.316   6.921 -0.2720 -0.2111  0.0320
  122OSM    C9S12908   4.995   2.286   7.086 -0.0866 -0.5827 -0.3318
  122OSM    H9S12909   5.019   2.178   7.070  0.0500 -0.6727  0.4360
  122OSM    H9T12910   4.885   2.295   7.099 -0.0660  0.3222 -0.7530
  122OSM   C10S12911   5.074   2.348   7.202  0.4178  0.7710  0.2440
  122OSM   H10S12912   5.035   2.452   7.203  0.7102  0.9341 -1.6761
  122OSM   H10T12913   5.183   2.362   7.187  0.7372 -0.7037  1.0096
  122OSM   C11S12914   5.040   2.278   7.337  0.1920  0.0707  0.5005
  122OSM   H11S12915   5.056   2.169   7.323 -1.2138 -0.1431  0.4519
  122OSM   H11T12916   4.932   2.299   7.352  0.1021  0.6418 -0.8125
  122OSM   C12S12917   5.125   2.330   7.457 -0.2720 -0.1564  0.0297
  122OSM   H12S12918   5.233   2.319   7.431 -0.3864 -0.7949 -0.1807
  122OSM   H12T12919   5.098   2.264   7.543 -0.6191  0.6680  0.5668
  122OSM   C13S12920   5.099   2.487   7.492 -0.1756  1.0615  0.3833
  122OSM   H13S12921   4.998   2.491   7.537 -2.3508 -0.8084 -3.7862
  122OSM   H13T12922   5.101   2.525   7.387 -0.0589 -2.0716 -0.8445
  122OSM   C14S12923   5.197   2.540   7.598  0.3230  0.4509 -0.2708
  122OSM   H14S12924   5.300   2.507   7.573  0.0988 -0.3447 -0.1629
  122OSM   H14T12925   5.173   2.493   7.695 -0.8800 -0.8570 -1.1575
  122OSM   C15S12926   5.180   2.692   7.635  0.9026 -0.1513 -0.3294
  122OSM   H15S12927   5.070   2.709   7.642  0.7230 -1.5042  0.4767
  122OSM   H15T12928   5.216   2.758   7.554  2.6759  0.7155  1.1018
  122OSM   C16S12929   5.248   2.735   7.768 -0.0621  0.5340 -0.0552
  122OSM   H16S12930   5.231   2.667   7.854  2.7573 -0.0696  0.1314
  122OSM   H16T12931   5.231   2.841   7.797  3.4270  1.1845  0.1080
  122OSM   C17S12932   5.404   2.723   7.764 -0.1672 -0.2223  0.0214
  122OSM   H17S12933   5.438   2.786   7.679 -0.0899 -0.6111 -0.2348
  122OSM   H17T12934   5.431   2.617   7.748  1.0259 -0.1166  1.1834
  122OSM   C18S12935   5.477   2.773   7.892 -0.5286  0.1657  0.1029
  122OSM   H18S12936   5.444   2.876   7.916 -1.7160 -0.1093 -0.2948
  122OSM   H18T12937   5.587   2.757   7.880 -0.5511  0.6229 -0.8164
  122OSM   H18U12938   5.446   2.704   7.974 -2.2846 -1.2377 -1.6512
  122OSM    C1F12939   4.706   1.833   6.543  0.0169 -0.0356 -0.4777
  122OSM     OF12940   4.750   1.822   6.432  0.2782 -0.0553 -0.2651
  122OSM    C2F12941   4.711   1.717   6.635 -0.2817 -0.2606 -0.3141
  122OSM    H2F12942   4.768   1.637   6.583  1.1336  0.3114  0.2898
  122OSM    H2G12943   4.607   1.687   6.659  0.1508 -0.7785  0.9672
  122OSM    C3F12944   4.787   1.763   6.760 -0.8602 -0.6211 -0.4242
  122OSM    H3F12945   4.804   1.667   6.813 -0.7851 -0.4978 -0.2222
  122OSM    H3G12946   4.732   1.819   6.839  0.2959 -2.0508  1.4718
  122OSM    C4F12947   4.941   1.809   6.736 -0.0509  0.5525 -0.5380
  122OSM    H4F12948   4.946   1.920   6.743 -3.2669  0.8528 -1.1519
  122OSM    H4G12949   4.974   1.783   6.633  2.6316  0.9706  0.1522
  122OSM    C5F12950   5.042   1.725   6.825  0.8918 -0.6783  0.0544
  122OSM    H5F12951   5.139   1.733   6.772  0.2772 -0.4140 -1.0773
  122OSM    H5G12952   5.013   1.619   6.840  0.9991 -1.4172 -3.8431
  122OSM    C6F12953   5.072   1.791   6.962 -0.7648  0.3382  0.3113
  122OSM    H6F12954   4.984   1.828   7.020 -1.5753  1.1477 -1.3594
  122OSM    H6G12955   5.137   1.880   6.948 -1.5014  0.9820  0.8682
  122OSM    C7F12956   5.163   1.707   7.049 -0.4424 -0.5818 -0.2109
  122OSM    H7F12957   5.260   1.700   6.995  0.4939  0.2607  1.2796
  122OSM    H7G12958   5.123   1.605   7.070  0.7007 -0.8336  0.9406
  122OSM    C8F12959   5.219   1.762   7.180  0.7964 -0.1209  0.0539
  122OSM    H8F12960   5.260   1.864   7.165  0.5304 -0.2493 -1.6898
  122OSM    H8G12961   5.303   1.699   7.217  2.7897  1.9662 -0.6624
  122OSM    C9F12962   5.102   1.769   7.280 -0.0514 -0.2817  0.6741
  122OSM    H9F12963   4.999   1.778   7.243  1.0664  0.8844 -2.4853
  122OSM   C10F12964   5.126   1.764   7.413 -0.1318  0.6416 -0.3363
  122OSM   H10F12965   5.040   1.768   7.482  0.2946  1.1143  0.1888
  122OSM   C11F12966   5.256   1.750   7.490  0.7625 -0.9659 -0.1723
  122OSM   H11F12967   5.343   1.759   7.423  1.3013  0.7570  0.6971
  122OSM   H11G12968   5.250   1.652   7.543  2.3244 -1.9216 -1.6766
  122OSM   C12F12969   5.245   1.858   7.606 -0.1086 -0.1823  0.0212
  122OSM   H12F12970   5.168   1.937   7.595 -0.6174 -0.5674  0.6657
  122OSM   H12G12971   5.341   1.912   7.599 -0.6103  0.4684 -2.8870
  122OSM   C13F12972   5.236   1.787   7.744 -0.7204 -0.2519  0.0610
  122OSM   H13F12973   5.333   1.739   7.771 -0.6320 -0.9670 -1.3773
  122OSM   H13G12974   5.160   1.708   7.725 -1.7795  1.0088 -1.2470
  122OSM   C14F12975   5.183   1.879   7.856  0.3030  0.4071  0.0873
  122OSM   H14F12976   5.086   1.927   7.829 -0.1322 -0.5840 -0.1695
  122OSM   H14G12977   5.260   1.958   7.859  1.7224 -0.9464  0.2193
  122OSM   C15F12978   5.174   1.802   7.997 -0.0766  0.3353  0.9087
  122OSM   H15F12979   5.116   1.708   7.981 -1.1754  0.8895  1.4997
  122OSM   H15G12980   5.109   1.872   8.053 -2.0113 -0.3541 -0.3443
  122OSM   C16F12981   5.323   1.767   8.049 -0.1900 -0.5470  0.2407
  122OSM   H16F12982   5.369   1.868   8.061 -2.2091  0.8704 -2.6290
  122OSM   H16G12983   5.384   1.702   7.983  0.6961  1.0633 -0.6000
  122OSM   C17F12984   5.312   1.708   8.198  0.2153  0.5532  0.9404
  122OSM   H17F12985   5.255   1.769   8.271  2.1935  3.7029  0.0419
  122OSM   H17G12986   5.417   1.710   8.235  0.4908 -1.1232  0.3309
  122OSM   C18F12987   5.263   1.567   8.208  0.2310 -0.4615  0.0895
  122OSM   H18F12988   5.283   1.530   8.311 -1.0475  0.0207  0.5361
  122OSM   H18G12989   5.309   1.506   8.127  2.6106 -0.6569  1.4955
  122OSM   H18H12990   5.156   1.580   8.180  0.7440  0.9035 -1.3495
  123OSM      N12991   3.732   1.970   6.386  0.0301 -0.4311 -0.6563
  123OSM    C1512992   3.778   1.879   6.267  0.9140 -0.1047  0.2889
  123OSM   H15A12993   3.725   1.907   6.176  1.7896  1.9648  0.3666
  123OSM   H15B12994   3.785   1.775   6.294  1.9649 -0.7550 -2.1901
  123OSM   H15C12995   3.881   1.904   6.249  0.9594  0.0175  0.7135
  123OSM    C1412996   3.595   1.922   6.420  0.2403 -0.3191  0.3154
  123OSM   H14A12997   3.517   1.961   6.356 -0.5800 -1.1535  0.7752
  123OSM   H14B12998   3.560   1.941   6.520 -3.3367 -0.7576 -0.7059
  123OSM   H14C12999   3.592   1.815   6.408  2.2046 -0.4552  0.6505
  123OSM    C1313000   3.838   1.952   6.490 -0.5581  0.4100 -0.4261
  123OSM   H13A13001   3.824   1.866   6.553  1.2781 -1.2157 -2.1001
  123OSM   H13B13002   3.837   2.038   6.555 -4.1824 -0.7380  1.2592
  123OSM   H13C13003   3.936   1.953   6.445  0.6795  0.5266  2.1356
  123OSM    C1213004   3.736   2.119   6.339  0.8191  0.5172  0.3121
  123OSM   H12A13005   3.681   2.125   6.247  0.0711  2.1076  0.8123
  123OSM   H12B13006   3.834   2.148   6.305 -0.1608  0.1048 -3.1968
  123OSM    C1113007   3.679   2.226   6.445  0.6737 -0.1078 -0.2214
  123OSM   H11A13008   3.731   2.214   6.543 -0.7537 -1.0311  0.4570
  123OSM   H11B13009   3.578   2.185   6.466 -0.0507  1.6989 -0.0120
  123OSM      P13010   3.764   2.469   6.448 -0.0637 -0.3015  0.2944
  123OSM    O1313011   3.909   2.442   6.413  0.5482  0.3665  0.0563
  123OSM    O1413012   3.713   2.596   6.393 -0.3176  0.1000  0.6671
  123OSM    O1113013   3.750   2.459   6.603  0.3783 -0.3474  0.0151
  123OSM    O1213014   3.676   2.350   6.391  0.2995 -1.5626  0.1850
  123OSM    C1S13015   3.623   2.458   6.666  0.6425  0.1226  0.2768
  123OSM    H1S13016   3.567   2.371   6.626  1.7758 -1.2005  1.4621
  123OSM    H1T13017   3.561   2.547   6.640 -1.0727 -0.3026  2.5902
  123OSM     NF13018   3.496   2.443   6.883  0.4816  0.3255 -0.2879
  123OSM    HNF13019   3.465   2.526   6.928 -0.5280  0.4462 -1.1639
  123OSM    C2S13020   3.632   2.460   6.822  0.4105  0.0143 -0.5377
  123OSM    H2S13021   3.696   2.379   6.862  1.5561  1.8941  1.6995
  123OSM    C3S13022   3.699   2.595   6.863 -0.6367 -0.5909  1.0262
  123OSM    H3S13023   3.620   2.671   6.843  0.3144 -0.2025 -1.5972
  123OSM     O313024   3.807   2.636   6.777  0.2784  0.1597  0.7273
  123OSM    HO313025   3.787   2.586   6.697  2.8699  1.3949 -0.8327
  123OSM    C4S13026   3.734   2.587   7.011  0.1669  0.7840  0.4046
  123OSM    H4S13027   3.646   2.604   7.074 -0.4729 -0.3008 -0.1747
  123OSM    C5S13028   3.854   2.555   7.064  0.8963  0.5537 -0.3512
  123OSM    H5S13029   3.938   2.535   6.996 -0.5643 -0.0727 -2.0570
  123OSM    C6S13030   3.889   2.538   7.209  0.1139  0.2806 -0.3505
  123OSM    H6S13031   3.945   2.628   7.242  0.2132 -0.3001  1.1020
  123OSM    H6T13032   3.959   2.453   7.216 -0.5769 -0.2389  0.4046
  123OSM    C7S13033   3.780   2.513   7.321 -0.4001 -0.1874 -0.1112
  123OSM    H7S13034   3.713   2.432   7.285 -2.1980  1.6545 -1.1242
  123OSM    H7T13035   3.708   2.598   7.323 -1.9279 -1.3073 -2.5710
  123OSM    C8S13036   3.845   2.477   7.458  0.0161  0.1320 -0.8900
  123OSM    H8S13037   3.919   2.553   7.489 -0.5608 -0.7826  3.2740
  123OSM    H8T13038   3.884   2.373   7.447  0.6181  0.4663 -2.0712
  123OSM    C9S13039   3.747   2.488   7.574  0.2219  0.4956  0.2223
  123OSM    H9S13040   3.681   2.399   7.586 -0.6432  1.3493  2.3838
  123OSM    H9T13041   3.687   2.572   7.531 -1.8571 -0.5894  0.8418
  123OSM   C10S13042   3.808   2.514   7.711 -0.6832 -0.3468 -0.0295
  123OSM   H10S13043   3.875   2.603   7.715 -2.3827  0.9470  2.7852
  123OSM   H10T13044   3.872   2.426   7.737 -0.8092 -0.5155 -0.2836
  123OSM   C11S13045   3.699   2.529   7.817 -0.4494  0.2503 -0.0505
  123OSM   H11S13046   3.617   2.456   7.808 -0.2409 -0.0094  0.1495
  123OSM   H11T13047   3.642   2.622   7.795 -1.6206 -0.7775 -1.5849
  123OSM   C12S13048   3.753   2.539   7.964 -0.7505  0.2525 -0.5396
  123OSM   H12S13049   3.840   2.608   7.959  0.1182 -0.6057  1.6061
  123OSM   H12T13050   3.792   2.443   8.003 -1.4597  0.4734  0.7869
  123OSM   C13S13051   3.649   2.582   8.064  0.6742 -0.3181  0.5189
  123OSM   H13S13052   3.559   2.520   8.045  1.7305 -1.6426 -0.3387
  123OSM   H13T13053   3.623   2.688   8.047 -0.3031 -0.5665  0.4269
  123OSM   C14S13054   3.694   2.569   8.207  0.1805  0.1692  0.5028
  123OSM   H14S13055   3.615   2.613   8.272 -0.2048  1.0179 -0.4974
  123OSM   H14T13056   3.775   2.637   8.240  0.1397  0.1646  0.6140
  123OSM   C15S13057   3.707   2.422   8.250 -0.1332 -0.3477  0.2427
  123OSM   H15S13058   3.814   2.399   8.269 -0.1516 -0.3537  0.3374
  123OSM   H15T13059   3.676   2.364   8.161 -1.8583 -1.1506  1.3111
  123OSM   C16S13060   3.629   2.374   8.376  0.2916  0.2670 -0.4081
  123OSM   H16S13061   3.525   2.410   8.390  0.7537  0.3296  5.1560
  123OSM   H16T13062   3.676   2.430   8.460 -2.8701 -0.5327  2.0612
  123OSM   C17S13063   3.620   2.219   8.386  0.0578 -0.0554  0.2249
  123OSM   H17S13064   3.702   2.161   8.338 -0.7991 -1.1229  0.0161
  123OSM   H17T13065   3.524   2.189   8.338  0.4703 -0.6886 -0.2244
  123OSM   C18S13066   3.604   2.182   8.529 -0.1807 -0.1354 -0.1789
  123OSM   H18S13067   3.706   2.207   8.566 -0.2769  1.2284 -0.7639
  123OSM   H18T13068   3.577   2.077   8.551  3.5159 -1.0761  0.6742
  123OSM   H18U13069   3.534   2.250   8.582 -0.8272 -1.2560  0.4459
  123OSM    C1F13070   3.420   2.336   6.858 -0.2849 -0.0843  0.4450
  123OSM     OF13071   3.483   2.232   6.837 -0.0213  0.4861 -0.5990
  123OSM    C2F13072   3.270   2.350   6.852  0.1411 -0.5014  0.2411
  123OSM    H2F13073   3.240   2.334   6.747  0.5125  0.2403  0.0173
  123OSM    H2G13074   3.234   2.454   6.871 -2.1214 -0.7960 -1.9555
  123OSM    C3F13075   3.192   2.251   6.944  0.7892 -0.1057 -0.5075
  123OSM    H3F13076   3.226   2.146   6.930 -0.4120 -0.7361  1.0040
  123OSM    H3G13077   3.083   2.256   6.925  0.7287 -1.1237 -0.4886
  123OSM    C4F13078   3.193   2.282   7.093  0.5856 -0.3173  0.0783
  123OSM    H4F13079   3.177   2.392   7.106 -0.2134 -0.5802  1.5824
  123OSM    H4G13080   3.294   2.250   7.123  0.0989 -3.3993 -1.2263
  123OSM    C5F13081   3.103   2.197   7.184  0.5695 -0.5693 -0.1945
  123OSM    H5F13082   3.136   2.092   7.173 -1.1930 -1.3343  1.3716
  123OSM    H5G13083   3.001   2.205   7.142  0.1508 -0.0957  0.8521
  123OSM    C6F13084   3.110   2.245   7.331  0.7312  0.3496 -0.4616
  123OSM    H6F13085   3.045   2.180   7.394  0.8590 -1.3147 -1.9750
  123OSM    H6G13086   3.054   2.341   7.340  1.7987  0.8602  1.2016
  123OSM    C7F13087   3.252   2.247   7.390 -0.3214  0.0821 -0.1798
  123OSM    H7F13088   3.325   2.307   7.332  0.4495 -2.5284 -2.1368
  123OSM    H7G13089   3.287   2.141   7.388 -0.4248 -0.0112  1.5955
  123OSM    C8F13090   3.250   2.289   7.542  0.3324  0.2719 -0.2745
  123OSM    H8F13091   3.167   2.230   7.587  2.0333 -1.0450  1.2387
  123OSM    H8G13092   3.210   2.392   7.532 -1.4577 -0.3173  0.4231
  123OSM    C9F13093   3.386   2.256   7.596 -0.1821 -0.0247  0.4248
  123OSM    H9F13094   3.464   2.279   7.522 -1.1388 -0.7299 -0.8373
  123OSM   C10F13095   3.422   2.224   7.721  0.3000  0.0075 -0.3404
  123OSM   H10F13096   3.530   2.216   7.741  0.5509  3.2927  0.0786
  123OSM   C11F13097   3.327   2.187   7.841 -0.0190 -0.0239  0.1847
  123OSM   H11F13098   3.316   2.076   7.833 -1.1322  0.0513  0.5648
  123OSM   H11G13099   3.229   2.234   7.819 -0.2398  0.7056  2.4604
  123OSM   C12F13100   3.384   2.227   7.975  0.5318 -0.1185  0.0452
  123OSM   H12F13101   3.404   2.335   7.991 -0.6824  0.0647  0.4060
  123OSM   H12G13102   3.485   2.181   7.986  1.6448  2.3460  0.8913
  123OSM   C13F13103   3.285   2.174   8.087  0.3534  0.0504 -1.4669
  123OSM   H13F13104   3.334   2.189   8.186 -4.6834  0.7022  1.2366
  123OSM   H13G13105   3.266   2.066   8.069 -1.1089  0.0496 -0.1965
  123OSM   C14F13106   3.148   2.249   8.074 -0.0741  0.2207 -0.0815
  123OSM   H14F13107   3.079   2.193   8.008 -1.4372  1.1078  0.5605
  123OSM   H14G13108   3.174   2.340   8.015 -1.3281 -0.5000 -1.8167
  123OSM   C15F13109   3.083   2.288   8.207  0.1847 -0.9441  0.3058
  123OSM   H15F13110   3.143   2.366   8.258 -1.1345 -0.7048  1.5660
  123OSM   H15G13111   3.069   2.206   8.280  0.6945  0.6968  2.3350
  123OSM   C16F13112   2.941   2.342   8.183  0.4564 -0.4208 -0.6266
  123OSM   H16F13113   2.883   2.264   8.129  1.1386 -0.4235 -1.3603
  123OSM   H16G13114   2.950   2.440   8.132 -1.8269  0.9381  1.3571
  123OSM   C17F13115   2.867   2.371   8.311  0.2643  0.6052  0.2196
  123OSM   H17F13116   2.922   2.439   8.380  1.2689  0.1433 -0.1088
  123OSM   H17G13117   2.859   2.279   8.373 -0.0030  0.0663 -0.6129
  123OSM   C18F13118   2.727   2.429   8.284 -0.4708  0.2907 -0.3576
  123OSM   H18F13119   2.729   2.530   8.237 -1.9393  0.3564 -0.3386
  123OSM   H18G13120   2.663   2.428   8.375 -0.2637 -0.9978 -0.2010
  123OSM   H18H13121   2.681   2.357   8.213 -3.6141 -1.8365  3.4161
  124OSM      N13122   2.255   6.347   6.037  0.4244  0.6067  0.1143
  124OSM    C1513123   2.197   6.286   5.910  0.0978  0.6181  0.3777
  124OSM   H15A13124   2.094   6.255   5.919  0.5587 -0.6495  1.6512
  124OSM   H15B13125   2.256   6.204   5.872  0.0113  1.8425 -2.6842
  124OSM   H15C13126   2.205   6.357   5.829 -0.0803 -1.2898 -1.3788
  124OSM    C1413127   2.182   6.467   6.072 -0.0254  0.1764  0.5388
  124OSM   H14A13128   2.250   6.530   6.128 -0.1254  2.1473 -1.4230
  124OSM   H14B13129   2.092   6.445   6.127 -1.2159  0.6530 -1.1703
  124OSM   H14C13130   2.151   6.530   5.991  0.2371  0.8453  0.9463
  124OSM    C1313131   2.243   6.248   6.141  0.2793 -0.1299  0.0946
  124OSM   H13A13132   2.304   6.285   6.223 -0.3027  1.4058 -0.1432
  124OSM   H13B13133   2.278   6.152   6.107  1.5860 -0.9467  3.3027
  124OSM   H13C13134   2.141   6.235   6.173 -0.0972  0.8707 -0.6580
  124OSM    C1213135   2.401   6.386   6.021 -0.3038  0.4343 -0.6542
  124OSM   H12A13136   2.420   6.464   5.949  1.6281 -0.7581 -1.5238
  124OSM   H12B13137   2.462   6.304   5.984  0.7001  1.4133 -1.2169
  124OSM    C1113138   2.481   6.438   6.150  0.0679 -0.0883 -0.3700
  124OSM   H11A13139   2.591   6.446   6.144  0.3383 -0.3071  2.8024
  124OSM   H11B13140   2.468   6.362   6.230  1.2924 -0.6142 -0.6564
  124OSM      P13141   2.483   6.688   6.120  0.1774  0.0397  0.4330
  124OSM    O1313142   2.591   6.648   6.028 -0.5865  0.7171 -0.1361
  124OSM    O1413143   2.369   6.763   6.062  0.9114  0.8535 -0.4726
  124OSM    O1113144   2.542   6.774   6.232 -0.4999 -0.4801  0.5583
  124OSM    O1213145   2.430   6.564   6.193  0.6136  0.0574 -0.1892
  124OSM    C1S13146   2.624   6.719   6.335 -0.3587  0.3683 -0.1169
  124OSM    H1S13147   2.725   6.698   6.294 -1.4097 -2.7164 -1.3877
  124OSM    H1T13148   2.581   6.628   6.383  0.7164 -0.4334 -0.6465
  124OSM     NF13149   2.748   6.737   6.545 -0.0506  0.0069 -0.0026
  124OSM    HNF13150   2.699   6.692   6.620  0.7402  1.1500  1.2557
  124OSM    C2S13151   2.665   6.812   6.452 -0.4593  0.5293 -0.1762
  124OSM    H2S13152   2.732   6.892   6.414  0.4004 -0.0360  0.1240
  124OSM    C3S13153   2.539   6.883   6.521 -0.2163 -0.5414 -0.4790
  124OSM    H3S13154   2.472   6.809   6.570  0.1502  1.0743  2.7007
  124OSM     O313155   2.454   6.943   6.423 -0.2097 -0.2309 -0.3089
  124OSM    HO313156   2.467   6.891   6.343 -0.9428  0.5106 -0.9261
  124OSM    C4S13157   2.581   6.981   6.631  0.3910 -0.1633 -0.1000
  124OSM    H4S13158   2.673   7.036   6.609 -0.6760  1.6142 -0.3666
  124OSM    C5S13159   2.530   6.997   6.753  0.3103  0.6269  0.6290
  124OSM    H5S13160   2.447   6.927   6.772  1.2959 -0.1547  2.2891
  124OSM    C6S13161   2.566   7.096   6.863  0.6200  0.4311  0.4593
  124OSM    H6S13162   2.482   7.165   6.883 -1.0546 -0.5924 -2.4616
  124OSM    H6T13163   2.654   7.157   6.831  0.0330 -0.0221 -2.2296
  124OSM    C7S13164   2.597   7.032   7.004  0.1830 -0.3219  0.7514
  124OSM    H7S13165   2.685   6.966   6.988 -0.4023 -0.7800 -0.7851
  124OSM    H7T13166   2.510   6.975   7.044 -0.1493 -0.5102 -0.2119
  124OSM    C8S13167   2.626   7.142   7.102 -0.6882 -0.1950 -0.3778
  124OSM    H8S13168   2.538   7.199   7.139 -1.6126 -1.2929 -0.7902
  124OSM    H8T13169   2.686   7.219   7.050 -0.3693 -1.0460 -1.3090
  124OSM    C9S13170   2.702   7.098   7.230 -0.9264 -0.1066  0.3928
  124OSM    H9S13171   2.742   7.187   7.284 -0.8854 -0.0710  0.3036
  124OSM    H9T13172   2.794   7.039   7.210 -0.1742  1.7807 -2.1990
  124OSM   C10S13173   2.618   7.033   7.335  0.3703  0.2128  0.3459
  124OSM   H10S13174   2.595   6.926   7.313  0.3924  0.2436  0.1725
  124OSM   H10T13175   2.520   7.082   7.321 -0.1742 -0.9818 -0.1812
  124OSM   C11S13176   2.669   7.048   7.477 -0.0944 -0.1652  0.6621
  124OSM   H11S13177   2.671   7.157   7.498  1.4529  0.4977 -2.3131
  124OSM   H11T13178   2.771   7.019   7.509  0.3604  0.2615 -0.3565
  124OSM   C12S13179   2.568   6.988   7.570  0.0220  0.1809 -0.6710
  124OSM   H12S13180   2.531   6.893   7.526 -0.7947  0.7754 -1.3202
  124OSM   H12T13181   2.488   7.065   7.580 -0.2468 -0.0893 -0.7393
  124OSM   C13S13182   2.622   6.963   7.709 -0.2865 -1.1476  0.4047
  124OSM   H13S13183   2.671   7.058   7.736 -0.2672 -0.9215 -0.3858
  124OSM   H13T13184   2.699   6.882   7.715  1.0659 -0.1092 -1.5617
  124OSM   C14S13185   2.497   6.942   7.800 -0.1055 -0.0093  0.1066
  124OSM   H14S13186   2.443   6.850   7.769  0.1174 -0.1489  0.1310
  124OSM   H14T13187   2.429   7.030   7.794  0.6866  0.5629 -0.8296
  124OSM   C15S13188   2.539   6.902   7.947  0.0373  0.1937 -0.0710
  124OSM   H15S13189   2.610   6.980   7.983  0.6530  1.2379 -3.2151
  124OSM   H15T13190   2.582   6.800   7.936 -1.3263 -0.6904  2.0793
  124OSM   C16S13191   2.430   6.890   8.051 -0.2892  0.3026 -0.6472
  124OSM   H16S13192   2.340   6.837   8.014 -1.3188  2.1211 -0.9000
  124OSM   H16T13193   2.399   6.995   8.072 -0.6647 -0.0747  0.7825
  124OSM   C17S13194   2.470   6.828   8.186 -0.8763 -0.0911 -0.5024
  124OSM   H17S13195   2.485   6.720   8.170 -1.1978 -0.0313 -1.2406
  124OSM   H17T13196   2.382   6.842   8.253  0.1244 -2.2609  1.3963
  124OSM   C18S13197   2.591   6.889   8.249 -0.5569 -0.4729 -0.5485
  124OSM   H18S13198   2.570   6.992   8.285  0.6188 -0.1140 -0.8493
  124OSM   H18T13199   2.678   6.905   8.181  0.0689  0.0905  0.3531
  124OSM   H18U13200   2.632   6.827   8.332 -1.7486 -0.3738  0.1332
  124OSM    C1F13201   2.877   6.719   6.522  0.7679  0.4305 -0.2615
  124OSM     OF13202   2.939   6.770   6.429  0.3162  0.0567 -0.1661
  124OSM    C2F13203   2.944   6.624   6.606 -0.0807  0.1795  0.1770
  124OSM    H2F13204   2.944   6.522   6.560 -0.9644 -0.4581  1.5118
  124OSM    H2G13205   2.887   6.622   6.701  0.3466 -0.1157  0.4328
  124OSM    C3F13206   3.084   6.673   6.659  0.5153  0.0473 -0.0525
  124OSM    H3F13207   3.151   6.646   6.575  0.5240  0.2930 -0.1226
  124OSM    H3G13208   3.103   6.603   6.744  0.0570  0.3705  0.3215
  124OSM    C4F13209   3.099   6.819   6.699 -1.1708 -0.6529 -0.2570
  124OSM    H4F13210   3.101   6.870   6.601  0.7889 -1.2890 -0.5905
  124OSM    H4G13211   3.195   6.845   6.749 -0.9740  1.7548 -1.7578
  124OSM    C5F13212   2.986   6.878   6.791 -0.7985 -0.2355  0.3613
  124OSM    H5F13213   2.911   6.798   6.813 -1.5757  0.2014 -0.5966
  124OSM    H5G13214   2.935   6.962   6.740 -1.5659 -0.8092  0.1506
  124OSM    C6F13215   3.035   6.922   6.935  0.4799 -0.2239  0.5999
  124OSM    H6F13216   2.968   6.997   6.981  1.4970  0.3293  1.2360
  124OSM    H6G13217   3.134   6.972   6.925  0.8000 -0.9063  0.2968
  124OSM    C7F13218   3.049   6.805   7.030 -0.1399  0.6393 -0.4402
  124OSM    H7F13219   3.095   6.719   6.977 -0.0278 -0.9412  2.0283
  124OSM    H7G13220   2.949   6.775   7.070  0.8927 -3.0923 -0.2425
  124OSM    C8F13221   3.141   6.831   7.158  0.0851  0.5849  0.3654
  124OSM    H8F13222   3.238   6.869   7.120 -1.4422  2.2005 -2.2558
  124OSM    H8G13223   3.136   6.731   7.204  0.6538  0.5498  0.3530
  124OSM    C9F13224   3.093   6.934   7.253  0.4834 -0.4476  0.2610
  124OSM    H9F13225   3.115   7.037   7.219  0.4554 -0.4131  0.3489
  124OSM   C10F13226   3.031   6.911   7.366 -0.9848 -1.0555 -0.5220
  124OSM   H10F13227   2.989   6.998   7.420  0.2622  1.0283 -2.7224
  124OSM   C11F13228   2.987   6.779   7.426  0.5475 -0.1243 -0.3848
  124OSM   H11F13229   3.028   6.696   7.364 -0.2484  0.4081 -1.6578
  124OSM   H11G13230   2.877   6.769   7.433  0.6164  0.1474  2.0354
  124OSM   C12F13231   3.055   6.755   7.566 -0.4240 -0.1411 -0.0853
  124OSM   H12F13232   3.147   6.817   7.564 -1.1986  1.2600 -5.0846
  124OSM   H12G13233   3.092   6.650   7.569  0.9015  0.3079  0.6754
  124OSM   C13F13234   2.967   6.790   7.688 -0.3242 -0.8160 -0.7776
  124OSM   H13F13235   2.877   6.725   7.678 -0.1401 -1.1717 -0.1898
  124OSM   H13G13236   2.926   6.893   7.686 -1.4414 -1.1900  0.6037
  124OSM   C14F13237   3.023   6.753   7.832  0.2946 -0.1050  1.1098
  124OSM   H14F13238   3.115   6.813   7.851 -0.0957 -0.3959  4.6246
  124OSM   H14G13239   3.045   6.644   7.827  0.4278 -0.0365 -0.2553
  124OSM   C15F13240   2.924   6.788   7.946 -1.0074 -0.1982 -0.3148
  124OSM   H15F13241   2.939   6.715   8.029  0.1113  0.5307  0.1450
  124OSM   H15G13242   2.819   6.777   7.910 -0.0290 -1.9399 -2.9534
  124OSM   C16F13243   2.936   6.931   8.000  0.3990  0.5012  0.0381
  124OSM   H16F13244   2.837   6.941   8.051 -0.3437 -1.9194 -0.7812
  124OSM   H16G13245   2.940   7.006   7.918 -1.9754 -1.0215 -1.6240
  124OSM   C17F13246   3.050   6.947   8.100  0.4508  0.8146  0.0162
  124OSM   H17F13247   3.148   6.949   8.048  1.0091  0.1886  1.0049
  124OSM   H17G13248   3.052   6.855   8.164 -2.1672  1.8752  1.7892
  124OSM   C18F13249   3.042   7.074   8.186 -0.3109  0.4842  1.0074
  124OSM   H18F13250   3.111   7.081   8.273 -0.4438 -1.5607  1.3328
  124OSM   H18G13251   2.938   7.089   8.221 -0.9863 -1.0153 -0.2355
  124OSM   H18H13252   3.053   7.162   8.119  0.5631  0.9454  1.7288
  125OSM      N13253   6.024   6.189   6.298  0.2088 -0.1969  0.1282
  125OSM    C1513254   6.077   6.127   6.167  0.5278 -0.2068  0.5287
  125OSM   H15A13255   6.039   6.184   6.083 -0.5786 -0.8436  0.5732
  125OSM   H15B13256   6.034   6.030   6.148 -1.7596  0.4652  1.8826
  125OSM   H15C13257   6.184   6.115   6.169  0.6633  0.8268 -0.0234
  125OSM    C1413258   6.075   6.104   6.409 -0.0906  0.4146 -1.2942
  125OSM   H14A13259   6.182   6.097   6.425 -0.2141  0.6387 -0.2820
  125OSM   H14B13260   6.032   6.005   6.401 -0.3593  0.3012  0.8448
  125OSM   H14C13261   6.025   6.123   6.503  2.4172 -1.8527  0.6898
  125OSM    C1313262   6.089   6.322   6.311  0.6028 -0.0832  0.3556
  125OSM   H13A13263   6.195   6.309   6.297  0.5276  0.6130 -1.1620
  125OSM   H13B13264   6.065   6.365   6.407  0.1565 -0.6943  0.5265
  125OSM   H13C13265   6.070   6.404   6.243 -0.3732  0.6020  1.4076
  125OSM    C1213266   5.878   6.194   6.301 -0.0267  0.0791  0.0114
  125OSM   H12A13267   5.838   6.239   6.211 -2.3048  0.6423  1.2305
  125OSM   H12B13268   5.846   6.251   6.387  3.2975 -2.1498  3.0206
  125OSM    C1113269   5.793   6.061   6.315  0.0382  0.6230  0.3504
  125OSM   H11A13270   5.687   6.092   6.302  0.3951  1.7163 -0.0607
  125OSM   H11B13271   5.796   6.019   6.418  1.9464  1.9151  0.8764
  125OSM      P13272   5.746   5.839   6.188  0.2184  0.0121 -0.1126
  125OSM    O1313273   5.611   5.849   6.253 -0.4072 -0.3974 -0.5794
  125OSM    O1413274   5.756   5.802   6.050 -0.1547 -0.6174  0.2791
  125OSM    O1113275   5.821   5.733   6.276 -0.2349  0.1731 -0.2594
  125OSM    O1213276   5.831   5.969   6.209  0.1877 -0.0507 -0.4276
  125OSM    C1S13277   5.938   5.764   6.358  0.0761 -0.2131 -0.6411
  125OSM    H1S13278   5.930   5.861   6.411 -2.5888 -0.0700 -1.1908
  125OSM    H1T13279   6.025   5.780   6.290 -1.1965  1.2835 -2.0176
  125OSM     NF13280   6.103   5.707   6.523  0.2188  0.7535  0.3350
  125OSM    HNF13281   6.182   5.657   6.487 -0.1448 -0.7257  1.4697
  125OSM    C2S13282   5.978   5.662   6.463 -0.5117  0.6348  0.1053
  125OSM    H2S13283   5.903   5.664   6.545 -0.0696 -1.4122  0.6132
  125OSM    C3S13284   5.982   5.514   6.396  0.5846  0.0799  0.3289
  125OSM    H3S13285   6.065   5.509   6.321 -0.6669  0.5519 -1.1449
  125OSM     O313286   5.871   5.488   6.311  0.2809  0.3604 -0.2786
  125OSM    HO313287   5.833   5.575   6.297 -0.8511  0.0837  0.8239
  125OSM    C4S13288   5.993   5.418   6.505  0.5978  0.5614 -0.4933
  125OSM    H4S13289   6.098   5.398   6.530  0.8104  0.3815 -1.4790
  125OSM    C5S13290   5.896   5.343   6.564  0.3054 -0.0063  0.1253
  125OSM    H5S13291   5.792   5.355   6.530 -0.4929 -2.3472  1.5772
  125OSM    C6S13292   5.914   5.235   6.675 -0.7910  0.0601  0.7717
  125OSM    H6S13293   5.906   5.130   6.639 -0.1766  0.1758  0.2860
  125OSM    H6T13294   5.829   5.245   6.746 -1.3328 -0.2367  0.1808
  125OSM    C7S13295   6.043   5.254   6.763  0.9191  0.2570  0.3360
  125OSM    H7S13296   6.046   5.362   6.790  1.2451 -0.2777  2.6595
  125OSM    H7T13297   6.135   5.228   6.707  1.2329  3.2029 -0.6827
  125OSM    C8S13298   6.037   5.173   6.892  0.1072  0.6134 -0.5291
  125OSM    H8S13299   6.042   5.064   6.870  0.9257  0.5344  0.0141
  125OSM    H8T13300   5.949   5.188   6.957  0.9847  0.8378  0.6246
  125OSM    C9S13301   6.171   5.189   6.973  0.1409  0.0909  0.3676
  125OSM    H9S13302   6.180   5.297   6.995  0.8528 -0.1675  1.4419
  125OSM    H9T13303   6.248   5.155   6.901 -0.0401  1.9365 -0.7402
  125OSM   C10S13304   6.173   5.107   7.097  0.1057 -0.3974  0.2437
  125OSM   H10S13305   6.268   5.120   7.153 -0.5990  2.0155  0.9699
  125OSM   H10T13306   6.176   5.006   7.051  1.8824 -0.5541  0.6224
  125OSM   C11S13307   6.055   5.121   7.193 -0.1908 -1.6740 -0.1708
  125OSM   H11S13308   5.972   5.072   7.137 -0.8836  1.3205 -1.9991
  125OSM   H11T13309   6.029   5.227   7.212  1.4206 -1.3508  0.3830
  125OSM   C12S13310   6.066   5.052   7.329  0.0336 -0.2543  0.5524
  125OSM   H12S13311   6.163   5.075   7.379  0.0673 -1.4744  1.0975
  125OSM   H12T13312   6.063   4.942   7.310  0.7973  0.2118 -2.7721
  125OSM   C13S13313   5.957   5.095   7.427 -0.3828  0.2163  0.1880
  125OSM   H13S13314   5.858   5.080   7.379 -0.2039 -1.3555  0.2601
  125OSM   H13T13315   5.973   5.203   7.446 -0.0471  0.1091  0.5325
  125OSM   C14S13316   5.969   5.026   7.566 -0.2837  0.7299 -0.2641
  125OSM   H14S13317   5.950   4.918   7.547  0.6645  0.2038  1.5884
  125OSM   H14T13318   5.881   5.062   7.624 -0.8581 -1.4866  0.3422
  125OSM   C15S13319   6.107   5.052   7.627  0.0951  0.1684 -0.1468
  125OSM   H15S13320   6.127   5.161   7.612 -1.8608  0.9250  2.0959
  125OSM   H15T13321   6.185   4.982   7.589 -1.6884 -1.7568 -0.4074
  125OSM   C16S13322   6.099   5.039   7.780 -0.3422 -0.3506 -0.7631
  125OSM   H16S13323   6.003   5.088   7.808  0.3207  0.2268  0.6316
  125OSM   H16T13324   6.171   5.105   7.834 -2.1003  1.2738 -0.2823
  125OSM   C17S13325   6.123   4.894   7.841  0.1042 -0.5109 -0.7094
  125OSM   H17S13326   6.221   4.855   7.807  1.3538  1.2051  0.7735
  125OSM   H17T13327   6.031   4.845   7.803 -3.6624  2.7131  3.2803
  125OSM   C18S13328   6.113   4.905   7.997 -0.3163 -0.0711  0.2485
  125OSM   H18S13329   6.169   4.993   8.037 -0.4126  0.1872 -0.1769
  125OSM   H18T13330   6.136   4.812   8.053 -1.0143  1.2820  3.0038
  125OSM   H18U13331   6.009   4.934   8.020 -0.1067  0.2472  0.8273
  125OSM    C1F13332   6.127   5.797   6.618  0.4595  0.2255  0.3140
  125OSM     OF13333   6.032   5.861   6.666  0.5538  1.2470 -0.4883
  125OSM    C2F13334   6.275   5.813   6.658 -0.1446 -0.5170  0.7937
  125OSM    H2F13335   6.298   5.922   6.650  0.9199 -0.7733  0.1324
  125OSM    H2G13336   6.340   5.751   6.593 -0.5933 -1.7398  1.4883
  125OSM    C3F13337   6.287   5.788   6.807 -0.6913  0.6979 -0.8199
  125OSM    H3F13338   6.220   5.850   6.871  0.5405  0.3505  0.8962
  125OSM    H3G13339   6.392   5.812   6.834  0.5424 -5.0979  1.0436
  125OSM    C4F13340   6.260   5.640   6.846  0.6273 -0.0730 -0.0072
  125OSM    H4F13341   6.300   5.569   6.771 -0.8684  0.5136 -1.4299
  125OSM    H4G13342   6.149   5.634   6.842  0.4096 -0.7261  3.7853
  125OSM    C5F13343   6.321   5.603   6.986  0.0219  0.1459  0.0933
  125OSM    H5F13344   6.428   5.631   6.979 -0.1533  0.5776 -0.9975
  125OSM    H5G13345   6.295   5.495   6.997 -1.1258  0.4328  0.2917
  125OSM    C6F13346   6.274   5.680   7.104  0.0167  0.2275  0.0339
  125OSM    H6F13347   6.173   5.651   7.139  0.2398 -3.2638 -1.8468
  125OSM    H6G13348   6.274   5.787   7.075  0.1381  0.3947  0.6241
  125OSM    C7F13349   6.363   5.663   7.222  0.2634  0.8054 -0.5008
  125OSM    H7F13350   6.318   5.726   7.302 -2.3912 -0.6937 -0.7019
  125OSM    H7G13351   6.468   5.698   7.211  0.5360  1.2207  2.5698
  125OSM    C8F13352   6.385   5.511   7.268  0.0729 -0.0825  0.5214
  125OSM    H8F13353   6.452   5.511   7.356  0.0346 -0.4201  0.5514
  125OSM    H8G13354   6.436   5.458   7.184  0.1887  1.0370 -0.1379
  125OSM    C9F13355   6.254   5.442   7.294  0.7346  0.1877 -0.5073
  125OSM    H9F13356   6.223   5.356   7.232 -0.0589 -1.1937  1.6640
  125OSM   C10F13357   6.172   5.453   7.405 -0.0271  1.0986 -0.1615
  125OSM   H10F13358   6.100   5.371   7.407 -0.9847  1.8287 -1.9602
  125OSM   C11F13359   6.199   5.534   7.528 -0.4838  0.6678 -0.3880
  125OSM   H11F13360   6.188   5.642   7.508  1.5783  0.6246 -2.1109
  125OSM   H11G13361   6.299   5.502   7.563  0.6842  1.5386 -2.7369
  125OSM   C12F13362   6.105   5.501   7.647  0.1617 -0.6562 -0.2975
  125OSM   H12F13363   6.128   5.578   7.723 -0.8059  0.1408 -0.7827
  125OSM   H12G13364   6.129   5.399   7.683 -1.5515 -1.0262 -0.1252
  125OSM   C13F13365   5.956   5.524   7.610  0.0331 -0.2394 -0.4919
  125OSM   H13F13366   5.924   5.444   7.540  0.0640 -0.0616 -0.7109
  125OSM   H13G13367   5.945   5.621   7.556 -1.6113  1.2525  2.2674
  125OSM   C14F13368   5.872   5.521   7.744 -0.5004  0.0114 -0.8252
  125OSM   H14F13369   5.769   5.562   7.734 -1.6536 -1.5389  2.9971
  125OSM   H14G13370   5.926   5.584   7.816  2.1648 -2.8194 -0.1456
  125OSM   C15F13371   5.867   5.377   7.800  0.1071 -0.5395 -0.1992
  125OSM   H15F13372   5.967   5.329   7.787  0.3798 -0.5498  1.7017
  125OSM   H15G13373   5.796   5.314   7.742  0.8461  0.5821 -2.4631
  125OSM   C16F13374   5.830   5.382   7.950  0.3113  0.1513 -0.6541
  125OSM   H16F13375   5.721   5.406   7.952  0.3553  0.3653 -0.8323
  125OSM   H16G13376   5.886   5.465   7.999  0.9919 -0.9945  0.5619
  125OSM   C17F13377   5.839   5.250   8.018 -0.4121 -0.2223 -0.5334
  125OSM   H17F13378   5.913   5.184   7.968 -1.1843 -0.3441 -1.5423
  125OSM   H17G13379   5.739   5.204   8.008 -1.3506  1.7015 -0.4600
  125OSM   C18F13380   5.863   5.258   8.173  0.9465  0.2086 -0.1944
  125OSM   H18F13381   5.782   5.317   8.221  1.2071  0.6069 -0.2355
  125OSM   H18G13382   5.961   5.306   8.195  0.9944 -0.2107  0.5250
  125OSM   H18H13383   5.863   5.161   8.226  1.7456 -1.9930 -3.8670
  126OSM      N13384   4.226   2.396   6.603 -0.3191 -0.1684 -0.9149
  126OSM    C1513385   4.091   2.403   6.657 -0.1001  0.5896  0.2045
  126OSM   H15A13386   4.085   2.471   6.741  2.4602  0.4213  0.5955
  126OSM   H15B13387   4.064   2.304   6.693 -1.4778  1.6628  2.2894
  126OSM   H15C13388   4.022   2.417   6.576 -0.2640 -2.5479 -0.3216
  126OSM    C1413389   4.256   2.535   6.564  0.3083 -0.7763  0.6917
  126OSM   H14A13390   4.220   2.566   6.467  1.4203  0.6159  0.6891
  126OSM   H14B13391   4.362   2.557   6.567  0.0125  0.6810  1.3493
  126OSM   H14C13392   4.222   2.602   6.642  0.6871  3.1470 -2.2130
  126OSM    C1313393   4.323   2.344   6.703 -0.5328 -0.5994 -0.2405
  126OSM   H13A13394   4.426   2.368   6.679 -1.2396  0.4339 -2.6468
  126OSM   H13B13395   4.315   2.236   6.698 -1.0069 -0.6506  1.2965
  126OSM   H13C13396   4.307   2.376   6.804  2.3629  1.4705 -0.3139
  126OSM    C1213397   4.235   2.303   6.481  0.2101 -1.1412  0.4880
  126OSM   H12A13398   4.338   2.291   6.451  0.1380 -0.1604 -0.1901
  126OSM   H12B13399   4.182   2.357   6.403 -0.4212  2.2809  3.0211
  126OSM    C1113400   4.169   2.166   6.493 -0.5765  0.2470 -0.0626
  126OSM   H11A13401   4.165   2.122   6.391 -0.2705  0.1246 -0.0224
  126OSM   H11B13402   4.064   2.175   6.527 -0.8044 -1.6137 -0.1828
  126OSM      P13403   4.190   1.957   6.643  0.2511  0.0590 -0.2608
  126OSM    O1313404   4.142   1.878   6.537 -0.4367  0.0882  0.6763
  126OSM    O1413405   4.276   1.896   6.746  0.3337 -0.6894  0.0656
  126OSM    O1113406   4.061   2.019   6.721 -0.4703  0.0050 -0.0731
  126OSM    O1213407   4.242   2.082   6.583 -0.1380 -0.5190  0.2825
  126OSM    C1S13408   4.094   2.066   6.856  0.5354 -0.2984  0.0825
  126OSM    H1S13409   4.191   2.119   6.862 -0.2905  1.5459 -1.7748
  126OSM    H1T13410   4.107   1.974   6.918  1.4718 -0.0683  0.2424
  126OSM     NF13411   4.007   2.184   7.068 -0.0193 -0.1833 -0.0793
  126OSM    HNF13412   3.980   2.122   7.142  1.7716 -1.5842 -0.5422
  126OSM    C2S13413   3.975   2.138   6.925 -0.2972 -0.7813 -0.7506
  126OSM    H2S13414   3.957   2.234   6.872 -0.1227  0.2300  0.9190
  126OSM    C3S13415   3.853   2.046   6.917 -0.4783 -0.2740 -0.6146
  126OSM    H3S13416   3.900   1.955   6.960  0.3611  0.4512  0.0454
  126OSM     O313417   3.812   2.009   6.793  0.5054 -0.7317 -0.0984
  126OSM    HO313418   3.893   1.992   6.744 -0.1572  0.6895 -1.7777
  126OSM    C4S13419   3.738   2.102   6.999 -1.2535 -0.2419  0.1131
  126OSM    H4S13420   3.723   2.210   6.986  5.4855  1.1858  0.6519
  126OSM    C5S13421   3.660   2.035   7.086  0.4783  0.6030  0.3126
  126OSM    H5S13422   3.685   1.930   7.109 -1.1169 -0.0190 -0.5834
  126OSM    C6S13423   3.544   2.103   7.156 -0.1831 -0.6637 -0.1907
  126OSM    H6S13424   3.446   2.064   7.124 -1.7558  2.5878  0.2120
  126OSM    H6T13425   3.550   2.213   7.138  0.4446 -0.6216  0.2574
  126OSM    C7S13426   3.561   2.052   7.302 -0.7284 -0.2065  0.3725
  126OSM    H7S13427   3.535   1.944   7.294 -0.6857 -0.1063 -2.2164
  126OSM    H7T13428   3.484   2.101   7.365 -3.1823 -2.5351 -0.6145
  126OSM    C8S13429   3.707   2.061   7.357  0.7358  0.7866 -0.3774
  126OSM    H8S13430   3.738   2.165   7.332 -2.4153  2.1773  1.0609
  126OSM    H8T13431   3.773   1.987   7.306  0.3389 -0.7194  1.2066
  126OSM    C9S13432   3.706   2.030   7.505 -0.1970 -0.6818  0.3443
  126OSM    H9S13433   3.696   1.919   7.509 -0.4989 -0.7862 -1.8606
  126OSM    H9T13434   3.621   2.084   7.551  0.8626  1.0977  0.2907
  126OSM   C10S13435   3.820   2.081   7.581 -0.8182  0.5477  0.1675
  126OSM   H10S13436   3.817   2.189   7.554  0.8164  0.1640 -1.7583
  126OSM   H10T13437   3.911   2.044   7.529 -2.8900 -0.6098 -2.9249
  126OSM   C11S13438   3.809   2.048   7.730  0.1239  0.2687  0.2717
  126OSM   H11S13439   3.780   1.941   7.741  0.2281  0.4390  2.9987
  126OSM   H11T13440   3.720   2.091   7.781 -0.5341 -0.9069  0.1459
  126OSM   C12S13441   3.941   2.073   7.809 -0.1438  0.7055 -0.7268
  126OSM   H12S13442   3.983   2.170   7.773  1.3852  0.0867 -0.6790
  126OSM   H12T13443   4.011   1.988   7.795 -2.3125 -1.4164  0.6130
  126OSM   C13S13444   3.909   2.096   7.962 -0.0611  0.2961 -0.3593
  126OSM   H13S13445   3.866   2.197   7.979  0.1412  0.0465  1.9578
  126OSM   H13T13446   4.007   2.097   8.014 -0.2596 -2.0780  0.2067
  126OSM   C14S13447   3.821   1.991   8.030 -0.5058 -0.5991  0.3379
  126OSM   H14S13448   3.802   1.901   7.967 -0.3124 -0.7844  0.5406
  126OSM   H14T13449   3.727   2.045   8.051  0.4013  0.3569  2.2117
  126OSM   C15S13450   3.893   1.953   8.155 -0.1539 -0.5079  0.4780
  126OSM   H15S13451   3.931   2.040   8.213  1.0104 -0.5734 -0.1601
  126OSM   H15T13452   3.989   1.904   8.127 -0.1025 -0.6077  0.8259
  126OSM   C16S13453   3.805   1.879   8.260 -0.6718  0.5042  0.5984
  126OSM   H16S13454   3.813   1.771   8.235  1.0228  0.7485 -0.0241
  126OSM   H16T13455   3.697   1.906   8.253 -0.8639 -0.5996 -1.1700
  126OSM   C17S13456   3.853   1.905   8.394 -0.2580 -0.3772  0.6184
  126OSM   H17S13457   3.821   2.002   8.437  1.8902  0.3668  0.6734
  126OSM   H17T13458   3.963   1.887   8.399 -0.1974  0.0052  0.7315
  126OSM   C18S13459   3.792   1.793   8.484 -0.3874 -0.4410 -0.5778
  126OSM   H18S13460   3.828   1.694   8.447  0.5937 -0.3965  0.2189
  126OSM   H18T13461   3.682   1.796   8.470 -0.4555 -1.1665 -0.2482
  126OSM   H18U13462   3.817   1.812   8.591  3.1038  1.6560 -1.6052
  126OSM    C1F13463   4.108   2.270   7.078 -0.0492 -0.2112 -0.3813
  126OSM     OF13464   4.150   2.335   6.981  0.0379  0.6631  0.1390
  126OSM    C2F13465   4.185   2.269   7.210 -0.2521  0.0045  0.1226
  126OSM    H2F13466   4.187   2.376   7.240 -0.2089  0.8793 -2.7032
  126OSM    H2G13467   4.291   2.242   7.193  0.3242  0.8150  2.2053
  126OSM    C3F13468   4.130   2.188   7.333  0.2340  0.9995  0.1497
  126OSM    H3F13469   4.144   2.083   7.300 -1.6468  1.5983 -2.8965
  126OSM    H3G13470   4.023   2.199   7.361  0.0478 -0.8912  0.2928
  126OSM    C4F13471   4.213   2.211   7.460 -0.6438  0.1756 -0.3971
  126OSM    H4F13472   4.322   2.192   7.452 -0.1932  0.4575  3.1721
  126OSM    H4G13473   4.182   2.140   7.541 -0.0301  1.1204  0.6970
  126OSM    C5F13474   4.186   2.348   7.525  0.2041  0.1331 -0.3857
  126OSM    H5F13475   4.078   2.368   7.538  0.4202  0.4475  1.1958
  126OSM    H5G13476   4.224   2.410   7.441  0.7210 -0.5532 -0.6709
  126OSM    C6F13477   4.261   2.364   7.655  0.0829  0.0937 -0.4101
  126OSM    H6F13478   4.369   2.381   7.633  0.5971 -0.1496  1.6607
  126OSM    H6G13479   4.249   2.277   7.723  0.9252  0.6257  0.4502
  126OSM    C7F13480   4.219   2.491   7.731 -0.3130 -0.2123  0.3149
  126OSM    H7F13481   4.109   2.494   7.744 -0.4300  0.1407 -0.6602
  126OSM    H7G13482   4.263   2.580   7.682  0.1771 -1.6111 -1.9278
  126OSM    C8F13483   4.284   2.492   7.872 -0.3415  0.4388  0.0048
  126OSM    H8F13484   4.275   2.597   7.908  1.2629  0.9902 -1.0688
  126OSM    H8G13485   4.390   2.479   7.841 -0.0689  1.7205  0.3584
  126OSM    C9F13486   4.253   2.371   7.958  0.2349  0.4061  0.4456
  126OSM    H9F13487   4.271   2.270   7.918 -2.2077  0.3387 -0.6611
  126OSM   C10F13488   4.224   2.392   8.089  0.2359 -0.6644 -0.6540
  126OSM   H10F13489   4.220   2.300   8.150  1.0097 -0.7393 -0.7059
  126OSM   C11F13490   4.202   2.519   8.171  0.7411  0.2526  0.0160
  126OSM   H11F13491   4.102   2.522   8.221  0.5710 -1.0478 -0.2164
  126OSM   H11G13492   4.219   2.607   8.106  2.4139 -0.6206 -0.7966
  126OSM   C12F13493   4.315   2.524   8.275  0.5430 -0.0046  0.3538
  126OSM   H12F13494   4.323   2.430   8.333 -1.2288 -0.8037 -0.6128
  126OSM   H12G13495   4.310   2.607   8.349 -0.3830  0.9789 -0.7461
  126OSM   C13F13496   4.456   2.553   8.215  0.5957 -0.4524 -0.4330
  126OSM   H13F13497   4.455   2.646   8.154  0.4726  0.2835  0.6657
  126OSM   H13G13498   4.483   2.467   8.150 -0.5281 -2.8850  2.1133
  126OSM   C14F13499   4.570   2.567   8.318 -0.6408  0.6034 -0.2696
  126OSM   H14F13500   4.537   2.508   8.406 -0.1199  1.8540  0.8049
  126OSM   H14G13501   4.598   2.669   8.353  0.1939 -0.1224  1.2765
  126OSM   C15F13502   4.704   2.502   8.262  0.7494  0.3423 -0.0601
  126OSM   H15F13503   4.683   2.395   8.243  2.3060 -0.5274  2.4901
  126OSM   H15G13504   4.774   2.499   8.349 -1.0081  0.5070  1.4206
  126OSM   C16F13505   4.747   2.563   8.127  0.0113 -0.3201 -0.7863
  126OSM   H16F13506   4.755   2.671   8.152 -1.6566 -1.0649  3.9496
  126OSM   H16G13507   4.671   2.545   8.048 -0.9222  2.1860 -0.5551
  126OSM   C17F13508   4.892   2.521   8.086  0.7379  0.3048  0.1322
  126OSM   H17F13509   4.895   2.412   8.070 -0.3543  0.4939 -1.6081
  126OSM   H17G13510   4.954   2.553   8.173  0.1544  2.8626 -0.3053
  126OSM   C18F13511   4.936   2.602   7.964 -0.2745 -0.0703 -0.0443
  126OSM   H18F13512   4.855   2.591   7.888 -0.1633 -0.0381 -0.1676
  126OSM   H18G13513   5.027   2.556   7.920 -0.5009 -0.9693  0.4064
  126OSM   H18H13514   4.950   2.711   7.983 -2.8358  0.7132 -1.9752
  127OSM      N13515   5.352   3.376   6.449 -0.3463  0.1280  0.1562
  127OSM    C1513516   5.474   3.411   6.525  0.4024  0.0987 -0.0746
  127OSM   H15A13517   5.516   3.508   6.503  0.9908 -0.3016 -0.7834
  127OSM   H15B13518   5.542   3.328   6.509  1.5802  1.2513 -1.3328
  127OSM   H15C13519   5.466   3.411   6.633 -0.1056 -1.4123 -0.0936
  127OSM    C1413520   5.390   3.387   6.302 -0.1907  0.3031  0.6199
  127OSM   H14A13521   5.433   3.482   6.272  0.2672 -0.0603  0.1048
  127OSM   H14B13522   5.315   3.362   6.229 -0.8733  0.4006  1.2868
  127OSM   H14C13523   5.470   3.316   6.283  1.9430  2.8616 -0.6630
  127OSM    C1313524   5.305   3.237   6.474  0.1956 -0.2250 -0.5826
  127OSM   H13A13525   5.215   3.209   6.422 -1.8224  0.2119  2.4319
  127OSM   H13B13526   5.289   3.224   6.580  1.3949 -0.7181 -0.4451
  127OSM   H13C13527   5.367   3.155   6.442 -1.0690 -0.6746 -2.0212
  127OSM    C1213528   5.250   3.484   6.485  0.2605  0.9396  1.2073
  127OSM   H12A13529   5.166   3.464   6.421  2.9573 -0.4523 -2.1730
  127OSM   H12B13530   5.289   3.578   6.449  0.6003  0.1183 -0.6610
  127OSM    C1113531   5.199   3.495   6.626  0.0583  0.2149  0.2640
  127OSM   H11A13532   5.145   3.592   6.633 -0.0259  0.4117 -2.1445
  127OSM   H11B13533   5.282   3.491   6.701  1.5092 -3.5015 -1.3147
  127OSM      P13534   4.978   3.370   6.578  0.1145  0.5352  0.4348
  127OSM    O1313535   4.941   3.504   6.519  0.3229  0.4434  0.2106
  127OSM    O1413536   5.009   3.270   6.474 -0.1467  0.4275  0.2173
  127OSM    O1113537   4.872   3.315   6.677 -0.1529 -0.8102 -0.1972
  127OSM    O1213538   5.113   3.384   6.656 -0.0358  0.3537 -0.2329
  127OSM    C1S13539   4.797   3.191   6.652  0.1434  0.1733  0.3866
  127OSM    H1S13540   4.870   3.109   6.664 -0.0049 -0.1976 -1.1482
  127OSM    H1T13541   4.748   3.189   6.553 -0.3059  0.6613  0.5938
  127OSM     NF13542   4.620   3.034   6.751 -0.9615  0.1138 -0.2421
  127OSM    HNF13543   4.534   3.014   6.705 -0.4574 -0.0338 -1.1253
  127OSM    C2S13544   4.680   3.171   6.751 -0.1403 -0.2673  0.3871
  127OSM    H2S13545   4.716   3.190   6.854 -1.1758  0.4998  0.6269
  127OSM    C3S13546   4.573   3.283   6.715 -0.5241 -0.3127 -0.7815
  127OSM    H3S13547   4.527   3.249   6.620 -1.1413 -3.2700  0.4312
  127OSM     O313548   4.624   3.414   6.692  0.5288 -0.2494  0.4244
  127OSM    HO313549   4.718   3.412   6.715  0.9504  0.7632 -1.0845
  127OSM    C4S13550   4.462   3.287   6.826 -0.4245 -0.2859 -0.0790
  127OSM    H4S13551   4.507   3.278   6.926  1.6292 -0.7064 -0.9906
  127OSM    C5S13552   4.325   3.286   6.799 -0.0209  0.1338 -0.3867
  127OSM    H5S13553   4.289   3.284   6.695  0.4040 -2.7329 -0.5596
  127OSM    C6S13554   4.204   3.283   6.894  0.2105  0.1828 -0.4021
  127OSM    H6S13555   4.137   3.194   6.887  0.1100 -0.3239  4.2349
  127OSM    H6T13556   4.142   3.368   6.857 -1.1533 -0.0597  1.1985
  127OSM    C7S13557   4.234   3.294   7.048  0.5182 -0.2822 -0.0134
  127OSM    H7S13558   4.296   3.385   7.066 -2.0648  1.4124  0.9674
  127OSM    H7T13559   4.297   3.211   7.085  1.5122  1.5989  2.8588
  127OSM    C8S13560   4.116   3.294   7.135  0.6353 -0.3644 -0.2661
  127OSM    H8S13561   4.072   3.192   7.141  1.1496 -0.5165  2.8262
  127OSM    H8T13562   4.036   3.348   7.080  1.7079  1.4727 -0.0888
  127OSM    C9S13563   4.151   3.365   7.265  0.3344  0.0851 -0.1941
  127OSM    H9S13564   4.172   3.470   7.235 -0.1093 -0.4088 -2.4507
  127OSM    H9T13565   4.239   3.326   7.321  0.0031  0.8228  0.8793
  127OSM   C10S13566   4.039   3.372   7.366 -0.2773 -0.2316 -1.2023
  127OSM   H10S13567   4.013   3.269   7.399 -1.5572  0.8824  1.6012
  127OSM   H10T13568   3.949   3.411   7.313 -0.4672  2.4460  0.8720
  127OSM   C11S13569   4.057   3.454   7.497  0.4919  0.4582  0.1593
  127OSM   H11S13570   4.055   3.561   7.466  1.7210  0.3696 -0.2453
  127OSM   H11T13571   4.147   3.426   7.555 -0.0106  0.1885  0.8276
  127OSM   C12S13572   3.933   3.424   7.591  0.3377  0.2312  0.0692
  127OSM   H12S13573   3.949   3.324   7.636  1.2354  0.9121  1.3164
  127OSM   H12T13574   3.837   3.423   7.535 -0.9713 -0.9767  2.1769
  127OSM   C13S13575   3.938   3.522   7.712  0.2276  0.1924  0.0393
  127OSM   H13S13576   3.902   3.615   7.662 -0.1537 -0.1664 -0.3708
  127OSM   H13T13577   4.042   3.536   7.746 -0.0469  0.8591  0.6288
  127OSM   C14S13578   3.859   3.482   7.835 -0.6746 -0.3579 -0.8077
  127OSM   H14S13579   3.892   3.387   7.882  3.3462  0.8937 -0.7960
  127OSM   H14T13580   3.757   3.451   7.801 -1.0571 -2.7594  2.1305
  127OSM   C15S13581   3.851   3.577   7.947 -0.7979  0.1300 -0.2790
  127OSM   H15S13582   3.788   3.660   7.909 -1.0672  0.5629  1.0607
  127OSM   H15T13583   3.950   3.611   7.985 -0.8297  1.3438 -1.2152
  127OSM   C16S13584   3.767   3.521   8.065  0.4278 -1.4347 -0.4617
  127OSM   H16S13585   3.805   3.428   8.113  1.0600  0.0614  2.1094
  127OSM   H16T13586   3.670   3.495   8.017  0.4447  1.1439 -2.0518
  127OSM   C17S13587   3.747   3.620   8.179  0.1421  0.3704 -0.4165
  127OSM   H17S13588   3.726   3.722   8.140 -1.8577 -0.7183 -2.4360
  127OSM   H17T13589   3.836   3.622   8.246 -0.0433 -1.7615 -0.0573
  127OSM   C18S13590   3.623   3.592   8.257 -0.7805  0.2253 -0.9288
  127OSM   H18S13591   3.605   3.666   8.338  0.8059 -0.4399  0.0789
  127OSM   H18T13592   3.632   3.495   8.312 -1.0915 -0.1808 -1.5811
  127OSM   H18U13593   3.536   3.579   8.189 -3.2769  0.1471  2.0538
  127OSM    C1F13594   4.689   2.925   6.797  0.4967  0.0217 -0.0471
  127OSM     OF13595   4.789   2.942   6.864 -0.7861 -0.5838  0.1185
  127OSM    C2F13596   4.623   2.790   6.767  0.5595 -0.6560  0.0066
  127OSM    H2F13597   4.680   2.742   6.684  1.1743  2.1344 -1.3308
  127OSM    H2G13598   4.517   2.798   6.737 -0.4609 -1.0783  3.2149
  127OSM    C3F13599   4.605   2.698   6.895 -0.2180 -0.0331  0.0548
  127OSM    H3F13600   4.521   2.631   6.863  0.3810  0.6501 -3.3481
  127OSM    H3G13601   4.567   2.753   6.984 -1.6387 -2.2542  0.9383
  127OSM    C4F13602   4.724   2.608   6.936  0.2743  0.6434  0.8475
  127OSM    H4F13603   4.788   2.613   6.845 -1.8408  1.2291 -0.6846
  127OSM    H4G13604   4.693   2.503   6.955 -1.9709  0.7960 -1.4047
  127OSM    C5F13605   4.793   2.647   7.065 -0.2837 -0.0412  0.0856
  127OSM    H5F13606   4.850   2.741   7.044 -0.2945 -0.1500 -0.4369
  127OSM    H5G13607   4.870   2.570   7.084  1.9182  1.5748 -1.6979
  127OSM    C6F13608   4.705   2.654   7.189 -0.0813 -0.2816 -0.1057
  127OSM    H6F13609   4.671   2.556   7.227 -0.0313  0.0557  0.8184
  127OSM    H6G13610   4.619   2.719   7.161 -0.5044 -0.6102  0.4404
  127OSM    C7F13611   4.784   2.708   7.305  0.5547 -0.4626 -0.0965
  127OSM    H7F13612   4.821   2.811   7.283 -0.2737 -0.1832 -0.2415
  127OSM    H7G13613   4.875   2.645   7.317  1.7595  1.0787 -0.7081
  127OSM    C8F13614   4.686   2.725   7.426 -0.5569 -0.3276 -0.8357
  127OSM    H8F13615   4.621   2.637   7.443 -0.9409  0.5715  4.1331
  127OSM    H8G13616   4.621   2.815   7.415 -0.7373  0.0748  2.4280
  127OSM    C9F13617   4.767   2.757   7.551 -0.1850  0.9502 -0.3090
  127OSM    H9F13618   4.876   2.743   7.542 -0.1894 -0.3495  1.1445
  127OSM   C10F13619   4.719   2.764   7.674 -0.2922  0.2275 -0.3691
  127OSM   H10F13620   4.794   2.783   7.753 -0.9391  1.1415  0.0454
  127OSM   C11F13621   4.575   2.750   7.712  0.0809 -0.6356 -0.8103
  127OSM   H11F13622   4.568   2.649   7.758 -0.2614 -0.9330 -1.4981
  127OSM   H11G13623   4.510   2.756   7.622  1.0535  1.9708 -1.4008
  127OSM   C12F13624   4.520   2.858   7.815  0.7428  0.2581  0.1529
  127OSM   H12F13625   4.424   2.815   7.851 -0.8446  2.3985 -1.2797
  127OSM   H12G13626   4.505   2.958   7.770 -0.2518  1.1832  2.4106
  127OSM   C13F13627   4.605   2.876   7.942  0.9890  0.0078 -0.0202
  127OSM   H13F13628   4.687   2.937   7.897  1.2282 -1.4898 -1.7085
  127OSM   H13G13629   4.640   2.776   7.975 -1.0717 -0.5297  0.7081
  127OSM   C14F13630   4.553   2.952   8.065 -0.0791 -0.3992  0.2535
  127OSM   H14F13631   4.481   2.877   8.106  0.4189 -0.9223  0.1914
  127OSM   H14G13632   4.494   3.040   8.033 -2.1026 -2.0948 -0.9981
  127OSM   C15F13633   4.664   2.995   8.158  0.8297 -0.3434 -0.1617
  127OSM   H15F13634   4.741   3.049   8.100  2.0998 -0.4307  1.3570
  127OSM   H15G13635   4.716   2.904   8.197  1.5905 -0.0233 -0.4159
  127OSM   C16F13636   4.614   3.086   8.272 -0.9474 -0.4104 -0.2459
  127OSM   H16F13637   4.533   3.042   8.335  0.3870  0.7646  2.4423
  127OSM   H16G13638   4.575   3.179   8.225  0.8679  1.4247  1.6758
  127OSM   C17F13639   4.721   3.115   8.383 -0.1336 -0.7450  0.2001
  127OSM   H17F13640   4.750   3.013   8.417  0.3929 -0.1579  1.5698
  127OSM   H17G13641   4.676   3.171   8.467 -0.5216 -1.0395  0.1901
  127OSM   C18F13642   4.837   3.182   8.324 -0.3547 -0.3882  0.8079
  127OSM   H18F13643   4.877   3.112   8.247  1.8726  1.0292  0.5644
  127OSM   H18G13644   4.916   3.188   8.402 -0.1400 -1.1101  0.6539
  127OSM   H18H13645   4.812   3.272   8.264 -1.2924 -1.7703 -0.9693
  128OSM      N13646   0.870   5.947   5.750 -0.1699  0.9589  0.0424
  128OSM    C1513647   0.856   6.047   5.639 -0.1164  0.8795 -0.0421
  128OSM   H15A13648   0.749   6.056   5.625 -0.7132 -0.8844  2.5550
  128OSM   H15B13649   0.898   6.002   5.549 -0.3768 -1.5361  0.9518
  128OSM   H15C13650   0.901   6.142   5.660  0.2323  0.9867 -1.1999
  128OSM    C1413651   0.811   5.816   5.707  0.4593  0.1523  0.5031
  128OSM   H14A13652   0.704   5.808   5.718  0.3506 -0.5457 -0.7848
  128OSM   H14B13653   0.844   5.728   5.760 -0.4610 -1.5344 -1.5847
  128OSM   H14C13654   0.844   5.796   5.606 -2.0077 -1.5469 -0.0585
  128OSM    C1313655   1.013   5.934   5.801  0.3677  0.2397 -0.4110
  128OSM   H13A13656   1.080   5.913   5.720 -0.7783  2.6121 -2.1069
  128OSM   H13B13657   1.008   5.876   5.892  1.0631  2.7341  1.3392
  128OSM   H13C13658   1.050   6.031   5.830  1.1214 -0.3632  0.7119
  128OSM    C1213659   0.776   5.990   5.866  1.0794 -0.5942  0.2405
  128OSM   H12A13660   0.677   5.999   5.824  1.7537  0.3589 -1.2479
  128OSM   H12B13661   0.813   6.085   5.903  0.9048 -0.2604 -0.4147
  128OSM    C1113662   0.762   5.908   5.995  0.2897  0.2734  0.4338
  128OSM   H11A13663   0.704   5.818   5.965  2.5290 -0.6130 -1.5027
  128OSM   H11B13664   0.699   5.959   6.072  0.2208 -1.4296  1.5602
  128OSM      P13665   0.965   5.944   6.158  0.5148 -0.7849 -0.0160
  128OSM    O1313666   1.090   5.863   6.163 -0.1947  0.1328  0.1902
  128OSM    O1413667   0.976   6.089   6.127 -0.0843  0.0699  0.8670
  128OSM    O1113668   0.885   5.937   6.292  0.4177  0.3827  0.3222
  128OSM    O1213669   0.884   5.866   6.053 -0.1764 -0.0937  0.5616
  128OSM    C1S13670   0.821   5.807   6.333 -0.7101  0.2109 -0.2726
  128OSM    H1S13671   0.876   5.714   6.306 -0.2354  0.9914 -2.1460
  128OSM    H1T13672   0.719   5.804   6.289 -0.9291  0.5859  0.2022
  128OSM     NF13673   0.759   5.652   6.511 -0.4205  0.4678 -0.5726
  128OSM    HNF13674   0.670   5.616   6.485 -1.1981  1.7289  0.2208
  128OSM    C2S13675   0.784   5.796   6.484  0.0474  0.5106 -0.3949
  128OSM    H2S13676   0.872   5.832   6.543  0.2366 -1.7857  0.8393
  128OSM    C3S13677   0.671   5.892   6.526 -0.8462  0.4047  0.4332
  128OSM    H3S13678   0.576   5.853   6.483  0.6653 -1.9725 -0.9719
  128OSM     O313679   0.691   6.032   6.486 -0.2308 -0.0354 -0.2411
  128OSM    HO313680   0.769   6.033   6.431 -0.5078  1.5809 -0.6681
  128OSM    C4S13681   0.655   5.882   6.682  0.1292 -0.8283  0.6816
  128OSM    H4S13682   0.735   5.938   6.734  1.0045  0.0517 -1.4909
  128OSM    C5S13683   0.554   5.826   6.754  0.5690  0.3482 -0.1102
  128OSM    H5S13684   0.489   5.758   6.697  1.1736 -0.2352 -0.1226
  128OSM    C6S13685   0.536   5.818   6.900 -0.4810 -0.0489  0.4479
  128OSM    H6S13686   0.592   5.729   6.936 -0.0259 -0.5246 -1.3564
  128OSM    H6T13687   0.433   5.793   6.935 -0.3374 -1.2105  0.1063
  128OSM    C7S13688   0.597   5.950   6.963  0.2184  0.3614 -0.6438
  128OSM    H7S13689   0.543   6.036   6.919 -0.2168  0.0903 -0.6450
  128OSM    H7T13690   0.706   5.961   6.945  0.8196 -1.6809  1.2945
  128OSM    C8S13691   0.572   5.956   7.115 -0.2062 -0.2063  0.1545
  128OSM    H8S13692   0.658   5.908   7.166 -1.2364 -3.4286 -0.8230
  128OSM    H8T13693   0.478   5.900   7.136 -0.7070 -0.1211 -1.6425
  128OSM    C9S13694   0.575   6.100   7.168  0.1949  0.2222 -0.2249
  128OSM    H9S13695   0.499   6.162   7.116 -0.5806 -1.6046 -1.3702
  128OSM    H9T13696   0.680   6.132   7.150 -0.1855  0.1640 -3.0057
  128OSM   C10S13697   0.558   6.111   7.320  0.0021 -0.1611  0.7404
  128OSM   H10S13698   0.582   6.218   7.338  3.8430 -0.9505  1.1939
  128OSM   H10T13699   0.628   6.049   7.380  0.9693 -1.1176 -1.2795
  128OSM   C11S13700   0.417   6.079   7.369 -0.2296  0.2077  0.6879
  128OSM   H11S13701   0.390   5.974   7.342 -1.7797  0.9307 -0.7360
  128OSM   H11T13702   0.345   6.142   7.313  1.5513 -1.6463 -4.2526
  128OSM   C12S13703   0.404   6.086   7.515  0.0299  0.5159  0.5114
  128OSM   H12S13704   0.432   6.187   7.552 -0.8844  0.6060  0.9912
  128OSM   H12T13705   0.478   6.017   7.561  0.3657 -1.1527 -2.2688
  128OSM   C13S13706   0.258   6.058   7.556 -0.4067 -0.1436 -0.1881
  128OSM   H13S13707   0.215   5.959   7.529 -3.3023  1.3999 -1.7028
  128OSM   H13T13708   0.198   6.136   7.505  0.8172 -0.4640 -2.2258
  128OSM   C14S13709   0.252   6.073   7.707  0.4069  0.9982 -0.3570
  128OSM   H14S13710   0.312   6.162   7.733  3.3327 -0.6089 -1.1640
  128OSM   H14T13711   0.288   5.980   7.757  2.1622  0.4085 -2.5503
  128OSM   C15S13712   0.116   6.100   7.775  0.0344  0.3127  0.4618
  128OSM   H15S13713   0.046   6.014   7.784 -0.2714  0.5098  0.0190
  128OSM   H15T13714   0.063   6.185   7.726 -0.9580  0.8784  2.3941
  128OSM   C16S13715   0.127   6.142   7.924 -0.4350 -0.2673 -0.1291
  128OSM   H16S13716   0.150   6.250   7.920 -1.4870 -0.0847 -2.6526
  128OSM   H16T13717   0.220   6.095   7.964  0.1293  0.2369 -0.8366
  128OSM   C17S13718   0.006   6.119   8.016  0.6264  0.8985  0.7244
  128OSM   H17S13719  -0.033   6.015   8.028 -0.6229  1.2312 -0.2117
  128OSM   H17T13720  -0.081   6.166   7.967  1.3133  1.6773  0.2363
  128OSM   C18S13721   0.024   6.168   8.164  0.6504 -0.1294 -0.3284
  128OSM   H18S13722   0.109   6.112   8.209  0.4620 -0.7768 -0.7602
  128OSM   H18T13723  -0.069   6.170   8.226  0.3777 -0.6775 -0.7107
  128OSM   H18U13724   0.050   6.275   8.151 -0.9002  0.0496 -2.5980
  128OSM    C1F13725   0.864   5.572   6.543 -0.3317 -0.3654  0.4156
  128OSM     OF13726   0.978   5.611   6.540  0.4321 -0.0011  0.4167
  128OSM    C2F13727   0.833   5.428   6.542 -0.7050  0.1765  0.5383
  128OSM    H2F13728   0.912   5.379   6.482 -0.9851 -0.3617  0.6087
  128OSM    H2G13729   0.741   5.418   6.481 -1.1224  0.1746  1.1550
  128OSM    C3F13730   0.846   5.377   6.684  0.6997 -0.4139  0.5621
  128OSM    H3F13731   0.932   5.421   6.738 -1.4174  0.8725  3.1412
  128OSM    H3G13732   0.849   5.266   6.673 -1.0110 -0.3811 -0.9020
  128OSM    C4F13733   0.721   5.406   6.779 -0.6822  0.3552 -0.2496
  128OSM    H4F13734   0.638   5.407   6.706 -1.0651  1.3194  0.1938
  128OSM    H4G13735   0.743   5.507   6.820  1.8732 -0.2248  0.0341
  128OSM    C5F13736   0.695   5.302   6.889  1.2103  0.0459  0.2997
  128OSM    H5F13737   0.668   5.199   6.860 -0.2990  0.2608  0.8380
  128OSM    H5G13738   0.616   5.350   6.951  1.0031  1.3969 -0.9495
  128OSM    C6F13739   0.817   5.289   6.973 -0.5691 -0.0999 -0.4231
  128OSM    H6F13740   0.864   5.387   6.993  0.0580  0.2392 -3.1637
  128OSM    H6G13741   0.890   5.235   6.909  0.5217  0.4619  0.3151
  128OSM    C7F13742   0.805   5.210   7.108  0.4226 -0.2346 -0.7531
  128OSM    H7F13743   0.779   5.106   7.079 -1.8544 -0.3440  1.4116
  128OSM    H7G13744   0.729   5.260   7.172  1.8051 -0.2626  0.9899
  128OSM    C8F13745   0.923   5.209   7.207 -0.3919  0.5278  0.4466
  128OSM    H8F13746   1.011   5.157   7.163  1.0132  2.5045  0.7905
  128OSM    H8G13747   0.889   5.139   7.286  0.8337  1.4853  1.8824
  128OSM    C9F13748   0.965   5.347   7.247 -0.0177 -0.3154 -0.2543
  128OSM    H9F13749   0.961   5.420   7.165 -2.3437  1.6270  1.4548
  128OSM   C10F13750   0.983   5.388   7.371 -0.2117 -1.3070  0.2957
  128OSM   H10F13751   1.018   5.492   7.383 -0.1234 -1.0954 -1.5482
  128OSM   C11F13752   0.972   5.300   7.492 -0.2594  0.0822  0.2664
  128OSM   H11F13753   1.041   5.214   7.476 -0.3503 -0.2117  1.3324
  128OSM   H11G13754   0.867   5.265   7.501 -0.3452  0.3216  0.1965
  128OSM   C12F13755   1.024   5.366   7.624  0.6446 -0.6638 -0.0430
  128OSM   H12F13756   0.994   5.473   7.629 -0.9470 -1.1282  2.0067
  128OSM   H12G13757   1.133   5.349   7.636  0.9038  0.2130 -1.0225
  128OSM   C13F13758   0.955   5.307   7.743 -0.0854  0.3713  0.5813
  128OSM   H13F13759   0.974   5.197   7.753  1.0878  0.5321  0.3081
  128OSM   H13G13760   0.846   5.323   7.738 -0.1052 -0.1359 -2.0639
  128OSM   C14F13761   0.999   5.372   7.873  0.1006 -0.0555  0.1834
  128OSM   H14F13762   1.107   5.364   7.897 -0.1541  2.4816  2.6947
  128OSM   H14G13763   0.938   5.327   7.953  0.4567 -1.9276 -0.5573
  128OSM   C15F13764   0.965   5.527   7.883 -0.7916  0.4949  0.2356
  128OSM   H15F13765   0.859   5.537   7.852 -1.1687 -0.5350  1.1314
  128OSM   H15G13766   1.030   5.591   7.820 -0.6698 -1.1378 -1.3567
  128OSM   C16F13767   0.983   5.573   8.029 -0.5282 -0.7450  0.3664
  128OSM   H16F13768   1.092   5.569   8.050 -0.4023 -0.6688 -0.2562
  128OSM   H16G13769   0.924   5.508   8.097 -0.9197 -0.7358  0.0448
  128OSM   C17F13770   0.936   5.714   8.052  1.0867  0.4819 -0.4026
  128OSM   H17F13771   0.972   5.750   8.151 -0.1009 -0.8356  0.5552
  128OSM   H17G13772   0.825   5.708   8.053  0.9260  2.1720  1.9596
  128OSM   C18F13773   0.982   5.821   7.950 -0.2156  0.0977  0.0051
  128OSM   H18F13774   0.942   5.812   7.847 -0.3441 -1.4467  0.1555
  128OSM   H18G13775   1.092   5.819   7.934 -0.1729  1.1903  0.1009
  128OSM   H18H13776   0.957   5.924   7.981 -0.5469  0.0600 -0.1348
  129OSM      N13777   1.739   1.112   5.695 -0.0997  0.7931  0.0608
  129OSM    C1513778   1.877   1.145   5.656 -0.5403 -0.2365 -0.1736
  129OSM   H15A13779   1.890   1.250   5.632  0.3591 -0.2211  0.3143
  129OSM   H15B13780   1.898   1.096   5.562 -0.2906  0.2145 -0.3576
  129OSM   H15C13781   1.952   1.126   5.732  1.7134  3.4670 -1.2005
  129OSM    C1413782   1.649   1.169   5.590 -0.2582  0.1323  0.1518
  129OSM   H14A13783   1.652   1.277   5.598 -1.8047  0.1216  1.4298
  129OSM   H14B13784   1.550   1.138   5.620 -0.6853  1.9374  0.7681
  129OSM   H14C13785   1.674   1.150   5.487 -0.5957  0.3398  0.0300
  129OSM    C1313786   1.724   0.961   5.682  0.1560  0.4275 -0.6702
  129OSM   H13A13787   1.764   0.932   5.586  0.4922 -2.9267  0.3683
  129OSM   H13B13788   1.621   0.932   5.692  0.1769  0.1604 -1.2134
  129OSM   H13C13789   1.785   0.917   5.759  0.8273  0.7216 -1.0244
  129OSM    C1213790   1.711   1.178   5.830 -0.2181 -0.6796  0.2380
  129OSM   H12A13791   1.605   1.173   5.847 -0.0037 -0.2399  1.8447
  129OSM   H12B13792   1.730   1.284   5.822 -0.2791 -0.7688 -1.2832
  129OSM    C1113793   1.790   1.115   5.945  0.1798  0.0033  0.2009
  129OSM   H11A13794   1.780   1.005   5.957 -3.6048 -0.0208 -1.7733
  129OSM   H11B13795   1.739   1.165   6.031  0.1239 -1.1768  0.8739
  129OSM      P13796   1.974   1.297   5.979  0.4200  0.2141  0.0729
  129OSM    O1313797   2.120   1.287   5.984 -0.0949  0.1585 -0.3160
  129OSM    O1413798   1.921   1.387   5.876 -0.2527 -0.1919 -0.0667
  129OSM    O1113799   1.929   1.335   6.127 -0.4320  0.2381  0.4692
  129OSM    O1213800   1.930   1.145   5.946 -0.1922 -0.1943  0.2839
  129OSM    C1S13801   1.935   1.234   6.235  0.3289  0.1477  0.9654
  129OSM    H1S13802   2.025   1.169   6.231 -0.8600 -1.5035 -0.5960
  129OSM    H1T13803   1.845   1.169   6.237 -0.4901  1.0869 -1.5170
  129OSM     NF13804   1.938   1.205   6.473  0.0975 -0.7389 -0.0871
  129OSM    HNF13805   1.853   1.180   6.520 -0.6960 -0.3584 -1.2837
  129OSM    C2S13806   1.936   1.301   6.376  0.0939 -0.8722  0.3612
  129OSM    H2S13807   2.028   1.362   6.369 -0.2052 -0.5888 -3.1902
  129OSM    C3S13808   1.807   1.388   6.392  0.0870  0.1009 -0.2140
  129OSM    H3S13809   1.716   1.324   6.394 -0.4754  0.8426 -1.2814
  129OSM     O313810   1.774   1.471   6.283 -0.0574 -0.0578  0.5883
  129OSM    HO313811   1.835   1.440   6.216  0.6490  4.0036 -0.9409
  129OSM    C4S13812   1.819   1.463   6.529  0.1742  0.4131 -0.6061
  129OSM    H4S13813   1.755   1.421   6.608  2.0345 -1.6830 -0.1237
  129OSM    C5S13814   1.879   1.582   6.551  0.7183  0.4903 -0.0749
  129OSM    H5S13815   1.934   1.625   6.466  1.2963  0.5195  0.3114
  129OSM    C6S13816   1.867   1.654   6.687  0.0087 -0.4027  0.3181
  129OSM    H6S13817   1.795   1.739   6.685  1.6393  1.0154 -1.1715
  129OSM    H6T13818   1.966   1.698   6.712  0.4564 -1.5951  0.6976
  129OSM    C7S13819   1.837   1.557   6.809  0.2803  0.4905 -0.3427
  129OSM    H7S13820   1.913   1.475   6.810  0.4862  0.6704  1.6061
  129OSM    H7T13821   1.738   1.510   6.792 -0.4967  1.3236  1.6784
  129OSM    C8S13822   1.840   1.634   6.939 -0.1313  1.4629 -0.5756
  129OSM    H8S13823   1.775   1.723   6.925 -2.1098  0.1574 -0.0355
  129OSM    H8T13824   1.944   1.661   6.969 -0.0708 -1.4137  2.2938
  129OSM    C9S13825   1.779   1.564   7.057 -0.0270 -0.2074 -0.4497
  129OSM    H9S13826   1.837   1.470   7.072 -0.3534 -0.2807  0.4354
  129OSM    H9T13827   1.676   1.526   7.036 -1.1799  2.6386 -0.3620
  129OSM   C10S13828   1.797   1.651   7.176 -0.7428  0.0345 -0.8808
  129OSM   H10S13829   1.761   1.756   7.172 -0.3982  0.3721  2.2162
  129OSM   H10T13830   1.903   1.650   7.210 -1.2110 -0.8985  0.6658
  129OSM   C11S13831   1.727   1.581   7.301 -0.1864 -0.5175 -0.0540
  129OSM   H11S13832   1.783   1.485   7.307  1.4549  0.3702 -0.5223
  129OSM   H11T13833   1.622   1.567   7.269 -0.2265  0.7421 -0.5135
  129OSM   C12S13834   1.742   1.673   7.427  0.0855 -0.2462 -0.4484
  129OSM   H12S13835   1.729   1.776   7.388  0.5783 -0.3232 -0.8256
  129OSM   H12T13836   1.840   1.653   7.474  0.1209 -1.2433 -0.9132
  129OSM   C13S13837   1.627   1.643   7.525  0.0760 -0.3177  0.3832
  129OSM   H13S13838   1.621   1.539   7.564  0.0826  0.3958  2.4201
  129OSM   H13T13839   1.538   1.666   7.464  1.3247  2.9652 -0.4009
  129OSM   C14S13840   1.624   1.717   7.655 -0.1904 -0.3576 -0.3292
  129OSM   H14S13841   1.517   1.715   7.686  0.3645  0.3628  1.8416
  129OSM   H14T13842   1.651   1.825   7.653 -0.2406 -0.3194  0.6512
  129OSM   C15S13843   1.721   1.656   7.766 -0.1020  0.0277 -0.2052
  129OSM   H15S13844   1.822   1.635   7.724  0.1556  0.0865  0.3777
  129OSM   H15T13845   1.688   1.555   7.798  1.2384  0.0103  1.2189
  129OSM   C16S13846   1.751   1.741   7.893  0.0626 -0.6036  0.3578
  129OSM   H16S13847   1.696   1.837   7.895  1.7812  0.4639 -0.5266
  129OSM   H16T13848   1.858   1.771   7.882 -0.9491  2.3840 -4.0919
  129OSM   C17S13849   1.720   1.677   8.028  0.4134 -0.3512  1.0250
  129OSM   H17S13850   1.614   1.648   8.041  0.8197 -1.5768  1.7744
  129OSM   H17T13851   1.743   1.756   8.102  1.6394 -0.8527  1.2088
  129OSM   C18S13852   1.804   1.562   8.070 -0.3085  1.2311 -0.2815
  129OSM   H18S13853   1.764   1.500   8.153 -2.7382 -0.0892 -2.3130
  129OSM   H18T13854   1.904   1.596   8.107  0.3095 -0.6708 -0.1227
  129OSM   H18U13855   1.815   1.482   7.994 -2.3651 -1.0539  1.6448
  129OSM    C1F13856   2.050   1.143   6.514 -1.4193 -0.4574 -0.5455
  129OSM     OF13857   2.164   1.188   6.471  0.7886  0.4377  0.5604
  129OSM    C2F13858   2.033   1.025   6.605 -0.4269  0.0502  0.3913
  129OSM    H2F13859   2.000   0.937   6.546 -0.3807  2.5434 -3.7216
  129OSM    H2G13860   1.948   1.035   6.676  0.5422 -0.7276  1.7104
  129OSM    C3F13861   2.154   0.987   6.702 -0.9457  0.5651  0.3234
  129OSM    H3F13862   2.238   0.938   6.648 -0.3382 -1.6305  3.0226
  129OSM    H3G13863   2.108   0.907   6.764  2.3549 -0.0529  2.2087
  129OSM    C4F13864   2.201   1.098   6.789 -0.0367 -1.0189  0.5153
  129OSM    H4F13865   2.110   1.152   6.822 -0.0114 -0.2093 -0.7036
  129OSM    H4G13866   2.264   1.174   6.737  1.2142 -2.3734 -0.0210
  129OSM    C5F13867   2.285   1.053   6.906  0.4619 -0.6062  0.4770
  129OSM    H5F13868   2.386   1.013   6.882  0.3763  0.0889 -1.1835
  129OSM    H5G13869   2.225   0.981   6.966 -1.2312  0.0458 -0.3547
  129OSM    C6F13870   2.305   1.170   6.999  0.3872 -0.4234 -0.1792
  129OSM    H6F13871   2.214   1.203   7.054  1.0397  1.4816 -0.1738
  129OSM    H6G13872   2.326   1.260   6.938  0.2955 -0.5716 -0.4312
  129OSM    C7F13873   2.418   1.129   7.097 -0.4121  0.7775 -0.6599
  129OSM    H7F13874   2.521   1.134   7.055  0.5364 -1.7639  1.1452
  129OSM    H7G13875   2.409   1.021   7.121  1.2016  0.5786 -0.8420
  129OSM    C8F13876   2.417   1.209   7.230  0.4839  0.3809  0.4307
  129OSM    H8F13877   2.439   1.314   7.200  1.9402 -0.4173 -1.5627
  129OSM    H8G13878   2.501   1.165   7.287 -1.5433 -3.0272  1.0028
  129OSM    C9F13879   2.291   1.212   7.318 -0.3626  0.1876  0.3895
  129OSM    H9F13880   2.200   1.235   7.262  1.1778  1.5272 -1.7121
  129OSM   C10F13881   2.293   1.182   7.448 -0.6788 -0.3704 -0.3504
  129OSM   H10F13882   2.192   1.179   7.492 -0.1334 -3.2689  0.9470
  129OSM   C11F13883   2.413   1.151   7.538  1.0121 -0.3830 -0.1558
  129OSM   H11F13884   2.427   1.247   7.592  0.3554 -0.6485  0.5071
  129OSM   H11G13885   2.505   1.137   7.478  0.9830 -2.1292  0.1570
  129OSM   C12F13886   2.405   1.030   7.635  0.7876  0.2580  0.3440
  129OSM   H12F13887   2.489   1.023   7.708 -1.0776 -1.2536  2.4910
  129OSM   H12G13888   2.411   0.937   7.576 -2.2453  1.3003 -1.8384
  129OSM   C13F13889   2.269   1.024   7.720 -0.5575  0.3485 -0.2623
  129OSM   H13F13890   2.281   0.944   7.797  1.3706  1.8846  1.1437
  129OSM   H13G13891   2.175   1.001   7.665 -0.7110  0.9944 -0.2733
  129OSM   C14F13892   2.251   1.151   7.811  0.4974 -0.5100  0.1622
  129OSM   H14F13893   2.149   1.148   7.855  0.7656 -2.5626  0.7268
  129OSM   H14G13894   2.245   1.245   7.751 -0.1674 -1.5273 -1.4240
  129OSM   C15F13895   2.357   1.173   7.918 -0.6532  0.4893 -0.4783
  129OSM   H15F13896   2.455   1.191   7.870 -0.3241  0.4099  0.1515
  129OSM   H15G13897   2.369   1.086   7.987 -0.6798 -0.0941 -1.1875
  129OSM   C16F13898   2.307   1.288   8.004  0.2416 -0.2307  0.8167
  129OSM   H16F13899   2.198   1.271   8.018  0.0256 -0.0608 -0.5188
  129OSM   H16G13900   2.312   1.378   7.939 -1.0079  0.0034  1.0127
  129OSM   C17F13901   2.400   1.312   8.125  0.3492 -0.4095 -0.2741
  129OSM   H17F13902   2.481   1.236   8.114 -0.4708 -2.0511  3.4904
  129OSM   H17G13903   2.350   1.275   8.217  0.7244  0.6107  0.3499
  129OSM   C18F13904   2.455   1.452   8.136 -0.0548 -0.1426  0.4590
  129OSM   H18F13905   2.523   1.465   8.049 -0.7077 -1.9223 -0.3504
  129OSM   H18G13906   2.518   1.466   8.227  1.8861 -1.7137 -0.5827
  129OSM   H18H13907   2.376   1.530   8.125 -0.5907 -0.1930  3.2161
  130OSM      N13908   0.057   6.619   6.364  0.5300  0.5731  0.2322
  130OSM    C1513909   0.198   6.639   6.333 -0.3930  0.4814 -0.3086
  130OSM   H15A13910   0.241   6.701   6.411  0.0590 -1.3189  0.9561
  130OSM   H15B13911   0.222   6.676   6.235  1.6588  1.7640  0.5882
  130OSM   H15C13912   0.262   6.552   6.335 -0.2421  0.5221 -2.0799
  130OSM    C1413913   0.056   6.588   6.513 -0.2718  0.4416 -0.5807
  130OSM   H14A13914  -0.040   6.558   6.552 -0.8082  2.2824 -0.3632
  130OSM   H14B13915   0.085   6.663   6.585  1.1397 -0.4193 -0.2179
  130OSM   H14C13916   0.122   6.506   6.537  0.6442  1.1365 -0.6985
  130OSM    C1313917  -0.016   6.745   6.349 -0.1708  0.0948 -0.1086
  130OSM   H13A13918  -0.121   6.720   6.343  0.2036 -1.1739 -3.6600
  130OSM   H13B13919   0.017   6.792   6.258 -0.5028  0.1188 -0.2159
  130OSM   H13C13920   0.010   6.814   6.429  1.1709 -0.3917 -0.0947
  130OSM    C1213921  -0.003   6.504   6.281  0.0322  0.4575 -0.6688
  130OSM   H12A13922   0.048   6.412   6.307 -0.7191  0.0550 -0.5926
  130OSM   H12B13923   0.009   6.522   6.175  2.4957 -0.2678 -0.5872
  130OSM    C1113924  -0.150   6.471   6.316 -0.7183  0.1011 -0.1924
  130OSM   H11A13925  -0.152   6.430   6.420 -2.6591 -2.0923 -0.9831
  130OSM   H11B13926  -0.178   6.386   6.250 -1.6660  0.0174  0.2925
  130OSM      P13927  -0.396   6.565   6.286  0.1859  0.0059 -0.3726
  130OSM    O1313928  -0.456   6.701   6.269  0.0469 -0.4228  0.2702
  130OSM    O1413929  -0.423   6.469   6.180 -0.4434  0.0326  0.5540
  130OSM    O1113930  -0.425   6.506   6.427  0.4643  0.2232  0.0610
  130OSM    O1213931  -0.241   6.580   6.290  0.1888 -0.1045  0.1548
  130OSM    C1S13932  -0.386   6.577   6.543 -0.2905  0.6157 -0.9513
  130OSM    H1S13933  -0.449   6.668   6.551 -0.9780  0.1708 -1.2134
  130OSM    H1T13934  -0.278   6.605   6.541 -0.4133  1.0960 -0.9919
  130OSM     NF13935  -0.401   6.578   6.787  0.3443  0.1161  0.1982
  130OSM    HNF13936  -0.310   6.593   6.824  0.0274  1.1084  0.6109
  130OSM    C2S13937  -0.419   6.494   6.671  0.3978 -0.2460  0.0147
  130OSM    H2S13938  -0.529   6.474   6.666  0.0433  1.5160  0.2749
  130OSM    C3S13939  -0.332   6.367   6.670  0.0934  0.2689  0.4881
  130OSM    H3S13940  -0.227   6.401   6.656  0.5771 -0.7952  1.3598
  130OSM     O313941  -0.364   6.271   6.565  0.2730  0.4629 -0.3438
  130OSM    HO313942  -0.405   6.322   6.495  0.2792 -0.1318 -0.7912
  130OSM    C4S13943  -0.345   6.295   6.799 -0.5317  0.2451 -0.7172
  130OSM    H4S13944  -0.260   6.304   6.868 -0.1457  0.1735 -1.1802
  130OSM    C5S13945  -0.445   6.211   6.838 -0.4340  0.1946 -0.3904
  130OSM    H5S13946  -0.526   6.192   6.765 -0.1810  0.2708 -0.6906
  130OSM    C6S13947  -0.443   6.128   6.962 -0.2236 -0.6647  0.2291
  130OSM    H6S13948  -0.435   6.021   6.933  2.7281  0.2661 -3.1447
  130OSM    H6T13949  -0.543   6.146   7.006 -0.3078 -2.1106  0.6730
  130OSM    C7S13950  -0.341   6.147   7.074 -0.5575  0.4984  0.0225
  130OSM    H7S13951  -0.346   6.254   7.107  0.0895  0.6509 -0.3512
  130OSM    H7T13952  -0.233   6.129   7.054 -0.3940 -0.5267  1.5834
  130OSM    C8S13953  -0.376   6.068   7.202 -0.4682 -0.2012  0.1854
  130OSM    H8S13954  -0.350   5.962   7.181 -0.4990 -0.7121  2.5262
  130OSM    H8T13955  -0.484   6.073   7.224 -0.2203  0.6359  1.2874
  130OSM    C9S13956  -0.300   6.118   7.325 -0.3962  0.4110  0.2404
  130OSM    H9S13957  -0.192   6.118   7.299 -0.4525 -2.0881 -0.2220
  130OSM    H9T13958  -0.317   6.048   7.409 -2.1762  2.6600  1.8878
  130OSM   C10S13959  -0.332   6.263   7.373  0.3467  0.1890 -0.0902
  130OSM   H10S13960  -0.442   6.258   7.383  0.4971 -3.4835  1.5165
  130OSM   H10T13961  -0.298   6.346   7.307  0.1462 -1.3594 -2.2821
  130OSM   C11S13962  -0.277   6.290   7.513  0.0749 -0.0625  0.0351
  130OSM   H11S13963  -0.166   6.286   7.510  0.1135 -5.1117 -1.1074
  130OSM   H11T13964  -0.309   6.211   7.585 -1.3704  1.0312  0.6454
  130OSM   C12S13965  -0.332   6.426   7.569  0.5309 -0.0497  0.3257
  130OSM   H12S13966  -0.441   6.431   7.548  0.4303  0.2584  0.9112
  130OSM   H12T13967  -0.271   6.497   7.509  0.2678 -0.1149 -0.0211
  130OSM   C13S13968  -0.307   6.442   7.719 -0.1169  0.6346  0.3793
  130OSM   H13S13969  -0.302   6.552   7.739  1.0074  0.9018 -1.1928
  130OSM   H13T13970  -0.207   6.397   7.739 -0.7497 -0.9688  0.0276
  130OSM   C14S13971  -0.410   6.378   7.802 -0.4651  0.3238 -0.5349
  130OSM   H14S13972  -0.453   6.291   7.746 -0.2786  0.2218 -0.5196
  130OSM   H14T13973  -0.498   6.446   7.792 -1.7009 -1.1482 -0.1743
  130OSM   C15S13974  -0.366   6.331   7.944 -0.3724  0.0508 -0.5931
  130OSM   H15S13975  -0.302   6.241   7.929 -1.6664 -1.1851  0.9838
  130OSM   H15T13976  -0.462   6.310   7.994 -1.4518  2.4115 -1.5209
  130OSM   C16S13977  -0.298   6.437   8.035 -0.9189 -0.2692 -0.0552
  130OSM   H16S13978  -0.204   6.468   7.985 -1.4372 -0.4463 -1.1815
  130OSM   H16T13979  -0.284   6.384   8.131 -0.1913  0.4208  0.2248
  130OSM   C17S13980  -0.390   6.562   8.055  0.5191 -0.0081 -0.8946
  130OSM   H17S13981  -0.495   6.531   8.072  0.9104 -0.1565  1.6565
  130OSM   H17T13982  -0.388   6.628   7.965 -2.7988  1.0877 -0.2942
  130OSM   C18S13983  -0.333   6.642   8.173  0.3033  0.3230  0.6249
  130OSM   H18S13984  -0.385   6.614   8.267 -1.0706  2.0772  0.4345
  130OSM   H18T13985  -0.350   6.751   8.164  1.9051  0.4742 -1.1327
  130OSM   H18U13986  -0.222   6.631   8.181  0.1196 -0.5954  2.4682
  130OSM    C1F13987  -0.497   6.669   6.823  0.6728  0.2385 -0.0833
  130OSM     OF13988  -0.612   6.662   6.774 -0.3698 -0.4115 -1.1153
  130OSM    C2F13989  -0.458   6.777   6.929 -0.4593  0.3926  0.5740
  130OSM    H2F13990  -0.449   6.874   6.875  1.2494  0.3562  0.7613
  130OSM    H2G13991  -0.357   6.771   6.975  1.6260  1.8925 -3.3866
  130OSM    C3F13992  -0.575   6.781   7.038 -0.5636 -0.1251 -0.2619
  130OSM    H3F13993  -0.672   6.777   6.984 -0.1208 -1.9725 -0.9702
  130OSM    H3G13994  -0.567   6.883   7.082 -0.5875 -0.4270  0.4503
  130OSM    C4F13995  -0.569   6.676   7.146 -0.1201  0.4453 -0.6564
  130OSM    H4F13996  -0.583   6.578   7.095 -1.3822  1.4950 -2.4326
  130OSM    H4G13997  -0.641   6.689   7.230  1.6608  1.1839  0.8219
  130OSM    C5F13998  -0.428   6.670   7.213 -0.1203  0.4531  0.0679
  130OSM    H5F13999  -0.347   6.639   7.143  1.7219  0.4763  2.0633
  130OSM    H5G14000  -0.440   6.593   7.292 -0.7112  0.3273 -0.1454
  130OSM    C6F14001  -0.395   6.804   7.291 -0.3804 -0.1590 -0.1815
  130OSM    H6F14002  -0.480   6.834   7.357  0.6511 -1.1050  1.6823
  130OSM    H6G14003  -0.382   6.875   7.207  1.0401 -0.7618 -0.5047
  130OSM    C7F14004  -0.287   6.782   7.387 -0.2545 -0.4323  0.3748
  130OSM    H7F14005  -0.211   6.740   7.318 -1.8928 -0.6040 -1.4296
  130OSM    H7G14006  -0.324   6.700   7.452 -2.0925  0.1804  0.1718
  130OSM    C8F14007  -0.233   6.910   7.463  0.0791 -0.0537 -0.3888
  130OSM    H8F14008  -0.304   6.964   7.529  0.8982  0.2982  0.2130
  130OSM    H8G14009  -0.205   6.979   7.380  2.2983 -0.9483 -0.4422
  130OSM    C9F14010  -0.110   6.870   7.539 -0.0214  0.0534 -0.0743
  130OSM    H9F14011  -0.020   6.854   7.478  1.6030  1.6542  1.7470
  130OSM   C10F14012  -0.109   6.849   7.667  0.2696 -1.1385 -0.3416
  130OSM   H10F14013  -0.014   6.824   7.718 -0.0897 -0.3101  0.7773
  130OSM   C11F14014  -0.215   6.879   7.770 -0.0495 -0.1855 -0.2551
  130OSM   H11F14015  -0.249   6.783   7.816  0.8277 -0.6121 -0.4650
  130OSM   H11G14016  -0.311   6.907   7.722 -0.2639 -1.2611 -0.4909
  130OSM   C12F14017  -0.185   6.983   7.875  0.8417 -0.0479 -0.0772
  130OSM   H12F14018  -0.269   7.001   7.945  2.1863 -1.6496  2.1022
  130OSM   H12G14019  -0.184   7.074   7.810 -1.2101  0.9301  1.1575
  130OSM   C13F14020  -0.072   6.948   7.972  0.6190 -0.2396 -0.2985
  130OSM   H13F14021   0.012   6.938   7.900  0.4522  1.0805 -0.7051
  130OSM   H13G14022  -0.090   6.857   8.033  0.0185  0.5204  0.6689
  130OSM   C14F14023  -0.053   7.072   8.061  0.6925 -0.2312  0.1385
  130OSM   H14F14024   0.020   7.052   8.142  0.8032  0.4485  0.2156
  130OSM   H14G14025  -0.146   7.106   8.111  0.7286  1.6994 -0.9987
  130OSM   C15F14026   0.006   7.193   7.980  0.1419  0.6296 -0.1934
  130OSM   H15F14027  -0.076   7.233   7.917 -0.2472 -1.3772 -1.0278
  130OSM   H15G14028   0.078   7.152   7.906 -2.1164 -1.1301 -1.5535
  130OSM   C16F14029   0.065   7.309   8.059  0.1443  0.2908 -0.3754
  130OSM   H16F14030   0.150   7.270   8.121 -0.6647  0.0376  0.6061
  130OSM   H16G14031  -0.013   7.341   8.131 -1.7394  0.7942 -2.5426
  130OSM   C17F14032   0.091   7.429   7.974 -0.4813  0.1004  0.3011
  130OSM   H17F14033   0.014   7.450   7.897 -1.0619  0.0740  0.8605
  130OSM   H17G14034   0.178   7.393   7.914 -1.6832 -1.3795 -0.6397
  130OSM   C18F14035   0.130   7.565   8.039  0.3252 -0.3499 -0.1381
  130OSM   H18F14036   0.125   7.651   7.969  0.3290  0.1979  0.5208
  130OSM   H18G14037   0.233   7.557   8.079 -0.1424  0.4221  1.3009
  130OSM   H18H14038   0.059   7.589   8.121 -1.7333  1.1578 -2.2347
  131OSM      N14039   1.131   2.848   6.010 -0.2342 -0.5595  0.0606
  131OSM    C1514040   1.113   2.993   5.984  0.1752 -0.6089  0.1257
  131OSM   H15A14041   1.007   3.014   5.977  0.4840  1.8759  1.7278
  131OSM   H15B14042   1.151   3.026   5.889 -2.3106  1.7351 -0.1764
  131OSM   H15C14043   1.166   3.060   6.050  1.1510 -1.1752 -0.0677
  131OSM    C1414044   1.027   2.773   5.920 -0.0117  1.2841 -0.0470
  131OSM   H14A14045   1.047   2.667   5.913  0.1885  1.3591 -0.6834
  131OSM   H14B14046   1.035   2.813   5.821  0.9130  1.6317  0.1609
  131OSM   H14C14047   0.925   2.787   5.953 -0.0118  0.4365  0.3460
  131OSM    C1314048   1.267   2.812   5.977  0.0348 -0.1803 -0.0844
  131OSM   H13A14049   1.272   2.704   5.974 -1.2228 -0.2431 -0.4486
  131OSM   H13B14050   1.325   2.858   6.056 -0.0862  1.9527 -1.1560
  131OSM   H13C14051   1.311   2.850   5.887 -2.2646  1.5386 -0.5818
  131OSM    C1214052   1.106   2.809   6.153  0.1152  0.7737  0.0291
  131OSM   H12A14053   1.155   2.713   6.164 -1.4854  0.1072  1.8890
  131OSM   H12B14054   1.000   2.795   6.168 -0.0320  2.4014  0.7224
  131OSM    C1114055   1.165   2.896   6.271  0.0806 -0.2083 -0.4759
  131OSM   H11A14056   1.134   2.856   6.370 -0.9277  0.6906 -0.4063
  131OSM   H11B14057   1.135   3.002   6.259  0.6948  0.0775  0.4488
  131OSM      P14058   1.391   2.800   6.347 -0.4290 -0.3534  0.2481
  131OSM    O1314059   1.333   2.665   6.321  0.9481  0.7062  0.1127
  131OSM    O1414060   1.536   2.828   6.321 -0.2598 -0.1267  0.3226
  131OSM    O1114061   1.353   2.846   6.496 -0.0032  0.2583  0.7281
  131OSM    O1214062   1.311   2.902   6.261 -0.2501  0.0098  0.5149
  131OSM    C1S14063   1.363   2.986   6.533  0.6688 -0.4726  0.2595
  131OSM    H1S14064   1.283   3.038   6.476  0.3541  0.0136  1.1293
  131OSM    H1T14065   1.457   3.032   6.497  0.4130 -1.0037 -1.1857
  131OSM     NF14066   1.331   3.157   6.715  0.0620 -0.1812  0.5597
  131OSM    HNF14067   1.414   3.204   6.745 -0.9037  1.0386  1.4442
  131OSM    C2S14068   1.340   3.010   6.684 -0.4006 -0.1720 -0.0157
  131OSM    H2S14069   1.246   2.962   6.722 -1.8747  2.6772  0.1750
  131OSM    C3S14070   1.452   2.927   6.760 -0.2801 -0.5409  0.4696
  131OSM    H3S14071   1.551   2.956   6.720 -0.2462 -1.5491 -0.2077
  131OSM     O314072   1.446   2.784   6.744 -0.3850  0.9212  0.4176
  131OSM    HO314073   1.379   2.752   6.683  0.9774  0.2210 -0.7538
  131OSM    C4S14074   1.452   2.946   6.907 -0.0848 -0.0324 -0.6954
  131OSM    H4S14075   1.365   2.895   6.951 -0.5269 -1.2935 -2.8476
  131OSM    C5S14076   1.540   3.010   6.982 -0.2302  0.7958 -0.6830
  131OSM    H5S14077   1.633   3.053   6.943 -0.2163  0.0406 -1.5064
  131OSM    C6S14078   1.538   3.011   7.135  0.0233 -0.7764  0.5379
  131OSM    H6S14079   1.614   2.940   7.173  1.6703  1.9179  2.7094
  131OSM    H6T14080   1.436   2.972   7.155  0.4771 -1.7238  1.0358
  131OSM    C7S14081   1.560   3.150   7.200 -0.2123  0.1789  1.0551
  131OSM    H7S14082   1.475   3.219   7.179  0.2530  0.0965 -1.2885
  131OSM    H7T14083   1.640   3.205   7.146  0.8020 -1.6383  0.6530
  131OSM    C8S14084   1.570   3.145   7.348 -0.2023 -0.2972 -0.0103
  131OSM    H8S14085   1.593   3.248   7.384  0.8295  0.3053 -2.1774
  131OSM    H8T14086   1.657   3.082   7.376  0.0875 -1.2293 -2.7129
  131OSM    C9S14087   1.435   3.107   7.407 -0.3236 -0.0636 -0.7546
  131OSM    H9S14088   1.405   3.001   7.391  0.1074 -0.3133  0.0788
  131OSM    H9T14089   1.363   3.170   7.349  1.3877  1.4063 -1.3768
  131OSM   C10S14090   1.423   3.127   7.557 -0.6456 -0.5275 -0.1052
  131OSM   H10S14091   1.325   3.091   7.596 -0.3401 -1.5730 -0.2570
  131OSM   H10T14092   1.436   3.236   7.574  1.2760 -0.7768  0.3182
  131OSM   C11S14093   1.531   3.045   7.630 -0.0247  0.6277 -0.1192
  131OSM   H11S14094   1.634   3.070   7.596 -0.3545 -0.1548 -1.7922
  131OSM   H11T14095   1.523   2.937   7.605  0.9113  0.8015 -1.2212
  131OSM   C12S14096   1.509   3.049   7.782  0.6005 -1.1505  0.4522
  131OSM   H12S14097   1.499   3.154   7.817 -2.3726 -0.9843 -0.6723
  131OSM   H12T14098   1.597   3.003   7.832 -0.4937 -1.4106  2.2281
  131OSM   C13S14099   1.389   2.974   7.841 -0.0082 -0.0731 -0.4029
  131OSM   H13S14100   1.373   2.875   7.793  0.0493 -0.4655  0.3774
  131OSM   H13T14101   1.302   3.041   7.823 -0.6287 -0.2060  1.7946
  131OSM   C14S14102   1.407   2.945   7.997 -0.3244 -0.4731  0.5024
  131OSM   H14S14103   1.411   3.045   8.045  1.5059 -0.3435  0.1814
  131OSM   H14T14104   1.510   2.908   8.016  1.3955  3.9165  0.8317
  131OSM   C15S14105   1.297   2.863   8.065 -0.3562  0.2974 -0.4631
  131OSM   H15S14106   1.321   2.756   8.046  3.6811  1.2148 -1.6537
  131OSM   H15T14107   1.195   2.888   8.029 -0.1180  1.2758 -0.4639
  131OSM   C16S14108   1.295   2.873   8.220 -0.2285 -0.5046  1.3233
  131OSM   H16S14109   1.265   2.975   8.252 -0.0300  0.1574 -0.4630
  131OSM   H16T14110   1.401   2.856   8.248  0.1880 -0.2164  0.0006
  131OSM   C17S14111   1.202   2.765   8.289 -0.0499  0.2886  0.4935
  131OSM   H17S14112   1.096   2.795   8.301 -0.0320  0.4818  0.1929
  131OSM   H17T14113   1.233   2.746   8.394  2.0580 -1.3291 -0.3532
  131OSM   C18S14114   1.201   2.627   8.223  0.6120  0.0694  0.1009
  131OSM   H18S14115   1.306   2.593   8.207  0.7116 -1.0812  2.7129
  131OSM   H18T14116   1.150   2.624   8.124 -0.1887  0.7470  0.4878
  131OSM   H18U14117   1.161   2.544   8.284 -0.5481 -0.5431 -1.4179
  131OSM    C1F14118   1.223   3.229   6.678  0.5935  0.2126 -0.6296
  131OSM     OF14119   1.128   3.180   6.619 -0.2067  0.1035  0.5707
  131OSM    C2F14120   1.229   3.376   6.714 -0.4450  0.2171 -0.3078
  131OSM    H2F14121   1.212   3.420   6.613  1.5885 -0.0943 -0.8310
  131OSM    H2G14122   1.331   3.408   6.746 -0.6041 -1.9980  2.8935
  131OSM    C3F14123   1.127   3.405   6.828 -0.3758  0.1645  1.0530
  131OSM    H3F14124   1.028   3.373   6.790  0.7005 -3.4213  0.9151
  131OSM    H3G14125   1.123   3.514   6.849  0.0889  0.7377 -1.5386
  131OSM    C4F14126   1.175   3.340   6.960 -0.2886  0.5023  0.2503
  131OSM    H4F14127   1.285   3.341   6.970 -0.1603 -1.3985 -0.4968
  131OSM    H4G14128   1.148   3.233   6.954 -2.5890  1.1118 -2.0599
  131OSM    C5F14129   1.106   3.410   7.078 -0.6000  0.3479  1.0020
  131OSM    H5F14130   0.997   3.397   7.060 -0.3871 -0.3589  0.1704
  131OSM    H5G14131   1.118   3.521   7.076 -1.7877  0.4832 -0.3102
  131OSM    C6F14132   1.142   3.335   7.208 -0.5053  0.0201  0.0036
  131OSM    H6F14133   1.251   3.352   7.223 -0.9082  2.8763  0.1528
  131OSM    H6G14134   1.115   3.227   7.207  1.5772 -0.5350 -0.7558
  131OSM    C7F14135   1.083   3.397   7.334  0.4165 -0.3620  0.3090
  131OSM    H7F14136   0.976   3.367   7.325 -0.1996  1.5781  0.7376
  131OSM    H7G14137   1.103   3.506   7.327 -0.4378 -0.0317  2.2005
  131OSM    C8F14138   1.131   3.326   7.463 -0.2529 -1.0571  0.3191
  131OSM    H8F14139   1.241   3.345   7.467 -1.0187  4.6615  2.1402
  131OSM    H8G14140   1.111   3.218   7.446 -0.3978 -0.5806 -3.6729
  131OSM    C9F14141   1.082   3.401   7.582  0.0384 -0.2167 -0.6842
  131OSM    H9F14142   1.086   3.509   7.566 -0.3609 -0.2923 -1.3150
  131OSM   C10F14143   1.050   3.354   7.700  0.5209  0.0897 -0.9624
  131OSM   H10F14144   1.014   3.425   7.775  0.4962  0.2107 -1.0896
  131OSM   C11F14145   1.056   3.203   7.726  0.4682 -0.2260 -0.1157
  131OSM   H11F14146   1.145   3.144   7.695  0.7890  0.0849  0.1974
  131OSM   H11G14147   0.964   3.155   7.687  0.7536 -1.2063  0.3809
  131OSM   C12F14148   1.052   3.180   7.878 -0.4670 -0.3750 -0.1622
  131OSM   H12F14149   1.120   3.249   7.934 -0.9904 -0.2387  0.3199
  131OSM   H12G14150   1.093   3.080   7.903 -0.4863  0.1362  2.2431
  131OSM   C13F14151   0.911   3.194   7.931 -0.2183 -0.6781  0.5345
  131OSM   H13F14152   0.842   3.132   7.870 -2.6544  0.5683  1.8663
  131OSM   H13G14153   0.886   3.301   7.914 -0.2537 -0.4360  2.0077
  131OSM   C14F14154   0.895   3.166   8.082 -0.2082 -0.3957 -0.6387
  131OSM   H14F14155   0.984   3.211   8.131 -0.6466  1.0226 -1.0913
  131OSM   H14G14156   0.920   3.058   8.088 -0.9242 -0.6181 -1.4794
  131OSM   C15F14157   0.760   3.215   8.141 -0.2223  0.7589  0.0560
  131OSM   H15F14158   0.687   3.157   8.079 -0.8495  0.8400  0.7079
  131OSM   H15G14159   0.765   3.319   8.101  1.3626  0.6186 -0.1531
  131OSM   C16F14160   0.738   3.216   8.290 -0.0958  0.5742  0.1456
  131OSM   H16F14161   0.829   3.207   8.354 -1.5038  1.1110  2.3270
  131OSM   H16G14162   0.683   3.124   8.318  0.8538 -0.4401 -1.1607
  131OSM   C17F14163   0.647   3.338   8.331 -0.6364  0.6108 -1.0522
  131OSM   H17F14164   0.561   3.359   8.264 -1.6450  0.5035  0.1728
  131OSM   H17G14165   0.715   3.426   8.327  0.9751 -0.6186 -1.2632
  131OSM   C18F14166   0.600   3.325   8.477 -0.7753 -0.2216 -0.1950
  131OSM   H18F14167   0.531   3.240   8.495 -1.7382  1.1015  2.9406
  131OSM   H18G14168   0.540   3.415   8.501  0.3006 -0.2684  3.1148
  131OSM   H18H14169   0.683   3.311   8.549 -1.7293  0.3775  1.0460
  132OSM      N14170   3.553   1.367   5.912 -0.6598 -0.8802 -0.6222
  132OSM    C1514171   3.600   1.493   5.970 -0.7117  0.0640 -0.1918
  132OSM   H15A14172   3.606   1.572   5.896 -3.1117  1.0269  0.5497
  132OSM   H15B14173   3.697   1.489   6.015 -0.0166  0.7242 -1.5787
  132OSM   H15C14174   3.527   1.535   6.038  0.4553  1.7960  0.0310
  132OSM    C1414175   3.414   1.390   5.864 -0.3405  0.9367 -0.3991
  132OSM   H14A14176   3.395   1.476   5.801 -2.1767 -0.7378 -2.2634
  132OSM   H14B14177   3.349   1.392   5.951  0.2998  0.6568  0.0939
  132OSM   H14C14178   3.388   1.306   5.803 -0.7512  1.4283 -0.9095
  132OSM    C1314179   3.644   1.334   5.798  0.0413  0.4598 -0.2799
  132OSM   H13A14180   3.749   1.343   5.825 -0.3384  1.3228  0.9703
  132OSM   H13B14181   3.632   1.398   5.712 -0.7347  0.3344 -0.2683
  132OSM   H13C14182   3.624   1.230   5.775  2.8981  0.2893 -2.7714
  132OSM    C1214183   3.567   1.263   6.026 -0.3567 -0.1784  0.3275
  132OSM   H12A14184   3.669   1.265   6.061  0.0098  4.1680 -0.4210
  132OSM   H12B14185   3.559   1.169   5.974  1.7955 -0.6885  0.8439
  132OSM    C1114186   3.462   1.275   6.139  0.4384 -0.2365 -0.1031
  132OSM   H11A14187   3.469   1.380   6.176  2.3440 -0.6654  0.9305
  132OSM   H11B14188   3.495   1.202   6.215 -0.0532 -1.1752 -0.7804
  132OSM      P14189   3.214   1.268   6.210 -0.1349  0.3177  0.4241
  132OSM    O1314190   3.113   1.349   6.145  0.1941 -0.2971  0.3641
  132OSM    O1414191   3.168   1.136   6.256 -0.2723  0.1874 -0.0112
  132OSM    O1114192   3.290   1.358   6.326  0.0778  0.4107 -0.0162
  132OSM    O1214193   3.330   1.246   6.099 -0.0514 -0.0543  0.3406
  132OSM    C1S14194   3.228   1.358   6.455 -0.5545  0.0361 -0.7127
  132OSM    H1S14195   3.166   1.268   6.474  1.8968 -1.5395  0.4656
  132OSM    H1T14196   3.161   1.446   6.463 -1.5159 -0.6738 -0.7825
  132OSM     NF14197   3.277   1.349   6.708  0.1184  0.2814 -0.7167
  132OSM    HNF14198   3.258   1.417   6.778 -0.6832 -0.1103 -0.5475
  132OSM    C2S14199   3.332   1.375   6.572  0.6681 -0.1358  0.6530
  132OSM    H2S14200   3.409   1.296   6.556 -0.0515 -0.2352 -3.2645
  132OSM    C3S14201   3.404   1.512   6.551 -0.0367  0.3859  0.6842
  132OSM    H3S14202   3.342   1.598   6.582  0.2224  0.5689  0.6970
  132OSM     O314203   3.444   1.537   6.414 -0.1380  0.2726 -0.6498
  132OSM    HO314204   3.423   1.463   6.357 -0.2497  0.7802 -1.2896
  132OSM    C4S14205   3.531   1.522   6.635 -0.3609  0.2016 -0.8919
  132OSM    H4S14206   3.599   1.438   6.654 -0.0555  0.9887  1.9777
  132OSM    C5S14207   3.560   1.641   6.687  0.6481  0.1069 -0.3641
  132OSM    H5S14208   3.490   1.726   6.677 -1.1136 -1.0461  1.2788
  132OSM    C6S14209   3.685   1.665   6.765 -0.1449 -0.4062  0.1171
  132OSM    H6S14210   3.752   1.739   6.717 -0.3661 -1.0907 -1.2941
  132OSM    H6T14211   3.755   1.579   6.764  2.2363  1.4179  0.3193
  132OSM    C7S14212   3.665   1.707   6.911  0.2108 -0.8072 -0.8496
  132OSM    H7S14213   3.600   1.796   6.922  0.1467 -1.0454  0.9125
  132OSM    H7T14214   3.766   1.743   6.942 -0.5155  0.9748 -0.3944
  132OSM    C8S14215   3.633   1.596   7.015 -0.4906 -0.0576  0.4499
  132OSM    H8S14216   3.716   1.523   7.009  0.1156  0.2521  3.3070
  132OSM    H8T14217   3.532   1.557   6.989 -1.0820  2.1154 -0.7801
  132OSM    C9S14218   3.651   1.660   7.154  0.3668 -0.8401  0.2188
  132OSM    H9S14219   3.588   1.748   7.180  0.1132 -0.6825 -0.9124
  132OSM    H9T14220   3.759   1.685   7.163 -0.1363  2.0987 -0.6986
  132OSM   C10S14221   3.630   1.559   7.268  0.7814 -0.3253  0.4795
  132OSM   H10S14222   3.693   1.468   7.255  0.4423 -0.6954  1.4057
  132OSM   H10T14223   3.528   1.519   7.253  1.4723 -1.6722 -0.9943
  132OSM   C11S14224   3.638   1.614   7.414  0.0549  0.2255  0.5352
  132OSM   H11S14225   3.538   1.651   7.443 -2.3034 -0.2831 -5.5691
  132OSM   H11T14226   3.703   1.703   7.399  0.6367  0.1383  2.3290
  132OSM   C12S14227   3.698   1.530   7.525  0.0321  0.3473  0.0135
  132OSM   H12S14228   3.801   1.494   7.503 -0.5165 -1.1454 -0.2525
  132OSM   H12T14229   3.633   1.442   7.544 -1.0391  0.1017 -3.9391
  132OSM   C13S14230   3.731   1.623   7.646 -0.1151  0.6289  0.1666
  132OSM   H13S14231   3.645   1.644   7.713  1.0461 -0.6266  2.1518
  132OSM   H13T14232   3.780   1.718   7.617  1.5208  0.3595  1.8382
  132OSM   C14S14233   3.824   1.552   7.749 -0.4202 -0.3107 -0.4890
  132OSM   H14S14234   3.925   1.539   7.703 -0.3166 -0.5507 -0.1936
  132OSM   H14T14235   3.786   1.454   7.787  0.7577 -0.5564  0.0914
  132OSM   C15S14236   3.845   1.652   7.863 -0.2310  0.3942  0.2250
  132OSM   H15S14237   3.750   1.689   7.907  0.6829  1.2495  1.5680
  132OSM   H15T14238   3.917   1.730   7.827 -0.8089  0.5004 -0.7344
  132OSM   C16S14239   3.925   1.591   7.983  0.0812 -0.3710  0.8599
  132OSM   H16S14240   3.954   1.675   8.050 -0.4538 -1.2499  2.2519
  132OSM   H16T14241   4.007   1.519   7.964  0.7864  0.5368  0.3353
  132OSM   C17S14242   3.839   1.509   8.077 -0.2732  0.3237 -0.1713
  132OSM   H17S14243   3.801   1.419   8.024 -0.4091  1.3792 -1.9253
  132OSM   H17T14244   3.750   1.575   8.087  0.3256  1.6833 -2.8783
  132OSM   C18S14245   3.894   1.466   8.213  0.7637 -0.6686  0.1019
  132OSM   H18S14246   3.963   1.379   8.208  0.9567 -0.5970  1.3651
  132OSM   H18T14247   3.810   1.449   8.283  2.3252  1.3459  2.6220
  132OSM   H18U14248   3.955   1.550   8.251  1.4152 -0.1090 -2.0430
  132OSM    C1F14249   3.234   1.222   6.735 -0.8671 -0.4109  0.0412
  132OSM     OF14250   3.264   1.131   6.665 -0.0639 -0.1803 -0.4967
  132OSM    C2F14251   3.146   1.203   6.858 -0.4119 -1.0394  0.6895
  132OSM    H2F14252   3.084   1.118   6.820  2.4665 -1.6870 -3.1099
  132OSM    H2G14253   3.097   1.300   6.883  0.7341  0.7378 -3.1400
  132OSM    C3F14254   3.223   1.143   6.971  0.1912  0.1915  0.2106
  132OSM    H3F14255   3.278   1.054   6.935 -0.0957  0.5592 -1.1688
  132OSM    H3G14256   3.147   1.117   7.048 -2.4083 -0.7117 -2.4813
  132OSM    C4F14257   3.334   1.239   7.028  0.4434  0.4250 -0.2588
  132OSM    H4F14258   3.397   1.261   6.939 -2.0844  1.1213 -2.0062
  132OSM    H4G14259   3.397   1.178   7.096  0.5626 -1.1135 -1.6688
  132OSM    C5F14260   3.280   1.362   7.100  0.2302 -0.0353  0.3980
  132OSM    H5F14261   3.204   1.412   7.036  0.9275  2.3165  1.2880
  132OSM    H5G14262   3.365   1.432   7.116  0.6497 -0.3755 -0.2774
  132OSM    C6F14263   3.212   1.333   7.236  0.2407 -0.0543  0.1785
  132OSM    H6F14264   3.126   1.264   7.226  0.9155 -1.0114  0.8188
  132OSM    H6G14265   3.170   1.429   7.273  1.3808  0.8501 -0.8002
  132OSM    C7F14266   3.314   1.289   7.339 -0.1021  0.3058 -0.3704
  132OSM    H7F14267   3.382   1.374   7.361  1.2004 -0.8859  0.3489
  132OSM    H7G14268   3.371   1.205   7.294 -1.1276 -0.0423 -1.0510
  132OSM    C8F14269   3.260   1.250   7.480  0.6377 -0.3384 -0.3573
  132OSM    H8F14270   3.336   1.195   7.539 -0.1882 -2.7549 -1.4359
  132OSM    H8G14271   3.163   1.197   7.466  1.3952 -1.4208 -1.7656
  132OSM    C9F14272   3.224   1.380   7.551 -0.7641  0.0054 -0.8336
  132OSM    H9F14273   3.147   1.436   7.497 -0.6333  0.6785 -0.3360
  132OSM   C10F14274   3.291   1.431   7.663  0.6651  0.5988 -0.4640
  132OSM   H10F14275   3.246   1.526   7.697 -1.8105 -1.1314  1.5128
  132OSM   C11F14276   3.408   1.380   7.746  0.3059 -0.0553  0.8443
  132OSM   H11F14277   3.485   1.460   7.752 -2.3717  2.7392  0.3547
  132OSM   H11G14278   3.453   1.291   7.697 -0.1382 -0.3902  1.0480
  132OSM   C12F14279   3.356   1.326   7.884  0.1442  0.0948  0.2245
  132OSM   H12F14280   3.284   1.400   7.924 -1.0737 -1.1183  0.3441
  132OSM   H12G14281   3.445   1.317   7.951  0.2649 -2.3865 -0.1649
  132OSM   C13F14282   3.279   1.197   7.867 -0.4917  0.3579 -0.4636
  132OSM   H13F14283   3.349   1.132   7.810  0.4099  2.3213 -1.7087
  132OSM   H13G14284   3.187   1.216   7.807 -0.6537  4.2701  0.7368
  132OSM   C14F14285   3.237   1.148   7.996  0.7125  0.0381 -0.5611
  132OSM   H14F14286   3.168   1.065   7.973 -0.9920  0.6602  1.8784
  132OSM   H14G14287   3.180   1.224   8.053  0.2998  0.0956 -1.0506
  132OSM   C15F14288   3.359   1.089   8.079  0.2365  0.4364  0.3462
  132OSM   H15F14289   3.434   1.169   8.096 -0.0514  1.4002 -2.3576
  132OSM   H15G14290   3.408   1.004   8.026 -1.3522  0.1995 -0.8036
  132OSM   C16F14291   3.315   1.043   8.215  0.0941  0.1505 -0.5868
  132OSM   H16F14292   3.236   0.965   8.207 -0.9506  1.0132  0.9182
  132OSM   H16G14293   3.270   1.136   8.256 -1.6488 -0.1306 -1.7134
  132OSM   C17F14294   3.419   1.005   8.322  0.7632  0.5487  0.6490
  132OSM   H17F14295   3.499   1.081   8.323  1.8238 -0.4692 -1.3242
  132OSM   H17G14296   3.456   0.903   8.296 -1.9906  0.1738 -2.3146
  132OSM   C18F14297   3.351   0.988   8.461 -0.4005  0.5169  0.4673
  132OSM   H18F14298   3.269   0.914   8.449  0.6243 -0.4471 -0.9976
  132OSM   H18G14299   3.304   1.084   8.491  1.9342  1.3648  1.6349
  132OSM   H18H14300   3.423   0.950   8.537 -0.9426  0.3567  0.9118
  133SAPE     N14301   5.537   1.382  10.850  0.4222  0.0111  0.9514
  133SAPE   HN114302   5.513   1.354  10.753 -1.3521 -0.9744  1.6304
  133SAPE   HN214303   5.534   1.486  10.846  0.2200 -0.0075  0.6019
  133SAPE   HN314304   5.625   1.336  10.881  0.4827  1.0663  2.4498
  133SAPE   C1214305   5.421   1.339  10.939 -0.1629  0.1335  0.4026
  133SAPE  H12A14306   5.437   1.345  11.049 -2.3479 -0.6884  0.8082
  133SAPE  H12B14307   5.405   1.230  10.929  1.0461 -0.0243  0.0567
  133SAPE   C1114308   5.289   1.400  10.897 -0.0276  0.0949 -0.5138
  133SAPE  H11A14309   5.304   1.507  10.874  1.1601  0.0274 -0.1093
  133SAPE  H11B14310   5.209   1.402  10.973 -2.5446  0.7848 -3.0099
  133SAPE     P14311   5.262   1.372  10.643  0.1103  0.3058 -0.0976
  133SAPE   O1314312   5.197   1.504  10.613 -0.0990  0.1040  0.2572
  133SAPE   O1414313   5.404   1.375  10.615 -0.5558  0.2978 -0.4920
  133SAPE   O1214314   5.236   1.327  10.789 -0.5487 -0.5203  0.3158
  133SAPE   O1114315   5.192   1.257  10.558 -0.7489  0.2810  0.1429
  133SAPE    C114316   5.085   1.184  10.591  0.8602  0.5651  0.1542
  133SAPE    HA14317   5.113   1.077  10.597  1.0382  0.6531  1.1403
  133SAPE    HB14318   5.043   1.203  10.692  1.5207  0.2039  0.5051
  133SAPE    C214319   4.984   1.202  10.481  0.3581  0.4274  0.0446
  133SAPE    HS14320   4.899   1.137  10.512  0.5790  0.6972  1.2991
  133SAPE   O2114321   5.035   1.152  10.350 -0.3101 -0.3698  0.2242
  133SAPE   C2114322   5.034   1.021  10.332 -0.9149 -0.2231  0.0650
  133SAPE   O2214323   4.992   0.943  10.410  0.1866  0.7883 -0.1658
  133SAPE   C2214324   5.093   0.988  10.198  0.1433  0.1188 -0.6366
  133SAPE   H2R14325   5.185   1.047  10.184  0.6898 -0.7213 -0.6540
  133SAPE   H2S14326   5.114   0.879  10.196 -0.1113  0.0317  0.4796
  133SAPE    C314327   4.946   1.351  10.466 -0.3899 -0.3952 -0.4332
  133SAPE    HX14328   5.037   1.404  10.432 -0.6033 -0.3981 -1.0272
  133SAPE    HY14329   4.928   1.389  10.568  1.7393  0.5041 -0.3546
  133SAPE   O3114330   4.838   1.381  10.374 -0.5562  0.5272 -0.1892
  133SAPE   C3114331   4.716   1.339  10.412  0.2109  0.2292 -0.0745
  133SAPE   O3214332   4.691   1.275  10.512  0.9956  0.6138  0.1614
  133SAPE   C3214333   4.611   1.407  10.326  0.3277  0.0827 -0.3241
  133SAPE   H2X14334   4.656   1.476  10.251 -1.8925  0.0192 -1.7910
  133SAPE   H2Y14335   4.549   1.469  10.395  0.2606 -0.3381 -0.0072
  133SAPE   C2314336   4.998   1.018  10.072  0.0435 -0.0143 -0.0947
  133SAPE   H3R14337   4.979   1.128  10.070  1.0271  0.1535 -0.3555
  133SAPE   H3S14338   4.894   0.978  10.075 -0.4460  1.2250  0.7706
  133SAPE   C2414339   5.066   0.982   9.941  0.4803  0.4466  0.0752
  133SAPE   H4R14340   5.070   0.872   9.927 -0.4413  0.1434  1.9031
  133SAPE   H4S14341   5.168   1.020   9.958  1.1606 -0.7537 -1.1431
  133SAPE   C2514342   5.000   1.042   9.822  0.1847 -0.7478 -0.4576
  133SAPE   H5R14343   4.890   1.040   9.817 -0.3016  4.1042  2.4364
  133SAPE   C2614344   5.060   1.066   9.705  0.5637 -0.9269  0.6322
  133SAPE   H6R14345   5.002   1.115   9.625  0.9848  0.8658  1.3876
  133SAPE   C2714346   5.209   1.075   9.675 -0.3857 -0.2304 -0.2933
  133SAPE   H7R14347   5.270   1.002   9.733 -0.0499  1.8237  2.0447
  133SAPE   H7S14348   5.251   1.175   9.698 -0.9456  0.2080 -1.0889
  133SAPE   C2814349   5.236   1.052   9.526 -0.3705  0.3364  1.2348
  133SAPE   H8R14350   5.258   0.951   9.489  1.7677  1.4511 -0.8565
  133SAPE   C2914351   5.241   1.142   9.426  0.6767  0.1723  0.3603
  133SAPE   H9R14352   5.271   1.112   9.325 -0.6346 -2.1432  0.5797
  133SAPE  C21014353   5.232   1.291   9.447  0.1029 -0.0761 -0.0091
  133SAPE  H10R14354   5.189   1.315   9.547 -1.2396 -2.6033  0.1017
  133SAPE  H10S14355   5.163   1.337   9.373  1.1513 -0.2202 -1.1110
  133SAPE  C21114356   5.369   1.346   9.431  0.9087  0.6776  0.1249
  133SAPE  H11R14357   5.417   1.350   9.530 -1.4267  0.3518  1.3389
  133SAPE  C21214358   5.431   1.393   9.323 -0.4712 -0.2142  0.2219
  133SAPE  H12R14359   5.537   1.421   9.333 -0.4328 -0.7529  1.6003
  133SAPE  C21314360   5.388   1.403   9.180  0.1696  0.0855 -0.3714
  133SAPE  H13R14361   5.307   1.331   9.155 -1.1415  1.0380  1.0135
  133SAPE  H13S14362   5.480   1.372   9.124  1.1339  1.6552  0.2663
  133SAPE  C21414363   5.335   1.534   9.152  0.1750 -0.2262  0.1909
  133SAPE  H14R14364   5.306   1.608   9.228  0.8542  1.5603 -1.2166
  133SAPE  C21514365   5.320   1.577   9.024  0.5581  0.6269 -0.4848
  133SAPE  H15R14366   5.295   1.678   8.989  0.1242  0.5268 -0.4800
  133SAPE  C21614367   5.347   1.491   8.907 -0.2342  0.1291 -0.4556
  133SAPE  H16R14368   5.349   1.381   8.918 -1.0501 -0.0083 -1.4549
  133SAPE  H16S14369   5.444   1.518   8.860  0.3837 -0.3605  0.5175
  133SAPE  C21714370   5.233   1.525   8.810 -0.2080  0.4128  0.4427
  133SAPE  H17R14371   5.252   1.626   8.768 -0.7528  0.5517  0.5158
  133SAPE  H17S14372   5.138   1.518   8.867 -0.3668 -1.3044  0.0394
  133SAPE  C21814373   5.208   1.429   8.686  0.3025  0.0926  0.1847
  133SAPE  H18R14374   5.180   1.332   8.731  3.6013 -0.7248  0.7116
  133SAPE  H18S14375   5.309   1.433   8.639 -0.8047 -0.5979 -2.4083
  133SAPE  C21914376   5.092   1.473   8.589  0.5090 -0.3907 -0.5649
  133SAPE  H19R14377   5.120   1.576   8.556  0.3468 -0.2662 -0.3220
  133SAPE  H19S14378   5.002   1.475   8.654  0.1640 -0.2405 -1.0459
  133SAPE  C22014379   5.078   1.380   8.470  0.1879  0.1434  0.4331
  133SAPE  H20R14380   5.004   1.427   8.402  0.6130  0.5470  0.2384
  133SAPE  H20S14381   5.034   1.285   8.505  1.2736 -1.2847 -1.8581
  133SAPE  H20T14382   5.169   1.346   8.416 -1.4885 -0.4277 -2.2552
  133SAPE   C3314383   4.522   1.311  10.261  0.1950  0.3482  0.1566
  133SAPE   H3X14384   4.426   1.355  10.226 -0.7532 -2.7148 -1.4640
  133SAPE   H3Y14385   4.499   1.228  10.331  0.1330  0.7643  0.6346
  133SAPE   C3414386   4.582   1.248  10.135 -1.0070 -1.1804  0.4174
  133SAPE   H4X14387   4.648   1.165  10.166  2.8044  0.3238 -2.7998
  133SAPE   H4Y14388   4.659   1.316  10.092 -0.3961 -1.4348  1.0895
  133SAPE   C3514389   4.483   1.207  10.033 -0.1501 -0.2783 -0.9441
  133SAPE   H5X14390   4.406   1.286  10.024 -1.2237 -0.7153  2.6849
  133SAPE   H5Y14391   4.432   1.112  10.061  0.9906 -0.4139  0.8755
  133SAPE   C3614392   4.554   1.188   9.902 -0.1412  0.0740  0.2106
  133SAPE   H6X14393   4.633   1.112   9.924  2.3411  2.2372 -0.7299
  133SAPE   H6Y14394   4.602   1.282   9.869 -1.0662  0.0781 -1.1761
  133SAPE   C3714395   4.463   1.147   9.783 -0.3976  0.1650 -0.1353
  133SAPE   H7X14396   4.402   1.237   9.762 -0.8315  0.3018  1.5769
  133SAPE   H7Y14397   4.394   1.065   9.813 -1.1980  0.7445 -0.3527
  133SAPE   C3814398   4.546   1.093   9.661  0.2558 -0.1527 -0.2170
  133SAPE   H8X14399   4.471   1.060   9.586 -2.4979  2.8547  0.9986
  133SAPE   H8Y14400   4.608   1.006   9.693  0.2250 -0.2152 -0.3257
  133SAPE   C3914401   4.650   1.178   9.592  0.4870 -0.4982  0.0117
  133SAPE   H9X14402   4.733   1.217   9.656  1.3718 -0.4632 -1.1242
  133SAPE   H9Y14403   4.595   1.263   9.547 -1.0861  0.2172  3.0091
  133SAPE  C31014404   4.718   1.099   9.480  0.1451  0.3096 -0.8384
  133SAPE  H10X14405   4.762   1.002   9.511  0.5808  0.0634 -2.1881
  133SAPE  H10Y14406   4.792   1.172   9.441  2.6781 -1.5872  0.1482
  133SAPE  C31114407   4.611   1.072   9.377 -0.8774  0.7558  1.3437
  133SAPE  H11X14408   4.537   1.150   9.348 -0.3836  1.4759  1.9749
  133SAPE  H11Y14409   4.553   0.981   9.402  1.3768 -0.5367  2.1648
  133SAPE  C31214410   4.678   1.032   9.241  0.2277 -0.2850  0.3034
  133SAPE  H12X14411   4.724   0.934   9.264  3.1702  1.0083  0.3275
  133SAPE  H12Y14412   4.746   1.118   9.221 -1.3775  1.7181  2.7473
  133SAPE  C31314413   4.572   1.026   9.129 -0.5205 -0.0664 -0.3525
  133SAPE  H13X14414   4.504   1.113   9.126 -2.0392 -1.1732  0.2596
  133SAPE  H13Y14415   4.505   0.940   9.151  0.8655 -1.4010 -1.1530
  133SAPE  C31414416   4.636   0.977   9.000  0.0731 -0.4972  0.1311
  133SAPE  H14X14417   4.676   0.874   9.018  0.6317 -0.2401  0.3910
  133SAPE  H14Y14418   4.726   1.036   8.972 -0.4906  1.1161  1.5676
  133SAPE  C31514419   4.529   0.964   8.891  0.0056 -0.0349  0.9271
  133SAPE  H15X14420   4.499   1.067   8.860  2.6369  0.4661 -0.2478
  133SAPE  H15Y14421   4.443   0.909   8.934 -1.8051  1.3185 -0.7425
  133SAPE  C31614422   4.573   0.870   8.772  0.4757 -0.5322  0.1790
  133SAPE  H16X14423   4.487   0.841   8.708  0.2335 -3.4750  1.6498
  133SAPE  H16Y14424   4.597   0.770   8.814  1.8759 -1.0808 -1.8096
  133SAPE  C31714425   4.693   0.905   8.697 -0.2401 -0.3364  0.5576
  133SAPE  H17X14426   4.777   0.867   8.759 -0.4535  0.3751  1.2958
  133SAPE  H17Y14427   4.697   1.016   8.695  0.2267 -0.3459  0.8871
  133SAPE  C31814428   4.704   0.848   8.550 -0.1676 -0.0399 -0.7390
  133SAPE  H18X14429   4.653   0.911   8.475 -0.0046  2.7134  1.2939
  133SAPE  H18Y14430   4.672   0.741   8.548  1.1693 -0.4564 -0.5623
  133SAPE  H18Z14431   4.812   0.847   8.528  0.4306 -0.6399  1.8529
  134SAPE     N14432   5.160   1.751  10.684 -0.2566 -0.8355  0.2018
  134SAPE   HN114433   5.077   1.775  10.741  0.2568 -0.6371  0.8809
  134SAPE   HN214434   5.148   1.783  10.586  0.5493  1.3327  0.7574
  134SAPE   HN314435   5.172   1.647  10.686 -3.4641 -1.3170 -0.9179
  134SAPE   C1214436   5.274   1.825  10.739  0.1872  0.1822 -0.2125
  134SAPE  H12A14437   5.326   1.776  10.824 -0.8526 -0.0076  0.3297
  134SAPE  H12B14438   5.225   1.911  10.791 -0.7785 -0.0438 -0.7303
  134SAPE   C1114439   5.371   1.877  10.633 -0.4523 -0.5230  0.5508
  134SAPE  H11A14440   5.426   1.969  10.661 -2.5777  1.1763 -0.5698
  134SAPE  H11B14441   5.311   1.919  10.549  2.0118  1.3437 -0.4037
  134SAPE     P14442   5.594   1.739  10.672 -0.5910  0.0472 -0.0275
  134SAPE   O1314443   5.682   1.857  10.692 -0.1038  0.3598  0.2941
  134SAPE   O1414444   5.564   1.653  10.796 -0.3689 -0.8087  0.2624
  134SAPE   O1214445   5.469   1.780  10.586 -0.1099  0.2185 -0.9424
  134SAPE   O1114446   5.682   1.648  10.583  0.3476  0.0059  0.0667
  134SAPE    C114447   5.617   1.550  10.500 -0.8064 -0.3234 -0.5252
  134SAPE    HA14448   5.628   1.450  10.547  0.3977  0.8558  1.8518
  134SAPE    HB14449   5.509   1.569  10.482 -1.0485  0.8883  1.8786
  134SAPE    C214450   5.688   1.547  10.358  1.1733 -0.0477 -0.1280
  134SAPE    HS14451   5.787   1.503  10.384  1.3073 -0.4388 -1.2319
  134SAPE   O2114452   5.689   1.683  10.301  0.6207 -0.2269  0.4476
  134SAPE   C2114453   5.761   1.694  10.205  0.6876  0.2851  0.2996
  134SAPE   O2214454   5.847   1.613  10.163  0.5096  0.3697 -0.0127
  134SAPE   C2214455   5.738   1.823  10.122 -0.6358  0.5979  0.2199
  134SAPE   H2R14456   5.647   1.810  10.059 -1.0347 -0.9022  1.0558
  134SAPE   H2S14457   5.719   1.912  10.185 -2.1823  1.1134 -0.9100
  134SAPE    C314458   5.607   1.450  10.263 -0.0300 -0.0595 -1.4124
  134SAPE    HX14459   5.581   1.359  10.322  0.9167  1.2609  1.1988
  134SAPE    HY14460   5.664   1.417  10.173 -0.3176 -0.2440 -1.5274
  134SAPE   O3114461   5.475   1.512  10.240 -0.0353  0.4805  0.2913
  134SAPE   C3114462   5.380   1.432  10.204  0.3030  0.2300 -0.6235
  134SAPE   O3214463   5.386   1.311  10.193 -0.0670  0.3245 -0.7084
  134SAPE   C3214464   5.250   1.509  10.182  0.0490 -0.2259  0.1815
  134SAPE   H2X14465   5.270   1.608  10.136 -0.8097  0.4443  1.2010
  134SAPE   H2Y14466   5.215   1.528  10.286 -0.3571 -0.8249  0.1579
  134SAPE   C2314467   5.864   1.841  10.029 -0.1262  0.6883  0.3229
  134SAPE   H3R14468   5.845   1.778   9.940  0.8510  1.7212 -0.6514
  134SAPE   H3S14469   5.956   1.799  10.075  0.6643  0.3279 -1.5153
  134SAPE   C2414470   5.898   1.980   9.986  0.1482  0.3214  0.2254
  134SAPE   H4R14471   6.005   1.981   9.956 -0.2886  3.0767 -1.6891
  134SAPE   H4S14472   5.890   2.051  10.071  1.0154  1.2151 -0.4086
  134SAPE   C2514473   5.807   2.025   9.873  0.4858 -0.4151  0.1256
  134SAPE   H5R14474   5.702   1.994   9.878 -0.2484  1.9353  0.3501
  134SAPE   C2614475   5.840   2.086   9.749  0.6105  0.6181 -0.2195
  134SAPE   H6R14476   5.756   2.111   9.682  0.1161 -1.6186 -0.5191
  134SAPE   C2714477   5.983   2.121   9.709  0.0945  0.3473  0.3301
  134SAPE   H7R14478   6.022   2.044   9.639 -0.7999 -0.9179  1.1725
  134SAPE   H7S14479   6.054   2.122   9.795  1.2137 -0.8680 -0.5390
  134SAPE   C2814480   5.988   2.255   9.645 -0.5896 -0.5772  0.2794
  134SAPE   H8R14481   6.022   2.335   9.711 -1.5471 -0.1442  0.2589
  134SAPE   C2914482   5.969   2.280   9.518 -0.8480  0.6816  0.3664
  134SAPE   H9R14483   5.972   2.381   9.474 -2.8120  0.3721 -0.5898
  134SAPE  C21014484   5.937   2.180   9.408 -0.0874 -0.6583  0.2528
  134SAPE  H10R14485   5.854   2.216   9.343  0.6707  1.3389  0.3264
  134SAPE  H10S14486   5.915   2.077   9.444 -1.9876 -0.0909  0.8040
  134SAPE  C21114487   6.059   2.185   9.325 -0.0071 -0.6366  0.0235
  134SAPE  H11R14488   6.110   2.281   9.306  0.1191 -0.8522 -0.7570
  134SAPE  C21214489   6.121   2.081   9.272 -0.8576  0.1949 -0.0947
  134SAPE  H12R14490   6.213   2.111   9.220 -0.3503  1.1795  1.2922
  134SAPE  C21314491   6.078   1.936   9.270 -0.4296  0.3675 -0.1587
  134SAPE  H13R14492   5.971   1.924   9.243 -0.2898 -1.3146 -0.0452
  134SAPE  H13S14493   6.062   1.895   9.372 -2.4844 -1.1118 -1.0151
  134SAPE  C21414494   6.175   1.851   9.184 -0.6183 -0.7578 -0.5612
  134SAPE  H14R14495   6.159   1.862   9.075  0.5036 -1.0605 -0.7660
  134SAPE  C21514496   6.277   1.780   9.238  0.1654  0.2665  0.5990
  134SAPE  H15R14497   6.346   1.724   9.173  0.2847  0.2184  0.7688
  134SAPE  C21614498   6.296   1.769   9.383  0.6352 -0.5299 -0.9191
  134SAPE  H16R14499   6.285   1.867   9.433  0.3883 -2.6586  3.7551
  134SAPE  H16S14500   6.396   1.728   9.411  0.8171  0.0958 -0.6399
  134SAPE  C21714501   6.181   1.700   9.461  0.0280 -0.1076 -0.4408
  134SAPE  H17R14502   6.204   1.594   9.487 -1.8094 -0.7848 -1.3964
  134SAPE  H17S14503   6.082   1.693   9.411 -0.4710 -1.4582  0.6584
  134SAPE  C21814504   6.150   1.767   9.592 -0.4665  0.3569  0.7636
  134SAPE  H18R14505   6.084   1.855   9.573  0.1024  1.1142  2.1613
  134SAPE  H18S14506   6.250   1.805   9.623  0.5945 -2.0322  0.4633
  134SAPE  C21914507   6.082   1.671   9.685  0.3229 -0.1446 -0.1760
  134SAPE  H19R14508   6.101   1.692   9.793  0.5509  0.0306 -0.2489
  134SAPE  H19S14509   6.110   1.565   9.672 -0.1075 -0.1115 -1.5061
  134SAPE  C22014510   5.928   1.677   9.660  0.7041 -0.0444  0.7596
  134SAPE  H20R14511   5.864   1.611   9.722 -0.5904  0.0615 -0.4112
  134SAPE  H20S14512   5.895   1.659   9.556 -0.8217  2.6518  0.6899
  134SAPE  H20T14513   5.894   1.781   9.681  1.3877 -0.0547  1.9921
  134SAPE   C3314514   5.153   1.412  10.105 -0.5035  0.6449 -0.7563
  134SAPE   H3X14515   5.052   1.454  10.125 -1.7892 -1.6221 -2.0203
  134SAPE   H3Y14516   5.155   1.306  10.140  1.3089  0.6350 -0.8082
  134SAPE   C3414517   5.166   1.396   9.949 -0.2417  0.5237 -0.1033
  134SAPE   H4X14518   5.109   1.306   9.918  1.2907 -0.6101  0.2722
  134SAPE   H4Y14519   5.270   1.364   9.927 -0.4609 -1.0973  1.0173
  134SAPE   C3514520   5.131   1.529   9.883  1.2677 -0.1429 -0.1800
  134SAPE   H5X14521   5.194   1.613   9.921 -0.3667  1.2324 -0.3648
  134SAPE   H5Y14522   5.032   1.559   9.924  0.5576 -0.8405 -1.3487
  134SAPE   C3614523   5.108   1.519   9.735  0.3493 -0.2408  1.1004
  134SAPE   H6X14524   5.045   1.430   9.717 -0.0925  0.4191 -0.8360
  134SAPE   H6Y14525   5.208   1.501   9.689 -0.2305  2.7447 -1.6815
  134SAPE   C3714526   5.072   1.643   9.654  0.4335 -0.3673 -0.7976
  134SAPE   H7X14527   5.153   1.714   9.682 -0.3757  0.6089 -0.8500
  134SAPE   H7Y14528   4.977   1.693   9.685  1.7088  1.9578 -0.3588
  134SAPE   C3814529   5.070   1.615   9.510 -0.1365 -1.1364  0.0804
  134SAPE   H8X14530   5.041   1.508   9.502 -1.5016 -0.7244 -0.7204
  134SAPE   H8Y14531   5.174   1.625   9.471 -0.4702 -0.2334 -0.6141
  134SAPE   C3914532   4.983   1.719   9.426 -0.0664 -0.0779  0.0943
  134SAPE   H9X14533   5.038   1.816   9.436  1.6262 -1.1812  2.9659
  134SAPE   H9Y14534   4.878   1.731   9.459  0.3898  0.6099  1.4040
  134SAPE  C31014535   4.978   1.688   9.272  0.2695  0.4024  0.1435
  134SAPE  H10X14536   4.919   1.595   9.264 -1.8080  1.5509  1.4108
  134SAPE  H10Y14537   5.078   1.657   9.234 -0.2896  0.4415 -1.4415
  134SAPE  C31114538   4.929   1.814   9.190 -0.3427 -0.4197  0.4650
  134SAPE  H11X14539   4.979   1.906   9.227  0.4817 -0.4337 -0.5613
  134SAPE  H11Y14540   4.821   1.833   9.211  0.3582  1.2189  2.9525
  134SAPE  C31214541   4.954   1.805   9.038  0.3309 -0.1678 -0.0244
  134SAPE  H12X14542   4.916   1.708   9.000  0.9993  0.1423 -1.5814
  134SAPE  H12Y14543   5.065   1.808   9.031  0.3179 -0.7007 -0.5172
  134SAPE  C31314544   4.881   1.916   8.963  0.1437  0.3300 -0.7615
  134SAPE  H13X14545   4.923   2.008   9.008 -0.4720  0.2845 -0.0606
  134SAPE  H13Y14546   4.772   1.920   8.986  0.1311  2.2703 -0.9918
  134SAPE  C31414547   4.902   1.921   8.813  0.1763  0.3625  0.3503
  134SAPE  H14X14548   5.012   1.909   8.804  0.0733  0.1964 -0.8352
  134SAPE  H14Y14549   4.876   2.022   8.775 -1.8574 -0.0797  0.4646
  134SAPE  C31514550   4.845   1.808   8.729  0.4163  0.2694  0.7453
  134SAPE  H15X14551   4.736   1.805   8.748  0.3119 -2.4169  0.0857
  134SAPE  H15Y14552   4.882   1.710   8.767 -1.7717 -1.3912 -1.1400
  134SAPE  C31614553   4.876   1.821   8.578 -0.0666 -0.2901  0.0830
  134SAPE  H16X14554   4.980   1.828   8.540 -0.4546 -0.2574 -1.0363
  134SAPE  H16Y14555   4.827   1.913   8.538  0.4139 -1.0018 -2.3109
  134SAPE  C31714556   4.806   1.701   8.502 -0.8842  0.4502 -0.6983
  134SAPE  H17X14557   4.735   1.654   8.573 -0.1195  1.0282  0.4744
  134SAPE  H17Y14558   4.878   1.619   8.485 -1.3571  0.1270 -1.1568
  134SAPE  C31814559   4.724   1.737   8.382 -0.2154  0.5951  0.6410
  134SAPE  H18X14560   4.683   1.652   8.324 -1.7988  0.8720  1.3087
  134SAPE  H18Y14561   4.799   1.789   8.319  0.2867 -1.0210 -0.1435
  134SAPE  H18Z14562   4.644   1.805   8.420 -0.8410  0.7512 -0.9142
  135SAPE     N14563   0.702   4.577  10.931  0.8866 -0.3474  0.4501
  135SAPE   HN114564   0.767   4.505  10.968  0.4452 -2.0614 -1.8520
  135SAPE   HN214565   0.698   4.553  10.830 -0.2816  3.2109 -0.5043
  135SAPE   HN314566   0.734   4.676  10.941  1.7010 -0.4871 -0.5571
  135SAPE   C1214567   0.572   4.551  11.003  0.8335 -0.5937  0.4109
  135SAPE  H12A14568   0.565   4.617  11.091 -0.1474  0.8580 -0.7072
  135SAPE  H12B14569   0.565   4.442  11.022  1.5742 -0.6399  0.4252
  135SAPE   C1114570   0.453   4.598  10.916  0.4146 -0.2911  0.4157
  135SAPE  H11A14571   0.360   4.578  10.975 -0.4414 -1.7023 -1.3072
  135SAPE  H11B14572   0.441   4.524  10.834  2.1063  0.0486 -0.1655
  135SAPE     P14573   0.353   4.817  10.812  0.0523 -0.1309 -0.1891
  135SAPE   O1314574   0.260   4.860  10.917 -0.0487  0.3418 -0.0128
  135SAPE   O1414575   0.406   4.934  10.740 -0.2260  0.2187  0.5553
  135SAPE   O1214576   0.469   4.732  10.880 -0.0721 -0.3324  0.4420
  135SAPE   O1114577   0.274   4.727  10.712 -0.1562 -0.3044  0.4992
  135SAPE    C114578   0.343   4.645  10.606  0.3938 -1.0541 -0.8384
  135SAPE    HA14579   0.454   4.654  10.609  0.5174 -2.5824  0.2556
  135SAPE    HB14580   0.323   4.537  10.623 -0.2077 -0.9614 -0.9428
  135SAPE    C214581   0.290   4.682  10.465 -0.0349  0.1407  0.3885
  135SAPE    HS14582   0.334   4.598  10.408 -0.1770  0.4895 -0.2527
  135SAPE   O2114583   0.362   4.798  10.421  0.3920  0.6242 -0.0215
  135SAPE   C2114584   0.490   4.790  10.384  1.0368  0.7752 -0.0824
  135SAPE   O2214585   0.560   4.688  10.375  0.3328  0.0022  0.4642
  135SAPE   C2214586   0.529   4.933  10.346 -0.0433 -0.7990 -0.0187
  135SAPE   H2R14587   0.513   5.001  10.433  0.0798 -0.7145 -0.0629
  135SAPE   H2S14588   0.635   4.921  10.316 -0.5152 -0.7997 -1.8153
  135SAPE    C314589   0.134   4.703  10.451 -0.0553  0.4074  0.0105
  135SAPE    HX14590   0.104   4.780  10.525 -1.7098 -0.9469  0.8209
  135SAPE    HY14591   0.088   4.603  10.467 -0.4909  0.3730 -1.3451
  135SAPE   O3114592   0.091   4.744  10.321  1.0105  0.1552  0.6430
  135SAPE   C3114593   0.088   4.872  10.291  0.0602 -0.5266 -0.0675
  135SAPE   O3214594   0.114   4.963  10.368 -0.4252 -0.3346  0.1433
  135SAPE   C3214595   0.043   4.895  10.146  0.3367  0.3120  0.3473
  135SAPE   H2X14596   0.009   5.000  10.134  0.0904  0.3598  1.3714
  135SAPE   H2Y14597  -0.047   4.834  10.126 -1.4801  3.0805 -0.4630
  135SAPE   C2314598   0.448   4.991  10.226 -0.9899  0.3551  0.3797
  135SAPE   H3R14599   0.348   5.015  10.268 -0.9196 -0.0580  0.7984
  135SAPE   H3S14600   0.428   4.908  10.155  0.1589 -0.8914  1.4620
  135SAPE   C2414601   0.517   5.109  10.150 -0.0529  0.4465 -0.3091
  135SAPE   H4R14602   0.548   5.181  10.229  0.8955  0.2254 -0.4751
  135SAPE   H4S14603   0.438   5.151  10.085  1.5377  0.5202 -2.2712
  135SAPE   C2514604   0.641   5.054  10.081 -1.0812 -0.0339 -0.2202
  135SAPE   H5R14605   0.728   5.025  10.141 -0.3407 -1.8360 -2.0542
  135SAPE   C2614606   0.641   5.031   9.948 -0.3420  0.4006  0.0770
  135SAPE   H6R14607   0.730   4.990   9.898 -1.5826 -1.1295 -0.9802
  135SAPE   C2714608   0.521   5.056   9.856  0.5206  0.3993 -0.2408
  135SAPE   H7R14609   0.424   5.091   9.899 -0.0545 -0.3818 -0.8942
  135SAPE   H7S14610   0.477   4.960   9.821 -1.3612 -0.1609  3.1730
  135SAPE   C2814611   0.569   5.145   9.744 -0.8471 -0.5264  0.5280
  135SAPE   H8R14612   0.594   5.249   9.772 -1.1329  0.0162 -1.0707
  135SAPE   C2914613   0.585   5.111   9.611 -0.1698  1.1261 -0.3857
  135SAPE   H9R14614   0.623   5.189   9.543 -1.1980  1.2594 -0.8372
  135SAPE  C21014615   0.576   4.969   9.544  0.5704 -0.3236 -0.6680
  135SAPE  H10R14616   0.623   4.900   9.618 -0.3480  0.3169  0.5506
  135SAPE  H10S14617   0.637   4.965   9.452 -0.3109  1.1016 -1.3514
  135SAPE  C21114618   0.431   4.929   9.519 -1.2238 -0.2804 -0.1777
  135SAPE  H11R14619   0.357   4.920   9.601 -0.8988 -4.1748 -0.1048
  135SAPE  C21214620   0.393   4.863   9.412  0.4106  0.0300 -0.6009
  135SAPE  H12R14621   0.286   4.851   9.392 -0.1498  2.0841  0.9083
  135SAPE  C21314622   0.467   4.825   9.292  0.2375 -0.1386 -0.5967
  135SAPE  H13R14623   0.419   4.736   9.245 -2.2533  0.8997 -0.1719
  135SAPE  H13S14624   0.573   4.810   9.321  0.4135 -1.5207 -1.8117
  135SAPE  C21414625   0.477   4.935   9.188 -0.5167  0.1310  0.3221
  135SAPE  H14R14626   0.523   5.029   9.221 -1.2998  0.6057  0.0638
  135SAPE  C21514627   0.430   4.930   9.062  0.7189  0.1780 -0.0267
  135SAPE  H15R14628   0.422   5.027   9.011  0.2281  0.0668 -0.1760
  135SAPE  C21614629   0.352   4.815   9.005  0.0268  0.1992  0.3214
  135SAPE  H16R14630   0.275   4.788   9.080  1.6485 -1.5261  1.4866
  135SAPE  H16S14631   0.412   4.722   8.991 -0.2802  0.1618 -0.8051
  135SAPE  C21714632   0.274   4.852   8.880  0.3957 -0.0779 -0.5240
  135SAPE  H17R14633   0.335   4.899   8.800  1.3779  0.7062  0.6411
  135SAPE  H17S14634   0.202   4.929   8.915  1.5175 -0.4693  3.0697
  135SAPE  C21814635   0.187   4.740   8.815 -0.4670 -0.6239  0.3568
  135SAPE  H18R14636   0.130   4.794   8.736 -1.5250  0.3134  1.7234
  135SAPE  H18S14637   0.114   4.689   8.881  0.0281 -0.9359  0.6702
  135SAPE  C21914638   0.274   4.636   8.747 -0.1440 -0.4397  0.4579
  135SAPE  H19R14639   0.378   4.671   8.731 -0.4649 -0.4013 -1.8189
  135SAPE  H19S14640   0.240   4.615   8.644 -0.1666 -0.6348  0.5054
  135SAPE  C22014641   0.280   4.509   8.838 -0.6038 -0.4326 -0.1994
  135SAPE  H20R14642   0.356   4.445   8.787 -0.2689 -0.1476 -0.0602
  135SAPE  H20S14643   0.178   4.468   8.851 -0.8542  0.0506 -0.6340
  135SAPE  H20T14644   0.330   4.532   8.934 -0.2209  1.0002 -0.7208
  135SAPE   C3314645   0.133   4.843  10.032 -0.2621 -0.0182 -0.0814
  135SAPE   H3X14646   0.162   4.737  10.049  2.0204  0.5034 -0.3744
  135SAPE   H3Y14647   0.226   4.905  10.029 -0.8645  0.8911 -0.4037
  135SAPE   C3414648   0.070   4.857   9.891 -0.5037  0.0653 -0.3930
  135SAPE   H4X14649   0.051   4.966   9.875  0.9313  0.5667  1.0564
  135SAPE   H4Y14650  -0.027   4.804   9.888 -1.1048  1.1500 -1.0947
  135SAPE   C3514651   0.162   4.809   9.779  0.0143  0.9303 -0.2736
  135SAPE   H5X14652   0.220   4.720   9.813  0.1706  1.0731 -0.1656
  135SAPE   H5Y14653   0.233   4.891   9.755  0.3632  1.2088  1.5699
  135SAPE   C3614654   0.091   4.765   9.647  0.6398  0.1577 -0.2578
  135SAPE   H6X14655   0.018   4.686   9.672 -2.3798  2.0523 -2.3762
  135SAPE   H6Y14656   0.162   4.741   9.564  1.6822  0.6177  0.4712
  135SAPE   C3714657  -0.001   4.877   9.585  0.3220 -0.8025  0.4756
  135SAPE   H7X14658   0.059   4.951   9.527 -0.1042 -0.5680  0.3263
  135SAPE   H7Y14659  -0.071   4.921   9.660  0.5941 -2.7293  1.9224
  135SAPE   C3814660  -0.088   4.826   9.465  0.2339  0.2684 -0.2902
  135SAPE   H8X14661  -0.196   4.851   9.472 -0.1265 -0.5195 -2.3180
  135SAPE   H8Y14662  -0.086   4.716   9.447 -2.4701  0.0209  0.4741
  135SAPE   C3914663  -0.046   4.899   9.337 -0.2938 -0.1952 -0.2025
  135SAPE   H9X14664   0.064   4.900   9.325 -0.4779  0.2977 -2.2684
  135SAPE   H9Y14665  -0.078   5.005   9.343 -1.4079 -0.5313  0.0833
  135SAPE  C31014666  -0.112   4.845   9.209 -0.3967  0.4028 -0.2460
  135SAPE  H10X14667  -0.221   4.842   9.229 -0.0164 -0.3425  1.8999
  135SAPE  H10Y14668  -0.067   4.745   9.195 -0.1621  0.2978  1.1651
  135SAPE  C31114669  -0.079   4.937   9.090 -1.0569  0.0433  0.8650
  135SAPE  H11X14670   0.031   4.955   9.089 -0.9832 -0.4153  0.4260
  135SAPE  H11Y14671  -0.129   5.032   9.118  0.9521  0.3542  3.9380
  135SAPE  C31214672  -0.138   4.884   8.956  0.0527 -0.6793 -0.3003
  135SAPE  H12X14673  -0.249   4.881   8.960 -0.1197 -1.2452 -3.2263
  135SAPE  H12Y14674  -0.097   4.781   8.947  1.1378 -0.1628 -1.9032
  135SAPE  C31314675  -0.093   4.960   8.830 -0.1844 -0.2234 -0.3640
  135SAPE  H13X14676  -0.081   4.897   8.739  0.3138 -0.2646 -0.2725
  135SAPE  H13Y14677   0.005   5.005   8.856  0.2917  0.4617 -3.0315
  135SAPE  C31414678  -0.196   5.071   8.789  0.4270  0.3040 -0.2364
  135SAPE  H14X14679  -0.230   5.136   8.872 -0.0454 -1.1525  0.7402
  135SAPE  H14Y14680  -0.282   5.014   8.749  0.7422  0.3031 -0.9309
  135SAPE  C31514681  -0.140   5.173   8.682  0.5696 -0.0802 -0.3788
  135SAPE  H15X14682  -0.101   5.115   8.595  0.2559  0.0109 -0.5823
  135SAPE  H15Y14683  -0.045   5.216   8.720  0.5971 -0.9951  0.6490
  135SAPE  C31614684  -0.246   5.280   8.634 -0.1181  0.4980  0.1708
  135SAPE  H16X14685  -0.278   5.347   8.717 -4.4104 -2.5712  1.3726
  135SAPE  H16Y14686  -0.334   5.222   8.600  1.1226 -1.0541 -0.5233
  135SAPE  C31714687  -0.199   5.355   8.508  0.2446 -0.1460 -0.1921
  135SAPE  H17X14688  -0.172   5.293   8.421  0.3920  0.5912 -0.6847
  135SAPE  H17Y14689  -0.108   5.415   8.533 -1.4959  2.5730  0.0930
  135SAPE  C31814690  -0.287   5.461   8.447 -0.8180  0.3347  0.3178
  135SAPE  H18X14691  -0.236   5.521   8.369 -0.8793 -2.0551 -1.7167
  135SAPE  H18Y14692  -0.329   5.524   8.528 -1.2042  0.0567  0.3405
  135SAPE  H18Z14693  -0.377   5.415   8.399 -0.9634 -2.5615  3.0149
  136SAPE     N14694   2.762   4.894  11.217  0.4350 -0.0719 -0.3132
  136SAPE   HN114695   2.854   4.847  11.230  1.0403  1.3323  0.5838
  136SAPE   HN214696   2.733   4.961  11.290 -1.1557  1.9052 -2.6037
  136SAPE   HN314697   2.693   4.816  11.213 -0.6131  0.8575 -0.8351
  136SAPE   C1214698   2.762   4.981  11.094 -0.5475 -0.6211 -0.0661
  136SAPE  H12A14699   2.836   5.062  11.112 -0.7778 -0.4569  0.1529
  136SAPE  H12B14700   2.659   5.020  11.082  0.1262  0.9425 -1.1904
  136SAPE   C1114701   2.785   4.885  10.976 -0.4441 -0.2390  0.1769
  136SAPE  H11A14702   2.888   4.844  10.981  0.4093  1.2835 -2.7092
  136SAPE  H11B14703   2.784   4.948  10.885  0.6297  1.5375  1.3274
  136SAPE     P14704   2.641   4.714  10.840 -0.0990 -0.1656  0.4381
  136SAPE   O1314705   2.602   4.576  10.877 -0.3878 -0.1783 -0.1476
  136SAPE   O1414706   2.533   4.799  10.784  0.1598  0.2277 -0.6227
  136SAPE   O1214707   2.686   4.784  10.976  0.4251  0.4781 -0.4874
  136SAPE   O1114708   2.769   4.715  10.746 -0.1022  0.3440  0.0157
  136SAPE    C114709   2.879   4.629  10.763  0.2684  0.5398  0.1944
  136SAPE    HA14710   2.948   4.674  10.837  1.2110 -1.6140  0.6841
  136SAPE    HB14711   2.843   4.533  10.804  0.3314  0.1989 -0.5307
  136SAPE    C214712   2.942   4.616  10.622  0.9240  0.0484 -0.2176
  136SAPE    HS14713   3.006   4.527  10.639 -0.6878 -0.4420  5.9434
  136SAPE   O2114714   3.016   4.738  10.597 -0.0981  0.0077 -0.4510
  136SAPE   C2114715   3.099   4.721  10.497 -0.6951  0.5257  0.8634
  136SAPE   O2214716   3.150   4.612  10.460 -0.0373  0.3297 -0.3205
  136SAPE   C2214717   3.144   4.851  10.441  0.4727  0.1747 -0.3857
  136SAPE   H2R14718   3.077   4.926  10.490  0.7813 -0.3680  0.9017
  136SAPE   H2S14719   3.249   4.861  10.477  0.7764 -0.2853 -1.1360
  136SAPE    C314720   2.834   4.593  10.515  0.2548  0.5416 -0.1377
  136SAPE    HX14721   2.768   4.683  10.509  0.6007  0.8579  0.6639
  136SAPE    HY14722   2.766   4.516  10.557  1.0215  0.6798  1.4435
  136SAPE   O3114723   2.871   4.560  10.375  0.0341 -0.0353 -0.4836
  136SAPE   C3114724   2.888   4.432  10.355 -0.6574  0.7368  0.6667
  136SAPE   O3214725   2.862   4.340  10.433 -0.0080  0.0551  0.2371
  136SAPE   C3214726   2.940   4.404  10.210  0.4594  0.0416  0.1136
  136SAPE   H2X14727   2.981   4.301  10.202  0.0918  0.0076 -2.1351
  136SAPE   H2Y14728   3.018   4.483  10.196 -0.2873  0.8054  0.1456
  136SAPE   C2314729   3.143   4.845  10.290 -0.8582  0.0465  0.2687
  136SAPE   H3R14730   3.200   4.758  10.252  1.8466  1.6770  0.3575
  136SAPE   H3S14731   3.203   4.933  10.259  1.3518 -1.9399 -1.4637
  136SAPE   C2414732   2.999   4.853  10.236 -0.2013  0.2577 -0.0988
  136SAPE   H4R14733   2.949   4.757  10.262  2.1199 -1.1887 -0.6106
  136SAPE   H4S14734   3.000   4.851  10.124 -0.5351 -1.9352 -0.1083
  136SAPE   C2514735   2.918   4.975  10.287 -0.3675  0.1683  0.0253
  136SAPE   H5R14736   2.873   4.970  10.387 -0.1763  0.4944  0.1318
  136SAPE   C2614737   2.907   5.097  10.227 -0.3594  0.5561  0.3410
  136SAPE   H6R14738   2.850   5.178  10.276 -0.2114  1.6477 -1.2322
  136SAPE   C2714739   2.963   5.127  10.091 -0.2091 -0.0084 -0.4819
  136SAPE   H7R14740   3.065   5.085  10.084  1.0131  2.3110  1.7419
  136SAPE   H7S14741   2.974   5.237  10.078 -1.2370 -0.1619 -3.4157
  136SAPE   C2814742   2.877   5.068   9.976 -0.5856 -0.2067 -0.1255
  136SAPE   H8R14743   2.769   5.069  10.000 -0.4338  2.2281  0.7237
  136SAPE   C2914744   2.924   5.019   9.863  0.1363 -0.0686 -0.1689
  136SAPE   H9R14745   2.856   4.974   9.790 -0.1419 -0.2301  0.1896
  136SAPE  C21014746   3.071   5.016   9.816 -0.4053 -0.6060 -1.0427
  136SAPE  H10R14747   3.106   4.918   9.775 -0.7583 -1.6070  0.9388
  136SAPE  H10S14748   3.142   5.026   9.901 -0.8640 -1.6597 -0.5102
  136SAPE  C21114749   3.088   5.127   9.715 -0.4157 -0.5352  0.0799
  136SAPE  H11R14750   3.140   5.217   9.751 -1.9824 -0.0177  1.1665
  136SAPE  C21214751   3.057   5.115   9.583  0.0678  0.1654 -0.3291
  136SAPE  H12R14752   3.076   5.198   9.513 -2.1840 -0.8246 -2.2423
  136SAPE  C21314753   2.999   4.995   9.520 -0.7324 -0.8831 -1.0451
  136SAPE  H13R14754   2.987   4.915   9.596 -0.3446  2.4000  2.7457
  136SAPE  H13S14755   3.070   4.956   9.443  0.4730  0.9241 -0.9205
  136SAPE  C21414756   2.869   5.023   9.453  0.2967 -0.1056 -0.0830
  136SAPE  H14R14757   2.783   5.050   9.515 -0.6807 -1.9455 -0.5780
  136SAPE  C21514758   2.841   5.018   9.325 -0.1578  0.4750  0.2710
  136SAPE  H15R14759   2.739   5.031   9.286  0.5870 -0.6303 -2.2631
  136SAPE  C21614760   2.930   4.984   9.212  0.3066  0.2225  0.2342
  136SAPE  H16R14761   2.882   4.908   9.147  1.0136  1.2253 -1.5279
  136SAPE  H16S14762   3.022   4.937   9.251 -0.3741 -0.6719  0.8148
  136SAPE  C21714763   2.968   5.105   9.126 -0.5211 -0.0894  0.6759
  136SAPE  H17R14764   3.047   5.169   9.170  1.4970 -0.0525 -2.6761
  136SAPE  H17S14765   2.878   5.163   9.098 -0.0684  0.7703  0.9823
  136SAPE  C21814766   3.027   5.063   8.987  0.8104  0.1476  0.1334
  136SAPE  H18R14767   2.952   5.000   8.934  0.2648 -0.4283  1.5521
  136SAPE  H18S14768   3.114   5.000   9.014  0.2103 -0.3612  0.8966
  136SAPE  C21914769   3.079   5.180   8.903  0.8674 -0.1520  0.0517
  136SAPE  H19R14770   3.165   5.225   8.958  0.0203  0.1803  1.1273
  136SAPE  H19S14771   3.010   5.266   8.892  0.3555 -0.5389  0.2187
  136SAPE  C22014772   3.123   5.138   8.769  0.0129  0.3953 -0.0040
  136SAPE  H20R14773   3.039   5.099   8.708 -1.0198 -1.1386  2.2681
  136SAPE  H20S14774   3.198   5.056   8.769  0.4559  0.7851 -1.1150
  136SAPE  H20T14775   3.164   5.227   8.716 -1.4128  1.0409 -0.0456
  136SAPE   C3314776   2.830   4.413  10.101  0.3290  0.0918  0.6670
  136SAPE   H3X14777   2.736   4.361  10.129 -0.0002  0.7464  0.7971
  136SAPE   H3Y14778   2.867   4.368  10.006  2.4308  2.4123  0.2805
  136SAPE   C3414779   2.790   4.555  10.064  0.0164  0.2212 -0.5320
  136SAPE   H4X14780   2.878   4.622  10.059 -0.2423  0.6339  0.1957
  136SAPE   H4Y14781   2.715   4.603  10.131  2.6906  0.8719  2.2624
  136SAPE   C3514782   2.708   4.568   9.934  0.0733  0.7742 -0.0672
  136SAPE   H5X14783   2.630   4.489   9.932 -0.4988  1.3265 -0.2730
  136SAPE   H5Y14784   2.772   4.533   9.851 -0.0808 -0.3599  0.2789
  136SAPE   C3614785   2.639   4.702   9.899 -0.0938 -0.5465  0.3151
  136SAPE   H6X14786   2.713   4.782   9.877 -1.3252  0.3774 -0.5497
  136SAPE   H6Y14787   2.586   4.738   9.989 -1.2378  1.1654 -0.9893
  136SAPE   C3714788   2.544   4.693   9.776 -0.1328 -0.3875  0.4759
  136SAPE   H7X14789   2.489   4.790   9.773 -0.8908 -0.8132  0.2813
  136SAPE   H7Y14790   2.466   4.613   9.779  0.2763 -0.7484  1.7450
  136SAPE   C3814791   2.605   4.673   9.637 -0.1278  0.0265 -0.0003
  136SAPE   H8X14792   2.643   4.571   9.618 -0.1832  0.4460 -2.7378
  136SAPE   H8Y14793   2.675   4.757   9.618 -0.7017  0.5786  0.2938
  136SAPE   C3914794   2.494   4.688   9.532  0.5979 -0.6282 -0.1856
  136SAPE   H9X14795   2.472   4.795   9.513  3.5814  0.3277  1.0366
  136SAPE   H9Y14796   2.400   4.636   9.561  0.3406 -0.8885 -1.4161
  136SAPE  C31014797   2.543   4.617   9.400 -0.2548  0.7378  0.4995
  136SAPE  H10X14798   2.507   4.512   9.407  1.9040 -0.2605 -1.6601
  136SAPE  H10Y14799   2.652   4.616   9.379  0.1059  2.4761  2.0890
  136SAPE  C31114800   2.475   4.668   9.272 -0.3408  0.3327 -0.0524
  136SAPE  H11X14801   2.367   4.684   9.296 -0.4644  0.5888 -0.7461
  136SAPE  H11Y14802   2.482   4.590   9.193  0.3895 -0.8532  1.1453
  136SAPE  C31214803   2.534   4.794   9.206 -0.6007 -0.1097 -0.5443
  136SAPE  H12X14804   2.636   4.760   9.177 -0.3370 -0.4578  0.7075
  136SAPE  H12Y14805   2.542   4.881   9.275  1.7734 -0.1655 -0.6433
  136SAPE  C31314806   2.471   4.822   9.071  0.1019  0.6366 -0.1868
  136SAPE  H13X14807   2.362   4.834   9.090  0.2040  0.3773  0.6067
  136SAPE  H13Y14808   2.471   4.735   9.002  2.1871  0.6274 -0.2305
  136SAPE  C31414809   2.519   4.947   8.991  0.4651 -0.3417  0.1580
  136SAPE  H14X14810   2.627   4.942   8.969  0.0060 -2.4452 -2.0542
  136SAPE  H14Y14811   2.509   5.032   9.062 -1.0046 -0.1826 -0.2008
  136SAPE  C31514812   2.428   4.980   8.866 -0.5651  0.1220 -0.0004
  136SAPE  H15X14813   2.459   5.078   8.824  2.2597 -1.4947 -2.0751
  136SAPE  H15Y14814   2.318   4.977   8.877 -0.5480 -2.0669  0.0147
  136SAPE  C31614815   2.471   4.889   8.748 -0.3731 -1.0669  0.4816
  136SAPE  H16X14816   2.406   4.922   8.664  0.2188  2.1828  1.1768
  136SAPE  H16Y14817   2.470   4.785   8.789  0.6491 -0.6459  1.6238
  136SAPE  C31714818   2.605   4.923   8.689 -0.3836 -0.3762  0.2496
  136SAPE  H17X14819   2.683   4.865   8.742 -2.1416 -2.3388  0.8577
  136SAPE  H17Y14820   2.631   5.030   8.700 -1.1141 -0.0991 -0.5638
  136SAPE  C31814821   2.617   4.892   8.540  1.0116  0.4932 -0.4631
  136SAPE  H18X14822   2.528   4.934   8.489  0.8740  0.6637 -0.0836
  136SAPE  H18Y14823   2.603   4.783   8.521  2.1350  0.1128  0.6973
  136SAPE  H18Z14824   2.708   4.922   8.484  1.4313 -2.3406 -1.4760
  137SAPE     N14825   0.455   1.426  10.567  0.1672  0.4111  0.4061
  137SAPE   HN114826   0.381   1.384  10.627 -0.9222  1.6559 -0.0040
  137SAPE   HN214827   0.511   1.350  10.524 -0.1821  0.6510 -0.4922
  137SAPE   HN314828   0.522   1.477  10.629  0.5838 -0.8072  0.9830
  137SAPE   C1214829   0.394   1.522  10.468  0.5288 -0.0192 -0.0737
  137SAPE  H12A14830   0.292   1.555  10.496  0.8237  2.5148 -1.6897
  137SAPE  H12B14831   0.378   1.464  10.375 -1.6303 -1.9303  1.3648
  137SAPE   C1114832   0.475   1.654  10.461  0.3341  0.2030 -0.6984
  137SAPE  H11A14833   0.430   1.711  10.377 -0.5478  0.1823 -0.2510
  137SAPE  H11B14834   0.579   1.630  10.430  0.9271 -0.8185  1.8327
  137SAPE     P14835   0.593   1.735  10.679 -0.1065  0.2188 -0.2211
  137SAPE   O1314836   0.573   1.808  10.802 -0.5428 -0.0276  0.2831
  137SAPE   O1414837   0.628   1.595  10.693 -0.5229  0.5704  0.2803
  137SAPE   O1214838   0.468   1.732  10.580  0.1946  0.1309  0.6736
  137SAPE   O1114839   0.703   1.799  10.590  0.3943 -0.3751  0.2729
  137SAPE    C114840   0.673   1.947  10.570 -0.0194  0.0996 -0.0240
  137SAPE    HA14841   0.576   1.968  10.520 -0.3627  1.4736  1.1272
  137SAPE    HB14842   0.667   2.000  10.668 -0.1189 -0.1880  0.1283
  137SAPE    C214843   0.776   2.016  10.485 -0.4343 -0.0689 -0.3955
  137SAPE    HS14844   0.741   2.118  10.459 -1.9103 -0.7295 -1.1587
  137SAPE   O2114845   0.798   1.943  10.365  0.3575 -0.3298 -0.1618
  137SAPE   C2114846   0.707   1.962  10.273 -0.3180  0.3319 -0.2202
  137SAPE   O2214847   0.634   2.059  10.264  0.3846 -0.2047  0.4592
  137SAPE   C2214848   0.703   1.841  10.183  0.3319  0.2352 -0.4817
  137SAPE   H2R14849   0.808   1.810  10.164  0.7199  0.1870  1.4920
  137SAPE   H2S14850   0.648   1.760  10.236  0.9653 -1.4620 -2.2974
  137SAPE    C314851   0.916   2.030  10.561  0.0112  0.4566  0.3910
  137SAPE    HX14852   0.983   1.942  10.547 -1.0021  0.1055 -3.3048
  137SAPE    HY14853   0.890   2.033  10.669  0.4777 -2.9327  0.7233
  137SAPE   O3114854   0.979   2.151  10.525 -0.5778  0.4918 -0.6513
  137SAPE   C3114855   1.063   2.143  10.424  0.0808  0.5561 -0.3393
  137SAPE   O3214856   1.112   2.043  10.388 -0.1636 -0.1271 -0.1960
  137SAPE   C3214857   1.071   2.284  10.359 -0.7820  0.2005 -0.2657
  137SAPE   H2X14858   1.111   2.348  10.441 -0.6111 -1.5175  1.0397
  137SAPE   H2Y14859   0.968   2.325  10.354 -0.8067  0.2990  0.7324
  137SAPE   C2314860   0.626   1.869  10.054 -0.2042  0.6382 -0.1717
  137SAPE   H3R14861   0.677   1.949   9.997 -0.9070  1.0555 -0.2251
  137SAPE   H3S14862   0.521   1.897  10.078 -0.6198 -1.1761  0.2499
  137SAPE   C2414863   0.620   1.752   9.953 -0.0310  0.0450 -0.3472
  137SAPE   H4R14864   0.596   1.657  10.004 -0.4623  0.0913 -0.4528
  137SAPE   H4S14865   0.717   1.740   9.900 -0.3697 -0.1233 -0.9377
  137SAPE   C2514866   0.514   1.791   9.858 -0.6888  0.8526  0.1121
  137SAPE   H5R14867   0.427   1.850   9.893 -2.1167 -0.4966 -1.0277
  137SAPE   C2614868   0.505   1.752   9.730  0.0795 -0.1482  0.7730
  137SAPE   H6R14869   0.433   1.806   9.667 -0.5909  0.1233  1.7612
  137SAPE   C2714870   0.609   1.664   9.661 -0.2184  0.3150  0.4846
  137SAPE   H7R14871   0.669   1.599   9.729  0.1459 -0.4093 -0.5144
  137SAPE   H7S14872   0.690   1.725   9.617  0.8909 -1.4346  0.0078
  137SAPE   C2814873   0.549   1.580   9.546  0.0109 -0.3001  0.0542
  137SAPE   H8R14874   0.492   1.492   9.579  1.3193 -1.4559 -0.6566
  137SAPE   C2914875   0.553   1.595   9.409 -0.1587  0.0728 -0.4846
  137SAPE   H9R14876   0.505   1.521   9.342 -0.2401 -2.6899  2.3869
  137SAPE  C21014877   0.623   1.704   9.333 -0.7295  0.7144 -0.0900
  137SAPE  H10R14878   0.670   1.660   9.242 -1.1424  1.4448 -0.6574
  137SAPE  H10S14879   0.708   1.747   9.390 -0.1557 -1.9483  1.2481
  137SAPE  C21114880   0.528   1.814   9.307 -0.2145 -0.1536 -1.0341
  137SAPE  H11R14881   0.482   1.870   9.390  0.2513  1.7265 -2.0014
  137SAPE  C21214882   0.485   1.852   9.181  0.1338  0.0181 -0.9348
  137SAPE  H12R14883   0.408   1.931   9.175 -1.0735 -1.0479 -0.0172
  137SAPE  C21314884   0.525   1.779   9.054 -0.2815  0.5824  1.1153
  137SAPE  H13R14885   0.461   1.690   9.033 -0.2094  1.0848 -1.5573
  137SAPE  H13S14886   0.625   1.731   9.056 -1.5611 -2.3585  3.4506
  137SAPE  C21414887   0.508   1.863   8.931 -0.4032  0.6401  0.0607
  137SAPE  H14R14888   0.579   1.947   8.938 -0.5960  0.8238 -0.2074
  137SAPE  C21514889   0.434   1.843   8.817  0.6013 -0.5950 -0.0797
  137SAPE  H15R14890   0.446   1.916   8.735  1.0886 -1.1221 -0.4888
  137SAPE  C21614891   0.347   1.723   8.785  0.4075  0.1758  0.1896
  137SAPE  H16R14892   0.330   1.670   8.881  0.3644 -0.2245 -0.0351
  137SAPE  H16S14893   0.406   1.652   8.723  1.7797  1.4639 -0.0334
  137SAPE  C21714894   0.207   1.746   8.725 -0.0393  0.0535  0.0054
  137SAPE  H17R14895   0.149   1.800   8.802  2.5951  0.8494  1.5479
  137SAPE  H17S14896   0.155   1.649   8.710 -0.6193  0.4223 -0.3759
  137SAPE  C21814897   0.200   1.822   8.594  0.2186  0.1373  0.8354
  137SAPE  H18R14898   0.253   1.915   8.623  2.1055 -0.3465 -0.7637
  137SAPE  H18S14899   0.095   1.840   8.563  0.7813 -1.2074 -2.2818
  137SAPE  C21914900   0.284   1.768   8.472 -0.1197  0.3937  0.0690
  137SAPE  H19R14901   0.387   1.744   8.505 -1.6271 -5.0433  1.9107
  137SAPE  H19S14902   0.280   1.838   8.386 -2.4934  0.2339 -0.0313
  137SAPE  C22014903   0.226   1.636   8.411 -0.0317  0.2241 -0.9199
  137SAPE  H20R14904   0.199   1.571   8.497  0.6614 -0.5159 -1.2418
  137SAPE  H20S14905   0.316   1.595   8.360  0.8091  2.1934 -1.0990
  137SAPE  H20T14906   0.142   1.654   8.341  0.7603  0.8592 -1.7226
  137SAPE   C3314907   1.155   2.303  10.229  0.8521 -0.2376 -0.2744
  137SAPE   H3X14908   1.263   2.279  10.240  1.0085  0.1299 -0.9699
  137SAPE   H3Y14909   1.157   2.412  10.211 -0.6730 -0.3815 -1.4550
  137SAPE   C3414910   1.092   2.215  10.116 -0.0999 -0.5553 -0.0826
  137SAPE   H4X14911   0.985   2.244  10.110  0.0824  0.1629  0.0656
  137SAPE   H4Y14912   1.098   2.110  10.151 -1.3491 -0.5867  0.0846
  137SAPE   C3514913   1.157   2.217   9.976  0.1476 -0.1869  0.0086
  137SAPE   H5X14914   1.257   2.173   9.996 -0.7782 -1.0604  3.1779
  137SAPE   H5Y14915   1.156   2.317   9.927 -0.8362 -1.0288 -1.7959
  137SAPE   C3614916   1.089   2.132   9.866 -0.6273  0.4889 -0.1118
  137SAPE   H6X14917   1.001   2.190   9.831  0.4792  3.5608  1.7304
  137SAPE   H6Y14918   1.063   2.029   9.899  0.4283 -0.1504 -1.2221
  137SAPE   C3714919   1.179   2.121   9.735 -0.1022  0.8708  0.3127
  137SAPE   H7X14920   1.118   2.060   9.663  0.1954 -0.4765  1.1664
  137SAPE   H7Y14921   1.266   2.060   9.768  0.8229  1.7544 -0.4381
  137SAPE   C3814922   1.224   2.250   9.677  0.0805 -0.2440  0.7969
  137SAPE   H8X14923   1.272   2.325   9.744 -1.4988  0.9872  0.6044
  137SAPE   H8Y14924   1.137   2.307   9.637  0.9410  0.1633 -0.5836
  137SAPE   C3914925   1.320   2.237   9.562  0.2987 -0.0271  0.6654
  137SAPE   H9X14926   1.412   2.202   9.612 -0.2988  1.3386  2.8706
  137SAPE   H9Y14927   1.343   2.337   9.519  1.2435 -1.1126 -1.5127
  137SAPE  C31014928   1.264   2.148   9.447  0.2767  0.3499  0.1140
  137SAPE  H10X14929   1.156   2.125   9.455 -0.0690  1.5625 -0.8850
  137SAPE  H10Y14930   1.329   2.058   9.440  1.2153  0.9780  0.5051
  137SAPE  C31114931   1.299   2.220   9.316  0.9838 -0.5969 -0.6153
  137SAPE  H11X14932   1.406   2.251   9.312  0.1474  2.6679 -1.5369
  137SAPE  H11Y14933   1.247   2.318   9.312  2.5801  0.2696 -1.2150
  137SAPE  C31214934   1.260   2.132   9.197 -0.4104  0.4623  0.5046
  137SAPE  H12X14935   1.150   2.117   9.190 -0.1664 -0.7091 -3.4121
  137SAPE  H12Y14936   1.292   2.029   9.223 -0.5416  0.3732  0.3211
  137SAPE  C31314937   1.335   2.167   9.067  0.7634  0.0849  0.0407
  137SAPE  H13X14938   1.443   2.142   9.070  1.6587  3.3989 -0.0870
  137SAPE  H13Y14939   1.315   2.274   9.044  0.0580 -0.2360 -0.8549
  137SAPE  C31414940   1.274   2.112   8.937 -0.2584  0.0407 -0.5388
  137SAPE  H14X14941   1.163   2.121   8.931 -0.5749 -3.2226 -2.7206
  137SAPE  H14Y14942   1.283   2.003   8.958  1.6927  0.4746  1.1237
  137SAPE  C31514943   1.346   2.159   8.812  0.5613 -0.1802 -0.6322
  137SAPE  H15X14944   1.450   2.119   8.819  0.8987  0.3966 -2.0703
  137SAPE  H15Y14945   1.351   2.269   8.810 -1.9485 -0.0174 -0.9334
  137SAPE  C31614946   1.273   2.115   8.679 -0.2695 -0.3415 -0.1203
  137SAPE  H16X14947   1.164   2.136   8.679 -0.3957 -0.9604 -0.8648
  137SAPE  H16Y14948   1.291   2.007   8.658  1.1811  0.2511 -2.2424
  137SAPE  C31714949   1.338   2.174   8.555  0.0123  0.2351 -0.1470
  137SAPE  H17X14950   1.430   2.115   8.533  0.4843  0.4031  1.2701
  137SAPE  H17Y14951   1.348   2.283   8.568 -1.9997  0.4618 -0.1675
  137SAPE  C31814952   1.260   2.161   8.419 -0.2859 -0.4694  0.0487
  137SAPE  H18X14953   1.317   2.221   8.345  0.1502  0.9638  1.4949
  137SAPE  H18Y14954   1.155   2.191   8.438 -0.5275 -1.7341  0.8620
  137SAPE  H18Z14955   1.247   2.056   8.387  0.1465 -0.3522 -0.5238
  138SAPE     N14956   5.064   3.227  10.770 -0.3133  0.1438  0.1470
  138SAPE   HN114957   5.097   3.152  10.834  1.3361 -1.3838 -2.3257
  138SAPE   HN214958   5.077   3.182  10.677 -1.9081  1.6490 -0.8625
  138SAPE   HN314959   5.119   3.315  10.781  1.3257 -0.9237  0.9311
  138SAPE   C1214960   4.916   3.254  10.790  0.5991  0.3550 -0.2821
  138SAPE  H12A14961   4.901   3.307  10.887 -3.6739 -0.2172 -0.4159
  138SAPE  H12B14962   4.867   3.155  10.804 -0.3871  1.0000  1.0786
  138SAPE   C1114963   4.841   3.317  10.667  0.1279  0.5954 -0.0787
  138SAPE  H11A14964   4.733   3.318  10.692  0.4117 -1.0257  1.4788
  138SAPE  H11B14965   4.856   3.244  10.585 -1.0646  0.1377  0.0974
  138SAPE     P14966   4.825   3.581  10.666  0.1609  0.0333  0.1346
  138SAPE   O1314967   4.812   3.584  10.813 -0.2564  0.4132 -0.3271
  138SAPE   O1414968   4.894   3.693  10.603 -0.1732  0.5752  0.0774
  138SAPE   O1214969   4.897   3.440  10.631 -0.0484 -0.2771  0.5468
  138SAPE   O1114970   4.677   3.560  10.605  0.1051 -0.4764  0.0459
  138SAPE    C114971   4.661   3.548  10.461  0.0660 -0.1808  0.3395
  138SAPE    HA14972   4.755   3.506  10.419  0.5300  1.4543 -0.3329
  138SAPE    HB14973   4.581   3.475  10.435  1.6480 -1.9402  0.2102
  138SAPE    C214974   4.637   3.692  10.405  0.0308 -0.5068 -0.2762
  138SAPE    HS14975   4.675   3.757  10.487  0.5295 -2.1654  0.8678
  138SAPE   O2114976   4.493   3.713  10.401  0.2601  0.0995 -0.3302
  138SAPE   C2114977   4.450   3.839  10.389 -0.8919  0.6696 -0.0020
  138SAPE   O2214978   4.523   3.936  10.378 -0.0755 -0.1522 -0.7968
  138SAPE   C2214979   4.301   3.843  10.392  0.3047 -0.4878  0.2701
  138SAPE   H2R14980   4.261   3.800  10.486 -1.2007 -1.9760 -0.9834
  138SAPE   H2S14981   4.276   3.951  10.386 -0.9485 -0.8207 -1.6170
  138SAPE    C314982   4.699   3.728  10.273 -0.0175  0.7652 -0.5367
  138SAPE    HX14983   4.803   3.691  10.273 -0.3409 -0.2302 -1.5532
  138SAPE    HY14984   4.716   3.837  10.261 -0.5701  1.1490  1.6921
  138SAPE   O3114985   4.635   3.650  10.172  0.5235 -0.3354  0.3668
  138SAPE   C3114986   4.651   3.696  10.043  0.8498 -0.4204  0.1950
  138SAPE   O3214987   4.734   3.784  10.016 -0.5831 -0.1854 -0.1368
  138SAPE   C3214988   4.566   3.601   9.954  0.2705  0.6267 -0.6824
  138SAPE   H2X14989   4.483   3.564  10.018  0.3794  0.4430 -0.6483
  138SAPE   H2Y14990   4.633   3.522   9.913 -1.4870 -1.4565  0.2298
  138SAPE   C2314991   4.249   3.777  10.263 -0.8138  0.1776 -0.8163
  138SAPE   H3R14992   4.138   3.776  10.262 -0.8612 -1.0926  0.8612
  138SAPE   H3S14993   4.282   3.671  10.257 -1.5847 -0.1357  0.2416
  138SAPE   C2414994   4.293   3.848  10.134 -0.0287  0.1569  0.1871
  138SAPE   H4R14995   4.403   3.854  10.121  0.3479 -2.1656  1.7342
  138SAPE   H4S14996   4.252   3.949  10.154 -0.4510 -0.0596  0.4235
  138SAPE   C2514997   4.233   3.788  10.011 -0.3223 -0.0928  0.3095
  138SAPE   H5R14998   4.245   3.679  10.006  1.6842  0.1376 -0.5107
  138SAPE   C2614999   4.194   3.854   9.897  0.1681  0.5348 -0.2942
  138SAPE   H6R15000   4.133   3.795   9.828  2.0532 -2.4322  0.3941
  138SAPE   C2715001   4.192   3.996   9.876 -0.0766 -0.3029 -0.1371
  138SAPE   H7R15002   4.282   4.040   9.828 -1.3852  1.8638 -0.7414
  138SAPE   H7S15003   4.199   4.046   9.975 -0.9405  2.1655 -1.2383
  138SAPE   C2815004   4.068   4.040   9.801 -0.2311 -0.0557 -0.0878
  138SAPE   H8R15005   3.979   4.002   9.854 -0.3136 -1.2511 -1.0418
  138SAPE   C2915006   4.057   4.111   9.688  0.0842 -0.4710 -0.1367
  138SAPE   H9R15007   3.953   4.109   9.653 -0.3708  0.2248  1.1084
  138SAPE  C21015008   4.159   4.170   9.596  1.0852 -0.4399 -0.3152
  138SAPE  H10R15009   4.232   4.215   9.667 -1.3797 -0.4819  2.4213
  138SAPE  H10S15010   4.113   4.248   9.530  2.2105 -0.6523 -1.3904
  138SAPE  C21115011   4.218   4.069   9.505  0.2510  0.1822 -0.6314
  138SAPE  H11R15012   4.301   4.010   9.547 -0.7487 -0.8675 -0.0895
  138SAPE  C21215013   4.179   4.033   9.379 -0.5174 -1.0104 -0.3037
  138SAPE  H12R15014   4.240   3.952   9.335 -0.8761 -1.7358  0.5171
  138SAPE  C21315015   4.068   4.088   9.297  0.8263  0.1779 -0.4846
  138SAPE  H13R15016   4.001   4.152   9.358  0.3224 -1.9778  1.3622
  138SAPE  H13S15017   3.999   4.005   9.272 -1.2636  0.7771  2.6299
  138SAPE  C21415018   4.103   4.156   9.169  0.4261 -0.2617 -0.8549
  138SAPE  H14R15019   4.167   4.245   9.171  1.3821 -0.9559  0.0253
  138SAPE  C21515020   4.082   4.110   9.046  0.4715  0.5195  0.5345
  138SAPE  H15R15021   4.100   4.182   8.966 -1.5153 -0.1313 -0.5548
  138SAPE  C21615022   4.013   3.981   9.008 -0.0346  0.5902 -0.0360
  138SAPE  H16R15023   3.924   4.003   8.945 -0.6142  0.1573  0.6134
  138SAPE  H16S15024   3.974   3.926   9.097  1.1196 -0.5461 -0.1999
  138SAPE  C21715025   4.108   3.882   8.938  0.3236 -0.4669  0.4068
  138SAPE  H17R15026   4.130   3.911   8.833 -0.9932 -1.8434 -0.2894
  138SAPE  H17S15027   4.054   3.784   8.941  0.2130 -0.3863  2.5281
  138SAPE  C21815028   4.248   3.883   9.014  0.2052 -0.3340 -0.2254
  138SAPE  H18R15029   4.230   3.836   9.113  1.2958 -2.2582 -0.8985
  138SAPE  H18S15030   4.293   3.984   9.023  0.5076 -0.5800  1.3515
  138SAPE  C21915031   4.344   3.797   8.935  0.3691  0.8076  0.3853
  138SAPE  H19R15032   4.329   3.810   8.825 -2.2613 -2.3992  0.2000
  138SAPE  H19S15033   4.328   3.691   8.962  0.5247  1.1708  1.9558
  138SAPE  C22015034   4.488   3.817   8.974  0.1043  0.8705 -0.3582
  138SAPE  H20R15035   4.539   3.719   8.961 -0.3499  0.9285 -3.1717
  138SAPE  H20S15036   4.492   3.841   9.083 -0.1131 -0.9961  0.0965
  138SAPE  H20T15037   4.550   3.884   8.912  1.3288 -2.3099 -2.8613
  138SAPE   C3315038   4.487   3.669   9.843 -0.4255  0.5009 -0.0450
  138SAPE   H3X15039   4.454   3.767   9.882 -2.6158  0.6246 -1.9604
  138SAPE   H3Y15040   4.397   3.607   9.820 -0.5067 -0.1624  1.9012
  138SAPE   C3415041   4.565   3.695   9.711 -0.1756 -0.7860 -0.1131
  138SAPE   H4X15042   4.589   3.596   9.667 -1.5885 -0.2950 -2.1029
  138SAPE   H4Y15043   4.660   3.751   9.727 -0.7614  0.0618  0.5092
  138SAPE   C3515044   4.474   3.763   9.603  0.0863 -0.1417  0.4276
  138SAPE   H5X15045   4.442   3.860   9.645 -0.5673  0.7377 -1.9256
  138SAPE   H5Y15046   4.387   3.698   9.578  0.6073 -2.3184  3.6973
  138SAPE   C3615047   4.555   3.785   9.476 -0.4948 -0.3540 -0.0437
  138SAPE   H6X15048   4.639   3.853   9.501 -1.7914  0.8467  1.2002
  138SAPE   H6Y15049   4.482   3.827   9.403 -2.0072 -2.5185  0.1116
  138SAPE   C3715050   4.616   3.655   9.420 -0.9381 -0.3057  0.0817
  138SAPE   H7X15051   4.538   3.577   9.406 -0.2416 -0.8621 -0.8162
  138SAPE   H7Y15052   4.693   3.611   9.487  0.5039  0.0778 -1.2630
  138SAPE   C3815053   4.687   3.669   9.289 -0.1306  0.0382  0.1851
  138SAPE   H8X15054   4.784   3.724   9.294 -0.7585  1.0811  1.6215
  138SAPE   H8Y15055   4.619   3.724   9.221 -0.0144 -0.4586 -0.3413
  138SAPE   C3915056   4.710   3.531   9.213 -0.3532  0.0705 -0.4481
  138SAPE   H9X15057   4.607   3.500   9.186 -0.1869  0.1491 -1.2107
  138SAPE   H9Y15058   4.754   3.460   9.286 -2.4999  0.5134  1.3936
  138SAPE  C31015059   4.793   3.537   9.083 -0.4175 -0.4512  0.1399
  138SAPE  H10X15060   4.741   3.617   9.025  1.0176 -0.1014 -0.6980
  138SAPE  H10Y15061   4.782   3.442   9.027 -3.0653 -0.5019  0.5986
  138SAPE  C31115062   4.943   3.561   9.107  0.1024  0.8366 -0.5928
  138SAPE  H11X15063   4.978   3.486   9.181 -1.2635  2.2359  1.5968
  138SAPE  H11Y15064   4.941   3.663   9.151 -2.3957  1.5440 -2.1405
  138SAPE  C31215065   5.025   3.552   8.980  0.0824 -0.1449  0.0296
  138SAPE  H12X15066   4.997   3.456   8.931 -1.8681  1.3967 -2.0640
  138SAPE  H12Y15067   5.133   3.553   9.003 -0.2427 -0.2518  1.7431
  138SAPE  C31315068   4.980   3.654   8.870  0.2762 -0.7219 -0.6184
  138SAPE  H13X15069   4.972   3.752   8.922 -1.7065 -0.4067 -1.4005
  138SAPE  H13Y15070   4.878   3.638   8.827 -0.4317  1.0044  0.3130
  138SAPE  C31415071   5.069   3.655   8.748  0.0859 -0.4509 -0.4096
  138SAPE  H14X15072   5.173   3.673   8.782  0.6478 -2.8026 -0.7170
  138SAPE  H14Y15073   5.044   3.743   8.686  2.1574 -0.5808 -1.5021
  138SAPE  C31515074   5.077   3.530   8.658  0.4231 -0.2151 -0.4573
  138SAPE  H15X15075   4.980   3.537   8.604 -0.7527 -2.3688  1.2221
  138SAPE  H15Y15076   5.055   3.442   8.722  1.7960 -0.0020  0.3272
  138SAPE  C31615077   5.194   3.522   8.562 -0.1382 -0.4077 -0.0354
  138SAPE  H16X15078   5.294   3.510   8.608  1.8294  0.5131 -3.7138
  138SAPE  H16Y15079   5.197   3.613   8.498 -0.0595 -1.9079 -2.2796
  138SAPE  C31715080   5.178   3.403   8.468  0.0989  0.5374  0.7160
  138SAPE  H17X15081   5.094   3.405   8.395  2.0597  1.3196 -1.6640
  138SAPE  H17Y15082   5.164   3.308   8.524  1.4062 -1.4404 -2.0550
  138SAPE  C31815083   5.308   3.393   8.382 -0.2779 -0.2421  0.2997
  138SAPE  H18X15084   5.326   3.485   8.322  0.5871 -1.2526 -1.0484
  138SAPE  H18Y15085   5.310   3.318   8.301 -2.1639 -0.4759  0.4254
  138SAPE  H18Z15086   5.396   3.381   8.449  0.6059  1.8041 -0.3841
  139SAPE     N15087   2.816   2.245  10.878  0.2966 -0.4620  0.6960
  139SAPE   HN115088   2.846   2.159  10.828  1.7680  0.7799 -0.6744
  139SAPE   HN215089   2.893   2.312  10.860  1.0910 -1.7294 -0.8659
  139SAPE   HN315090   2.823   2.228  10.980 -0.7704 -0.8886  0.7121
  139SAPE   C1215091   2.669   2.286  10.859 -0.6862  0.0062 -0.2173
  139SAPE  H12A15092   2.661   2.394  10.882 -1.8746  0.1607 -1.2178
  139SAPE  H12B15093   2.604   2.234  10.933  0.9745 -0.6559  0.8368
  139SAPE   C1115094   2.628   2.250  10.718 -0.4224  0.3824 -0.1883
  139SAPE  H11A15095   2.697   2.295  10.643  0.5634  0.2711  0.6334
  139SAPE  H11B15096   2.532   2.301  10.695  0.7536  2.5526 -0.6096
  139SAPE     P15097   2.514   2.012  10.710  0.1085 -0.1209 -0.0925
  139SAPE   O1315098   2.569   1.883  10.683  0.2131  0.4887 -0.5626
  139SAPE   O1415099   2.440   2.041  10.835 -1.0977  0.1980 -0.1008
  139SAPE   O1215100   2.633   2.110  10.697 -0.0469  0.1851  0.2726
  139SAPE   O1115101   2.417   2.055  10.585  0.1569  0.5558 -1.2854
  139SAPE    C115102   2.474   2.067  10.453 -0.4266  0.4550  0.0372
  139SAPE    HA15103   2.560   2.136  10.467  1.3907 -2.0203  2.3486
  139SAPE    HB15104   2.509   1.965  10.423  0.6827  0.3248  1.6285
  139SAPE    C215105   2.379   2.126  10.354 -0.4115 -0.4009  0.2384
  139SAPE    HS15106   2.300   2.051  10.329 -0.6838 -0.6896  1.8134
  139SAPE   O2115107   2.459   2.170  10.245 -0.3176 -0.1789  0.3345
  139SAPE   C2115108   2.468   2.095  10.140  0.1784 -0.4767  0.1403
  139SAPE   O2215109   2.427   1.978  10.129 -0.3326  0.7150 -0.0189
  139SAPE   C2215110   2.544   2.176  10.039  0.2672 -0.0177  0.9595
  139SAPE   H2R15111   2.467   2.246  10.000 -0.2885 -0.3796  1.3803
  139SAPE   H2S15112   2.618   2.233  10.098 -0.2564  1.8580 -0.1340
  139SAPE    C315113   2.315   2.254  10.418 -0.6222  0.8853 -0.3486
  139SAPE    HX15114   2.393   2.317  10.465 -1.8796  1.9426  0.3861
  139SAPE    HY15115   2.254   2.236  10.509 -2.1047  0.5310 -1.3753
  139SAPE   O3115116   2.229   2.321  10.324 -0.1512  0.5626 -0.1968
  139SAPE   C3115117   2.124   2.248  10.284  0.7082 -0.2901 -0.7432
  139SAPE   O3215118   2.086   2.144  10.338  0.1302  0.2483  0.2754
  139SAPE   C3215119   2.055   2.317  10.165 -0.2780  0.6806 -0.3662
  139SAPE   H2X15120   2.141   2.354  10.105 -0.8037  0.9497 -0.9637
  139SAPE   H2Y15121   2.000   2.406  10.201 -1.8190 -0.5574  0.4858
  139SAPE   C2315122   2.616   2.104   9.927  0.1704 -0.4007 -0.1780
  139SAPE   H3R15123   2.554   2.037   9.864 -1.8877  1.2031 -0.0052
  139SAPE   H3S15124   2.712   2.065   9.966  0.2794  1.0055  1.0541
  139SAPE   C2415125   2.665   2.214   9.826 -0.1797 -0.1194  0.7097
  139SAPE   H4R15126   2.688   2.309   9.878 -1.9163  0.4371  0.5233
  139SAPE   H4S15127   2.582   2.229   9.753  1.2025  1.0588 -0.6729
  139SAPE   C2515128   2.783   2.165   9.739 -0.1545 -0.3477  0.2632
  139SAPE   H5R15129   2.882   2.168   9.785  0.2979 -0.6510 -0.6550
  139SAPE   C2615130   2.778   2.107   9.616  0.2655 -0.1091  0.2602
  139SAPE   H6R15131   2.877   2.092   9.570  1.1825  0.9503  1.7948
  139SAPE   C2715132   2.656   2.084   9.531 -0.1173  0.0612  0.2995
  139SAPE   H7R15133   2.564   2.108   9.588  0.7362  0.5399  1.5224
  139SAPE   H7S15134   2.654   1.975   9.506 -0.2488  0.0842  0.2082
  139SAPE   C2815135   2.677   2.177   9.411 -0.2031  0.5181  0.1230
  139SAPE   H8R15136   2.749   2.260   9.423  0.7712 -0.3935  0.8252
  139SAPE   C2915137   2.630   2.143   9.286 -0.0887 -0.1773 -0.2290
  139SAPE   H9R15138   2.644   2.206   9.197 -1.4666 -1.0521 -1.1079
  139SAPE  C21015139   2.556   2.018   9.245  0.1735  0.1476 -0.4426
  139SAPE  H10R15140   2.452   2.042   9.215 -0.9110 -0.2799  2.6167
  139SAPE  H10S15141   2.537   1.942   9.323  0.6397 -0.3788 -0.8357
  139SAPE  C21115142   2.628   1.963   9.125 -0.6882  0.3465 -1.0274
  139SAPE  H11R15143   2.734   1.952   9.151 -0.8616 -1.6104 -1.0012
  139SAPE  C21215144   2.584   1.941   9.000  0.5474  0.1734 -0.4950
  139SAPE  H12R15145   2.644   1.884   8.927  0.0088 -0.4487 -0.4612
  139SAPE  C21315146   2.443   1.975   8.956  0.4279  0.5087 -0.5889
  139SAPE  H13R15147   2.377   1.927   9.032  0.8745  0.9982  0.1270
  139SAPE  H13S15148   2.433   1.921   8.860 -0.0226  0.5592 -0.5694
  139SAPE  C21415149   2.414   2.123   8.955  0.4564 -0.4970 -0.1571
  139SAPE  H14R15150   2.478   2.194   9.010  0.1067 -0.0784 -0.2810
  139SAPE  C21515151   2.313   2.178   8.877  0.2411  0.0419 -0.0645
  139SAPE  H15R15152   2.295   2.286   8.881 -1.0289 -0.1954  1.6578
  139SAPE  C21615153   2.214   2.105   8.789 -1.1727  0.2066 -0.5361
  139SAPE  H16R15154   2.224   1.997   8.812  2.1258  0.3307 -0.8810
  139SAPE  H16S15155   2.249   2.130   8.686  1.2732 -0.8520 -0.0291
  139SAPE  C21715156   2.067   2.137   8.815  0.2023  0.1766 -0.2868
  139SAPE  H17R15157   2.045   2.237   8.770 -1.6604  0.5885  1.4090
  139SAPE  H17S15158   2.047   2.136   8.924  0.1817 -0.9454 -0.2971
  139SAPE  C21815159   1.973   2.040   8.748 -0.5037  0.0927  0.1350
  139SAPE  H18R15160   2.006   1.936   8.770  2.8952  0.9133 -0.6139
  139SAPE  H18S15161   1.985   2.049   8.638 -0.7129  0.2500  0.1251
  139SAPE  C21915162   1.826   2.057   8.788  0.6806 -1.1318  0.1317
  139SAPE  H19R15163   1.802   2.164   8.808 -0.5013 -1.2556 -0.5624
  139SAPE  H19S15164   1.796   1.993   8.874  0.9996 -1.7167 -0.1847
  139SAPE  C22015165   1.735   2.029   8.666  0.3908 -0.0704 -0.0970
  139SAPE  H20R15166   1.765   1.932   8.622 -0.1834 -0.7123  0.8955
  139SAPE  H20S15167   1.738   2.110   8.590 -1.8256  0.9236  0.7934
  139SAPE  H20T15168   1.631   2.012   8.701  0.3871  0.0586 -0.0450
  139SAPE   C3315169   1.968   2.226  10.079 -0.4004  0.1622 -0.4645
  139SAPE   H3X15170   1.922   2.281   9.994  2.7105  1.5576 -1.3752
  139SAPE   H3Y15171   1.889   2.186  10.147  1.7608 -0.8881  1.5565
  139SAPE   C3415172   2.034   2.104  10.019 -1.0083  0.2948  0.2213
  139SAPE   H4X15173   1.965   2.052   9.949  0.1469 -0.8559 -0.0985
  139SAPE   H4Y15174   2.071   2.049  10.108 -0.5639  0.7967  0.3540
  139SAPE   C3515175   2.158   2.140   9.941 -0.9289 -0.3544  0.8165
  139SAPE   H5X15176   2.209   2.044   9.919 -0.4852 -0.0550  0.5271
  139SAPE   H5Y15177   2.224   2.202  10.005  0.7047 -0.8704 -0.3244
  139SAPE   C3615178   2.127   2.199   9.807 -0.3706  0.5618 -0.2258
  139SAPE   H6X15179   2.052   2.279   9.823 -0.5035  0.0281  2.1398
  139SAPE   H6Y15180   2.077   2.125   9.740  1.2270  0.3352 -1.2345
  139SAPE   C3715181   2.252   2.246   9.730  0.3111  0.3823 -0.2411
  139SAPE   H7X15182   2.331   2.172   9.754 -0.9648 -1.2338 -0.8447
  139SAPE   H7Y15183   2.275   2.346   9.773  0.0149  1.0614 -1.6234
  139SAPE   C3815184   2.220   2.265   9.583  0.1260  0.3791 -0.0610
  139SAPE   H8X15185   2.124   2.318   9.568 -0.9273 -1.4095  0.1180
  139SAPE   H8Y15186   2.211   2.172   9.523 -0.7196  1.6237 -1.9456
  139SAPE   C3915187   2.327   2.358   9.519 -0.1959 -0.1295 -0.6772
  139SAPE   H9X15188   2.430   2.343   9.558  0.6409  1.8325 -1.9908
  139SAPE   H9Y15189   2.295   2.458   9.556 -1.3869 -0.9925  0.7529
  139SAPE  C31015190   2.319   2.367   9.367  0.3908 -0.0557 -0.2170
  139SAPE  H10X15191   2.212   2.367   9.335 -0.6046 -2.1669  2.6758
  139SAPE  H10Y15192   2.358   2.275   9.317 -0.5059  0.6659 -2.3989
  139SAPE  C31115193   2.402   2.482   9.304 -0.2491  0.4141  0.0888
  139SAPE  H11X15194   2.511   2.472   9.320 -0.4435  1.1400  2.1753
  139SAPE  H11Y15195   2.370   2.575   9.355 -1.0525 -0.4042  1.1471
  139SAPE  C31215196   2.380   2.499   9.155  0.2366 -0.5148  0.2775
  139SAPE  H12X15197   2.271   2.517   9.147  0.3170 -0.5593 -1.2620
  139SAPE  H12Y15198   2.399   2.402   9.104  3.1608  0.9945 -1.8254
  139SAPE  C31315199   2.478   2.606   9.106 -0.3144  0.7844  0.9899
  139SAPE  H13X15200   2.574   2.554   9.087  0.6505  2.7237  0.2707
  139SAPE  H13Y15201   2.507   2.688   9.175 -0.7163  0.8025  1.1399
  139SAPE  C31415202   2.431   2.651   8.963  0.1934  0.8988 -0.4254
  139SAPE  H14X15203   2.416   2.761   8.967 -1.9127  0.6320  2.3866
  139SAPE  H14Y15204   2.323   2.624   8.962  0.3168  0.1110  1.7152
  139SAPE  C31515205   2.506   2.581   8.852  0.5267 -0.1256  0.0654
  139SAPE  H15X15206   2.452   2.598   8.756 -1.7021 -0.0064  1.2885
  139SAPE  H15Y15207   2.495   2.475   8.880  2.0710  0.3427  2.7361
  139SAPE  C31615208   2.655   2.628   8.847 -0.7614  0.2218 -0.3204
  139SAPE  H16X15209   2.646   2.713   8.776 -2.0104 -0.1548 -0.6492
  139SAPE  H16Y15210   2.687   2.665   8.947 -0.7903 -0.0694 -0.2024
  139SAPE  C31715211   2.751   2.525   8.806  0.1048 -0.0551  0.5644
  139SAPE  H17X15212   2.854   2.563   8.786 -0.0567 -0.3699 -0.9669
  139SAPE  H17Y15213   2.719   2.494   8.704  0.8608 -0.3473  0.4103
  139SAPE  C31815214   2.771   2.407   8.894 -0.1871 -0.1902 -0.1940
  139SAPE  H18X15215   2.680   2.358   8.934  0.2791 -1.4209 -0.5896
  139SAPE  H18Y15216   2.828   2.441   8.983  0.9385 -1.3438 -0.4399
  139SAPE  H18Z15217   2.832   2.328   8.846 -1.1603 -0.3628 -1.1772
  140SAPE     N15218   0.591   5.388  10.708 -0.0593 -0.0127  0.0647
  140SAPE   HN115219   0.507   5.349  10.659 -1.7291  1.2355  1.7573
  140SAPE   HN215220   0.636   5.311  10.762 -0.4348 -1.3471 -1.4382
  140SAPE   HN315221   0.556   5.460  10.775 -1.8582  0.4167 -1.2587
  140SAPE   C1215222   0.689   5.455  10.623  0.7387 -1.0963  0.3283
  140SAPE  H12A15223   0.651   5.557  10.598 -0.9985 -1.5794  0.8390
  140SAPE  H12B15224   0.695   5.393  10.531  0.0855  0.3295 -0.7167
  140SAPE   C1115225   0.832   5.482  10.681  0.0053 -0.0170 -0.4990
  140SAPE  H11A15226   0.812   5.543  10.772  1.2710 -0.0748 -0.1545
  140SAPE  H11B15227   0.881   5.554  10.612 -1.0750  0.0584 -1.2218
  140SAPE     P15228   1.055   5.384  10.766  0.0424 -0.2470  0.0357
  140SAPE   O1315229   1.046   5.470  10.893 -0.0187  0.4298 -0.0094
  140SAPE   O1415230   1.115   5.254  10.790  0.2480  0.7861 -0.0889
  140SAPE   O1215231   0.912   5.367  10.710  0.3534  0.9111 -0.3801
  140SAPE   O1115232   1.128   5.460  10.650 -0.2453 -0.0727 -0.4325
  140SAPE    C115233   1.177   5.387  10.535 -0.3296  0.2574  0.0803
  140SAPE    HA15234   1.274   5.339  10.563 -1.0647 -0.9948  0.5569
  140SAPE    HB15235   1.106   5.306  10.510 -0.2124  0.2945 -0.3756
  140SAPE    C215236   1.187   5.470  10.405  0.1339 -0.2595 -0.1982
  140SAPE    HS15237   1.230   5.401  10.330  2.6100  0.7649  0.1936
  140SAPE   O2115238   1.278   5.582  10.434 -0.0170 -0.8503  0.2409
  140SAPE   C2115239   1.405   5.548  10.431  0.3547 -0.6379  1.1749
  140SAPE   O2215240   1.448   5.440  10.390  1.1869 -0.2297 -0.5381
  140SAPE   C2215241   1.489   5.676  10.456 -0.1282 -0.5456  0.7034
  140SAPE   H2R15242   1.430   5.744  10.523  0.1157 -0.9265  1.3178
  140SAPE   H2S15243   1.571   5.636  10.519  2.0987  2.7959  0.1937
  140SAPE    C315244   1.056   5.537  10.358 -0.3621  0.5486 -0.2906
  140SAPE    HX15245   1.077   5.597  10.266  0.6319  1.9824  0.8169
  140SAPE    HY15246   1.024   5.606  10.439 -0.4502  0.5592 -0.3349
  140SAPE   O3115247   0.957   5.436  10.330  0.2345 -0.1767 -0.0320
  140SAPE   C3115248   0.850   5.489  10.259 -0.3775  1.0502  0.0087
  140SAPE   O3215249   0.837   5.607  10.240  0.0386  0.1954 -0.3181
  140SAPE   C3215250   0.748   5.378  10.225 -0.4237 -0.5690 -0.1770
  140SAPE   H2X15251   0.700   5.356  10.323  1.1908  2.4250  1.4088
  140SAPE   H2Y15252   0.801   5.284  10.199 -0.6353 -1.0406  1.0044
  140SAPE   C2315253   1.534   5.737  10.319 -0.1953  0.7378  0.6160
  140SAPE   H3R15254   1.548   5.659  10.242  1.9357  1.0594  0.6183
  140SAPE   H3S15255   1.636   5.782  10.327  0.7803 -0.9397 -1.5398
  140SAPE   C2415256   1.435   5.842  10.273 -0.0763 -0.3246 -0.5758
  140SAPE   H4R15257   1.484   5.901  10.193 -1.1217  1.8322  0.2797
  140SAPE   H4S15258   1.430   5.911  10.360  1.2247 -1.6645  0.6209
  140SAPE   C2515259   1.294   5.814  10.225  0.5490  0.7439 -0.1588
  140SAPE   H5R15260   1.212   5.860  10.282  0.4034  0.5210 -0.1899
  140SAPE   C2615261   1.272   5.731  10.120 -0.7583 -0.7222  0.2568
  140SAPE   H6R15262   1.166   5.728  10.089 -1.9631  0.1098  3.8408
  140SAPE   C2715263   1.377   5.665  10.032  0.4173  0.7843  0.2800
  140SAPE   H7R15264   1.471   5.720  10.054  1.6532 -0.8754 -0.6327
  140SAPE   H7S15265   1.339   5.675   9.928 -1.9008 -0.7261  0.9121
  140SAPE   C2815266   1.426   5.520  10.051  0.5845 -0.6421 -0.1291
  140SAPE   H8R15267   1.422   5.482  10.154 -2.9412  0.3628  0.2526
  140SAPE   C2915268   1.472   5.442   9.950 -0.3237 -0.4776 -0.3943
  140SAPE   H9R15269   1.510   5.342   9.972  0.0461 -0.2527  0.0055
  140SAPE  C21015270   1.485   5.476   9.804  0.0964  0.7642 -0.1011
  140SAPE  H10R15271   1.384   5.489   9.759  0.5434 -1.6523 -1.9977
  140SAPE  H10S15272   1.523   5.391   9.744  3.6654  1.6354  0.6920
  140SAPE  C21115273   1.560   5.605   9.768 -0.3689  0.4859  0.3630
  140SAPE  H11R15274   1.592   5.669   9.851  0.9203 -2.6934  2.5266
  140SAPE  C21215275   1.587   5.658   9.650 -0.0770 -0.5213 -0.0319
  140SAPE  H12R15276   1.650   5.748   9.647 -0.0754 -0.5188  0.0809
  140SAPE  C21315277   1.545   5.605   9.517  0.3194 -0.6646  0.3695
  140SAPE  H13R15278   1.449   5.553   9.537 -0.0530  0.0391  0.4397
  140SAPE  H13S15279   1.627   5.535   9.491  0.1598 -1.3994  1.7744
  140SAPE  C21415280   1.528   5.700   9.400  1.0535 -0.4581 -0.2728
  140SAPE  H14R15281   1.430   5.751   9.391  1.1089 -0.1366  0.8561
  140SAPE  C21515282   1.607   5.718   9.297 -0.1869  0.4363 -0.0701
  140SAPE  H15R15283   1.576   5.788   9.218  3.6726  2.2503 -0.2291
  140SAPE  C21615284   1.741   5.654   9.274  0.2006  0.1253 -0.3119
  140SAPE  H16R15285   1.729   5.562   9.212 -1.0871  0.3947 -0.4901
  140SAPE  H16S15286   1.785   5.623   9.371  0.6129 -1.3928 -0.9622
  140SAPE  C21715287   1.838   5.747   9.199 -0.2841  0.4931 -0.3223
  140SAPE  H17R15288   1.921   5.674   9.195  0.5622  1.4207 -0.0781
  140SAPE  H17S15289   1.886   5.829   9.257 -1.1913  0.5834  0.3197
  140SAPE  C21815290   1.786   5.795   9.065  0.0670 -0.2541  0.0188
  140SAPE  H18R15291   1.701   5.864   9.083  0.0077 -0.5409  0.8574
  140SAPE  H18S15292   1.743   5.704   9.018 -1.6469  0.9716 -0.8906
  140SAPE  C21915293   1.889   5.849   8.967  0.5151  0.0192  0.1050
  140SAPE  H19R15294   1.856   5.824   8.864  1.1421  0.1469 -0.1289
  140SAPE  H19S15295   1.986   5.798   8.987  2.5773  3.2631 -0.9386
  140SAPE  C22015296   1.914   6.000   8.980 -0.5536 -0.7602  0.9360
  140SAPE  H20R15297   2.007   6.043   8.935 -2.0119  2.0000  0.3799
  140SAPE  H20S15298   1.931   6.009   9.089  2.5102 -0.9133  0.5826
  140SAPE  H20T15299   1.827   6.067   8.963  1.0079  1.5953  1.7628
  140SAPE   C3315300   0.643   5.441  10.121 -0.1974 -0.3658 -0.0804
  140SAPE   H3X15301   0.607   5.540  10.156 -0.6688 -0.4123 -0.4204
  140SAPE   H3Y15302   0.557   5.371  10.121  0.1411 -0.7933 -0.5429
  140SAPE   C3415303   0.700   5.451   9.981  0.0785 -0.3576  0.3201
  140SAPE   H4X15304   0.745   5.355   9.949  0.4909 -0.9116  2.4070
  140SAPE   H4Y15305   0.790   5.516   9.979 -2.0421  2.7844 -0.5208
  140SAPE   C3515306   0.604   5.500   9.872 -0.6925 -0.5348  0.8684
  140SAPE   H5X15307   0.549   5.591   9.905  0.5352  0.9472 -0.9785
  140SAPE   H5Y15308   0.536   5.413   9.861  1.2611 -1.9581 -0.5972
  140SAPE   C3615309   0.677   5.528   9.739 -0.0690  0.8114 -0.1587
  140SAPE   H6X15310   0.756   5.452   9.721 -0.3997  0.3984  0.1187
  140SAPE   H6Y15311   0.727   5.627   9.742  0.3539  0.5778  0.7936
  140SAPE   C3715312   0.588   5.526   9.612 -0.3550 -0.5114 -1.0771
  140SAPE   H7X15313   0.490   5.571   9.638  0.5782  0.2797  1.4552
  140SAPE   H7Y15314   0.578   5.420   9.582  2.5463 -1.5698  1.1527
  140SAPE   C3815315   0.651   5.606   9.500 -0.0575 -0.1126 -0.1736
  140SAPE   H8X15316   0.757   5.581   9.478 -0.2726 -2.4513  1.0224
  140SAPE   H8Y15317   0.646   5.712   9.533  0.9234  0.1770 -0.9276
  140SAPE   C3915318   0.577   5.580   9.363 -0.4773 -0.4912 -0.1468
  140SAPE   H9X15319   0.471   5.610   9.371  0.4596  3.6001 -0.7512
  140SAPE   H9Y15320   0.582   5.474   9.330 -2.7287  0.2666 -3.3652
  140SAPE  C31015321   0.631   5.666   9.245  0.7133  0.1927  0.1788
  140SAPE  H10X15322   0.741   5.648   9.242  0.4759 -1.2784 -0.5374
  140SAPE  H10Y15323   0.608   5.772   9.270 -1.0402  0.0242 -0.5358
  140SAPE  C31115324   0.571   5.615   9.110  0.0666  0.0529 -0.5757
  140SAPE  H11X15325   0.462   5.602   9.122  0.2190  0.2988  1.4568
  140SAPE  H11Y15326   0.619   5.516   9.093  1.1633  0.3059  0.8836
  140SAPE  C31215327   0.621   5.703   8.991  0.2530  0.7448 -0.6430
  140SAPE  H12X15328   0.731   5.711   9.000  0.7172 -0.7542 -3.7521
  140SAPE  H12Y15329   0.586   5.808   8.981 -0.4301  0.5566 -0.3503
  140SAPE  C31315330   0.596   5.636   8.859  0.1086 -0.2552  0.0272
  140SAPE  H13X15331   0.487   5.639   8.839 -0.2280  3.1329  1.6681
  140SAPE  H13Y15332   0.652   5.540   8.859 -0.9966 -0.9349 -1.5020
  140SAPE  C31415333   0.652   5.731   8.744  0.4593  0.1015  0.2162
  140SAPE  H14X15334   0.763   5.731   8.754  0.5762  1.7182 -0.7359
  140SAPE  H14Y15335   0.598   5.827   8.761  0.4143 -0.2291  2.0898
  140SAPE  C31515336   0.608   5.672   8.608 -0.2446 -0.1358 -0.6568
  140SAPE  H15X15337   0.499   5.689   8.599 -0.3723 -0.4200  0.2986
  140SAPE  H15Y15338   0.624   5.562   8.600  2.6869  0.2493 -1.3946
  140SAPE  C31615339   0.677   5.735   8.486 -0.4963  0.3841  0.1289
  140SAPE  H16X15340   0.727   5.655   8.427 -0.5752 -0.5572  1.2985
  140SAPE  H16Y15341   0.736   5.818   8.532 -2.1236  2.1674 -0.8642
  140SAPE  C31715342   0.571   5.806   8.401  0.0817 -0.3081 -0.1370
  140SAPE  H17X15343   0.500   5.871   8.457 -0.7132 -1.1625 -0.1369
  140SAPE  H17Y15344   0.515   5.723   8.354 -1.2608  1.1331 -1.1964
  140SAPE  C31815345   0.622   5.886   8.281  0.0482 -0.6026  0.5739
  140SAPE  H18X15346   0.546   5.886   8.200  0.6673  1.2122 -0.0567
  140SAPE  H18Y15347   0.719   5.847   8.243  0.6685  1.2419  0.1912
  140SAPE  H18Z15348   0.634   5.992   8.311 -1.4146  0.0143 -0.8609
  141SAPE     N15349   1.299   6.639  10.469 -0.1749 -0.6530 -0.5754
  141SAPE   HN115350   1.206   6.645  10.517 -0.3972  1.3312 -1.1798
  141SAPE   HN215351   1.277   6.617  10.370 -0.3088 -1.7016 -0.3346
  141SAPE   HN315352   1.345   6.553  10.505 -1.3331 -1.0050  0.1419
  141SAPE   C1215353   1.372   6.765  10.501 -0.6733 -0.8446  0.6126
  141SAPE  H12A15354   1.434   6.781  10.410  0.7889  2.3857  1.9761
  141SAPE  H12B15355   1.431   6.743  10.593 -0.5710  3.3671  1.7609
  141SAPE   C1115356   1.278   6.879  10.515  0.0984 -0.0632 -0.5777
  141SAPE  H11A15357   1.233   6.901  10.416  0.6210 -1.0372 -1.0536
  141SAPE  H11B15358   1.336   6.967  10.549 -2.4140  1.2571  0.5649
  141SAPE     P15359   1.033   6.797  10.592 -0.1854  0.0661  0.2874
  141SAPE   O1315360   1.058   6.652  10.557  0.6601 -0.5393  0.3133
  141SAPE   O1415361   0.955   6.817  10.714  0.1688 -0.2708 -0.3511
  141SAPE   O1215362   1.176   6.857  10.618  0.1656 -0.3980  0.4625
  141SAPE   O1115363   0.969   6.890  10.473  0.2621  0.7152  0.2357
  141SAPE    C115364   0.969   7.033  10.484 -0.1259 -0.3044  0.4633
  141SAPE    HA15365   0.877   7.063  10.540 -1.0001 -1.4841 -0.3021
  141SAPE    HB15366   1.059   7.063  10.542  0.0762 -1.8577  0.9972
  141SAPE    C215367   0.964   7.091  10.342 -0.4086  0.5537 -0.0084
  141SAPE    HS15368   0.861   7.074  10.304  0.0330 -1.6775 -0.3361
  141SAPE   O2115369   1.064   7.030  10.250 -0.2928  0.7274  0.1202
  141SAPE   C2115370   1.009   6.968  10.147 -0.6345  0.3637  0.6914
  141SAPE   O2215371   0.891   6.965  10.115 -0.1996  0.4586 -0.0729
  141SAPE   C2215372   1.114   6.908  10.054  0.2195  0.4817  0.2819
  141SAPE   H2R15373   1.144   6.981   9.976 -0.6509  1.2239  0.6312
  141SAPE   H2S15374   1.201   6.878  10.117  0.2905 -0.4491 -0.2455
  141SAPE    C315375   0.987   7.243  10.358  0.6450 -0.4308  0.5311
  141SAPE    HX15376   1.093   7.267  10.383  1.0942 -0.7172 -1.0079
  141SAPE    HY15377   0.944   7.296  10.446  0.2474  0.1611 -0.0173
  141SAPE   O3115378   0.960   7.314  10.236  0.1512  0.2115 -0.3930
  141SAPE   C3115379   0.835   7.358  10.227 -0.2084 -0.2533  0.0563
  141SAPE   O3215380   0.746   7.360  10.312  0.2974  0.0533 -0.1340
  141SAPE   C3215381   0.815   7.410  10.085 -0.0354 -0.4560 -0.4797
  141SAPE   H2X15382   0.882   7.497  10.072  1.4364 -1.4642  0.1134
  141SAPE   H2Y15383   0.714   7.457  10.089  0.9738  1.7417  2.4585
  141SAPE   C2315384   1.063   6.782   9.976 -0.6491  0.6683 -0.3523
  141SAPE   H3R15385   1.006   6.712  10.042  0.0210  2.2161  1.9749
  141SAPE   H3S15386   1.154   6.727   9.945 -1.9456 -1.2461 -1.0082
  141SAPE   C2415387   0.982   6.800   9.846 -0.9184 -0.5109  0.1493
  141SAPE   H4R15388   1.036   6.857   9.768 -2.0446 -1.7033 -1.5515
  141SAPE   H4S15389   0.892   6.856   9.879 -0.1318  0.7063  0.3049
  141SAPE   C2515390   0.940   6.675   9.785  0.5445  1.3274  0.5266
  141SAPE   H5R15391   0.917   6.600   9.863  1.2986 -1.0517 -1.3991
  141SAPE   C2615392   0.929   6.637   9.653  0.6366 -0.4589 -0.0570
  141SAPE   H6R15393   0.883   6.545   9.615 -0.9476  0.6417 -0.9022
  141SAPE   C2715394   0.956   6.740   9.546 -0.2212 -0.2857 -0.3262
  141SAPE   H7R15395   0.973   6.844   9.583 -0.9560 -0.2486 -0.0668
  141SAPE   H7S15396   0.868   6.740   9.479  0.3198  0.1942 -1.0494
  141SAPE   C2815397   1.068   6.703   9.452 -0.4944  0.8632 -0.2877
  141SAPE   H8R15398   1.165   6.751   9.473 -0.2659 -0.0784  0.9191
  141SAPE   C2915399   1.067   6.609   9.350 -0.3341  0.0713  0.2513
  141SAPE   H9R15400   1.162   6.603   9.296 -0.2524  1.9174  0.1477
  141SAPE  C21015401   0.945   6.526   9.310  0.6744  0.5644 -0.0496
  141SAPE  H10R15402   0.857   6.576   9.356  1.8904  1.1711  1.7515
  141SAPE  H10S15403   0.956   6.424   9.351  0.4291  0.3353 -0.5474
  141SAPE  C21115404   0.951   6.522   9.159  0.0231  0.0396 -0.3617
  141SAPE  H11R15405   1.054   6.504   9.125 -0.3576 -0.7088 -1.1526
  141SAPE  C21215406   0.856   6.574   9.075  0.1957  0.9843 -0.3327
  141SAPE  H12R15407   0.865   6.543   8.970  0.2349 -0.7510  0.1530
  141SAPE  C21315408   0.731   6.651   9.106  0.2330 -0.5275  0.1117
  141SAPE  H13R15409   0.727   6.655   9.217  2.2009 -2.4465  0.2993
  141SAPE  H13S15410   0.639   6.600   9.068 -1.3709  1.5948  0.9277
  141SAPE  C21415411   0.722   6.789   9.050  0.1615  0.4493  0.3796
  141SAPE  H14R15412   0.711   6.870   9.123 -0.9481  1.3839 -0.7813
  141SAPE  C21515413   0.715   6.824   8.919 -0.3217 -0.5767 -0.0442
  141SAPE  H15R15414   0.689   6.930   8.905 -0.1019 -0.5390 -0.1848
  141SAPE  C21615415   0.708   6.727   8.801  0.3133  0.1889  0.0635
  141SAPE  H16R15416   0.704   6.620   8.830  0.5865 -0.8754 -3.4070
  141SAPE  H16S15417   0.798   6.742   8.738 -0.8608 -1.4968 -2.1555
  141SAPE  C21715418   0.588   6.762   8.705 -0.3623 -0.2228 -0.4169
  141SAPE  H17R15419   0.583   6.708   8.608  1.9045  2.0710 -1.9691
  141SAPE  H17S15420   0.601   6.867   8.673 -0.3096 -0.1860 -0.2773
  141SAPE  C21815421   0.448   6.749   8.775  0.1004 -0.4264 -0.0320
  141SAPE  H18R15422   0.424   6.842   8.831 -0.2891  0.6628 -1.9275
  141SAPE  H18S15423   0.450   6.669   8.852  2.8069  0.6305  1.1388
  141SAPE  C21915424   0.338   6.708   8.671 -0.3526 -0.0045  0.0828
  141SAPE  H19R15425   0.349   6.603   8.637  0.0326 -0.3684  1.2856
  141SAPE  H19S15426   0.335   6.770   8.579  0.6332  0.1059  0.1155
  141SAPE  C22015427   0.202   6.708   8.748 -0.1003  0.3545 -0.5046
  141SAPE  H20R15428   0.218   6.641   8.836 -1.5600  1.6647  0.8205
  141SAPE  H20S15429   0.141   6.648   8.678  1.5173 -2.7191  0.5269
  141SAPE  H20T15430   0.165   6.807   8.782  0.3194  0.5030 -0.4667
  141SAPE   C3315431   0.834   7.308   9.969 -0.5836  0.3028  0.1108
  141SAPE   H3X15432   0.765   7.350   9.894 -1.0173  1.9277  1.3716
  141SAPE   H3Y15433   0.799   7.206   9.997  0.4568 -0.2047 -0.3653
  141SAPE   C3415434   0.984   7.308   9.916 -0.6795  0.0551 -0.2061
  141SAPE   H4X15435   1.043   7.261   9.998  0.3012 -2.6079 -2.2917
  141SAPE   H4Y15436   0.999   7.415   9.891  0.5096  0.5562  2.3174
  141SAPE   C3515437   1.001   7.222   9.789 -0.7609 -0.1006  0.5484
  141SAPE   H5X15438   0.957   7.122   9.812 -1.8050 -0.0202 -0.9161
  141SAPE   H5Y15439   1.107   7.219   9.757 -1.2926 -0.6136 -1.2513
  141SAPE   C3615440   0.926   7.280   9.676  0.6612  0.4651  0.6776
  141SAPE   H6X15441   0.946   7.390   9.680  0.8576  0.4195  0.9411
  141SAPE   H6Y15442   0.816   7.268   9.678  0.7558 -1.7776 -1.9599
  141SAPE   C3715443   0.977   7.253   9.535  0.3123 -0.2734  0.5140
  141SAPE   H7X15444   1.074   7.305   9.517 -0.8100  1.4080 -1.1358
  141SAPE   H7Y15445   0.898   7.300   9.472 -0.0215 -1.3898  0.0805
  141SAPE   C3815446   0.980   7.112   9.503 -0.4506  0.3313 -0.0661
  141SAPE   H8X15447   0.876   7.072   9.505  0.0512 -1.0119  0.3224
  141SAPE   H8Y15448   1.038   7.049   9.573  1.2077 -0.4836 -2.0540
  141SAPE   C3915449   1.035   7.085   9.363 -0.0593 -0.0038 -0.3993
  141SAPE   H9X15450   1.041   6.974   9.353  0.2187 -0.1773  1.3570
  141SAPE   H9Y15451   1.134   7.134   9.357 -0.3927  0.6407 -0.7517
  141SAPE  C31015452   0.962   7.133   9.241  0.5185  0.1138 -0.5164
  141SAPE  H10X15453   0.985   7.240   9.220 -1.3017  0.1615 -2.6055
  141SAPE  H10Y15454   0.853   7.125   9.259  0.6741  0.1921  0.5347
  141SAPE  C31115455   1.007   7.051   9.112 -0.4910 -0.2867  0.2133
  141SAPE  H11X15456   1.003   6.940   9.119  2.1679 -0.5550 -1.3019
  141SAPE  H11Y15457   1.114   7.079   9.111 -0.5948  0.3572  2.3989
  141SAPE  C31215458   0.950   7.106   8.983 -0.8294 -0.0743 -0.3918
  141SAPE  H12X15459   0.940   7.216   8.997 -0.5894  0.0566 -1.2250
  141SAPE  H12Y15460   0.847   7.064   8.976 -0.3269 -1.3153 -0.6623
  141SAPE  C31315461   1.031   7.081   8.854  0.2447  0.2756 -0.2444
  141SAPE  H13X15462   1.036   6.971   8.837 -2.5429  0.0433  0.1013
  141SAPE  H13Y15463   1.135   7.114   8.876  0.2956 -0.1912  0.2366
  141SAPE  C31415464   0.971   7.149   8.729 -0.4331 -0.4406 -0.6623
  141SAPE  H14X15465   0.980   7.258   8.749 -2.0523 -0.3563 -0.1646
  141SAPE  H14Y15466   0.862   7.127   8.728 -0.6901  0.7796 -1.1898
  141SAPE  C31515467   1.036   7.098   8.607  0.3704  0.1034 -0.2720
  141SAPE  H15X15468   1.006   6.993   8.587  0.9680  0.3366 -2.7693
  141SAPE  H15Y15469   1.146   7.086   8.618  0.2142 -3.3932 -1.2836
  141SAPE  C31615470   0.999   7.183   8.485  0.1482  0.0870  0.4035
  141SAPE  H16X15471   1.012   7.292   8.496  1.0873 -0.0414  0.6011
  141SAPE  H16Y15472   0.892   7.160   8.466 -0.0968  0.9842  0.6487
  141SAPE  C31715473   1.080   7.144   8.357  0.6074 -0.1911 -0.6306
  141SAPE  H17X15474   1.034   7.051   8.318  0.1200  0.0356 -0.5979
  141SAPE  H17Y15475   1.184   7.119   8.389  0.0656 -0.3614  1.1090
  141SAPE  C31815476   1.068   7.253   8.249  0.2252  0.0450 -0.4487
  141SAPE  H18X15477   0.963   7.280   8.227  0.1171 -0.6812 -0.8541
  141SAPE  H18Y15478   1.110   7.217   8.153 -2.0177 -0.1893 -1.4113
  141SAPE  H18Z15479   1.113   7.349   8.282 -1.0145  1.2175 -2.0261
  142SAPE     N15480   1.362   4.246  11.016 -0.1492  0.2728  0.1753
  142SAPE   HN115481   1.454   4.231  11.062  1.1148 -0.1234 -2.2696
  142SAPE   HN215482   1.344   4.346  10.996 -0.6988  0.5028  1.7471
  142SAPE   HN315483   1.284   4.218  11.079 -0.1269 -2.0493 -0.6982
  142SAPE   C1215484   1.358   4.157  10.893 -0.4550 -0.4638  0.0946
  142SAPE  H12A15485   1.330   4.053  10.918 -1.2219 -0.6419 -1.3776
  142SAPE  H12B15486   1.457   4.164  10.844  0.8720 -2.6939  2.2609
  142SAPE   C1115487   1.243   4.205  10.793  0.0378  0.2782  0.1354
  142SAPE  H11A15488   1.236   4.124  10.718  1.3305  2.0813 -2.0357
  142SAPE  H11B15489   1.267   4.301  10.743 -0.0276  0.0584 -0.3159
  142SAPE     P15490   1.001   4.287  10.829 -0.1833 -0.0331  0.1106
  142SAPE   O1315491   0.879   4.211  10.870 -0.0261  0.1281 -0.3670
  142SAPE   O1415492   1.001   4.422  10.886 -0.1755  0.5563  0.2667
  142SAPE   O1215493   1.123   4.210  10.881 -0.3939  0.0036  0.3771
  142SAPE   O1115494   1.019   4.301  10.679 -0.4754  0.2834 -0.4317
  142SAPE    C115495   0.952   4.222  10.579  0.3723  0.8430  0.4587
  142SAPE    HA15496   0.892   4.136  10.616 -2.3161  1.5574 -1.8326
  142SAPE    HB15497   0.875   4.279  10.524 -1.2084 -1.1465  0.4909
  142SAPE    C215498   1.048   4.164  10.473  0.6242  0.1241  0.9406
  142SAPE    HS15499   1.142   4.135  10.525  0.8215 -2.4457 -0.6603
  142SAPE   O2115500   1.069   4.273  10.383 -0.2064  0.3640  0.3885
  142SAPE   C2115501   1.180   4.266  10.309  0.1291 -0.6221  0.3119
  142SAPE   O2215502   1.275   4.192  10.319 -0.2816  0.7875  0.0544
  142SAPE   C2215503   1.185   4.389  10.212 -0.1095  0.0768 -0.0174
  142SAPE   H2R15504   1.201   4.481  10.272 -2.1325  1.4554 -1.4684
  142SAPE   H2S15505   1.266   4.370  10.138 -0.7777  0.0827 -0.7646
  142SAPE    C315506   0.989   4.032  10.396 -0.0372 -0.4566 -0.3106
  142SAPE    HX15507   0.983   3.951  10.472 -1.0970  2.0095  2.4316
  142SAPE    HY15508   1.064   4.004  10.319  0.8407 -1.8913  0.9920
  142SAPE   O3115509   0.858   4.055  10.341  0.4006  1.0467 -0.4323
  142SAPE   C3115510   0.853   4.091  10.209  0.4723  0.1134  0.3644
  142SAPE   O3215511   0.955   4.081  10.141  0.3771 -0.2806 -0.1316
  142SAPE   C3215512   0.706   4.114  10.170  0.5686 -0.3396 -0.2988
  142SAPE   H2X15513   0.676   4.188  10.248  2.8060 -1.7199  2.0464
  142SAPE   H2Y15514   0.648   4.021  10.185 -0.5972  0.5223  0.6880
  142SAPE   C2315515   1.051   4.411  10.130 -0.3218 -0.3378 -0.1545
  142SAPE   H3R15516   0.961   4.415  10.195 -0.3342  1.7778 -0.2164
  142SAPE   H3S15517   1.042   4.325  10.061 -2.7062  0.5127 -0.9935
  142SAPE   C2415518   1.064   4.542  10.052  0.2161  0.2638 -0.2437
  142SAPE   H4R15519   0.977   4.553   9.984  0.5891  0.8431 -0.6324
  142SAPE   H4S15520   1.150   4.540   9.982 -0.4160 -1.0140 -1.0085
  142SAPE   C2515521   1.071   4.673  10.133  0.0392  0.3062 -0.5819
  142SAPE   H5R15522   0.971   4.704  10.169  0.5532 -2.2526  3.8476
  142SAPE   C2615523   1.181   4.742  10.155  0.3706 -0.2668 -0.2829
  142SAPE   H6R15524   1.175   4.820  10.232 -1.2494 -0.2397 -0.3900
  142SAPE   C2715525   1.322   4.705  10.111 -0.4288 -0.7914  0.9667
  142SAPE   H7R15526   1.335   4.732  10.004  0.5217 -3.4559  0.3208
  142SAPE   H7S15527   1.335   4.595  10.105 -1.5081 -0.8675 -0.8275
  142SAPE   C2815528   1.421   4.782  10.185 -0.1620  0.0962 -0.0689
  142SAPE   H8R15529   1.427   4.750  10.290 -1.6123 -1.3195 -0.3939
  142SAPE   C2915530   1.502   4.885  10.142  0.1641 -0.1613  0.4304
  142SAPE   H9R15531   1.571   4.930  10.215  3.5637  0.0779 -2.6222
  142SAPE  C21015532   1.516   4.939  10.001 -0.2740 -0.0991 -0.4072
  142SAPE  H10R15533   1.413   4.952   9.962 -0.0518  1.2688 -0.5997
  142SAPE  H10S15534   1.559   4.869   9.927 -1.8502 -1.5743  0.0194
  142SAPE  C21115535   1.576   5.076   9.982 -0.4827 -0.1093  0.1652
  142SAPE  H11R15536   1.594   5.139  10.071 -1.3275  1.3258 -0.6296
  142SAPE  C21215537   1.626   5.118   9.869  0.1740  0.8373  0.1585
  142SAPE  H12R15538   1.674   5.216   9.875 -1.1606  1.5121  0.1366
  142SAPE  C21315539   1.644   5.042   9.741 -0.8167 -0.0499  0.4159
  142SAPE  H13R15540   1.545   5.014   9.699 -1.1246 -0.9031  1.6551
  142SAPE  H13S15541   1.687   4.941   9.761 -0.9925 -0.6592 -1.9658
  142SAPE  C21415542   1.721   5.126   9.636  0.4849  0.3580 -0.8495
  142SAPE  H14R15543   1.801   5.195   9.669 -1.7753  1.9083  1.8045
  142SAPE  C21515544   1.675   5.150   9.510 -0.1802  0.0565 -0.2541
  142SAPE  H15R15545   1.733   5.213   9.442  0.6681 -1.3990 -0.9141
  142SAPE  C21615546   1.549   5.101   9.445 -0.4101 -1.1061 -0.3046
  142SAPE  H16R15547   1.465   5.170   9.469 -0.4710 -2.2082  3.1189
  142SAPE  H16S15548   1.540   5.002   9.493  1.2949 -1.1774 -0.0717
  142SAPE  C21715549   1.561   5.069   9.297 -0.0843 -0.2104  0.3701
  142SAPE  H17R15550   1.490   4.989   9.270  2.5747 -1.7566 -2.8347
  142SAPE  H17S15551   1.665   5.044   9.264  0.0286  2.8979 -2.2271
  142SAPE  C21815552   1.521   5.189   9.206  0.1272  0.0503 -0.7795
  142SAPE  H18R15553   1.597   5.268   9.222 -0.8236  1.5484 -3.1770
  142SAPE  H18S15554   1.426   5.227   9.249 -1.7530 -1.1577 -3.5617
  142SAPE  C21915555   1.507   5.144   9.066  0.4114 -0.0574  0.0298
  142SAPE  H19R15556   1.596   5.087   9.030 -0.8404 -3.2100  1.5107
  142SAPE  H19S15557   1.491   5.231   9.000  0.8564 -0.6212 -0.8428
  142SAPE  C22015558   1.385   5.057   9.045  1.1540  0.7163 -0.2837
  142SAPE  H20R15559   1.365   5.054   8.936  1.7006  1.0187 -0.3944
  142SAPE  H20S15560   1.298   5.097   9.102  0.0430 -1.6192 -0.2162
  142SAPE  H20T15561   1.403   4.953   9.080  2.9252  1.2894  0.6350
  142SAPE   C3315562   0.680   4.158  10.025 -0.6417 -0.9061 -0.1019
  142SAPE   H3X15563   0.766   4.218   9.990 -0.9525 -1.0059 -1.0851
  142SAPE   H3Y15564   0.594   4.228  10.025  1.7171  2.2077  0.9044
  142SAPE   C3415565   0.660   4.047   9.918 -0.1725 -0.3735 -0.3736
  142SAPE   H4X15566   0.585   3.969   9.942 -0.2169 -0.6639 -1.4210
  142SAPE   H4Y15567   0.756   3.993   9.903 -0.0399  0.1720 -1.6038
  142SAPE   C3515568   0.624   4.099   9.778  0.9560 -0.3421 -0.5655
  142SAPE   H5X15569   0.675   4.194   9.751 -0.6167 -0.0007 -2.6089
  142SAPE   H5Y15570   0.515   4.122   9.782  0.7887 -1.2392  0.2931
  142SAPE   C3615571   0.669   4.018   9.659 -0.3325 -0.0798  0.0256
  142SAPE   H6X15572   0.618   3.920   9.663 -1.4722  0.4761 -0.5347
  142SAPE   H6Y15573   0.779   4.004   9.663 -0.2947 -0.0476 -0.8384
  142SAPE   C3715574   0.635   4.085   9.526 -0.5398 -0.1817 -0.8347
  142SAPE   H7X15575   0.683   4.183   9.503  2.4455 -1.0994  0.9780
  142SAPE   H7Y15576   0.525   4.096   9.516 -0.8098 -2.2631 -0.5829
  142SAPE   C3815577   0.665   3.998   9.403 -0.4974 -0.7446  0.3249
  142SAPE   H8X15578   0.620   3.897   9.413 -0.8522 -0.8254 -1.6747
  142SAPE   H8Y15579   0.774   3.981   9.397 -0.3545 -1.2066  2.8105
  142SAPE   C3915580   0.609   4.072   9.278  0.3887 -0.1956 -1.0619
  142SAPE   H9X15581   0.669   4.160   9.248  4.0556 -1.6816  1.2414
  142SAPE   H9Y15582   0.503   4.100   9.299 -0.3191 -2.1365 -1.8230
  142SAPE  C31015583   0.606   3.984   9.153  0.2820 -0.2144 -0.4196
  142SAPE  H10X15584   0.700   3.927   9.136  0.8566  0.1560  1.3416
  142SAPE  H10Y15585   0.594   4.052   9.066 -0.2977  0.2222  0.0054
  142SAPE  C31115586   0.495   3.881   9.150 -0.0664 -0.7576 -0.2394
  142SAPE  H11X15587   0.475   3.821   9.242 -2.3139  3.3484  2.2674
  142SAPE  H11Y15588   0.521   3.814   9.066  1.0947  1.3925 -1.6840
  142SAPE  C31215589   0.365   3.948   9.106 -0.2685 -0.2359  0.1327
  142SAPE  H12X15590   0.366   4.016   9.018  0.8679 -0.1149  0.2219
  142SAPE  H12Y15591   0.330   4.013   9.189 -2.0480 -0.7576 -0.1498
  142SAPE  C31315592   0.255   3.834   9.084  0.6054  0.4033 -0.4262
  142SAPE  H13X15593   0.267   3.755   9.161  1.6406 -1.8267 -2.7343
  142SAPE  H13Y15594   0.284   3.774   8.995  0.1775  0.2234 -0.4497
  142SAPE  C31415595   0.109   3.889   9.078 -0.4733  0.9141  0.2186
  142SAPE  H14X15596   0.117   3.951   8.986  1.9207  1.5546  0.7860
  142SAPE  H14Y15597   0.080   3.950   9.167 -0.5215 -0.3336  1.0771
  142SAPE  C31515598   0.019   3.773   9.065 -0.1754 -0.6346  0.2057
  142SAPE  H15X15599   0.048   3.719   8.973  0.2231  2.6460 -1.7304
  142SAPE  H15Y15600  -0.080   3.821   9.047 -0.2629 -0.6520  0.6259
  142SAPE  C31615601  -0.005   3.697   9.187  0.2860  0.2897 -0.2458
  142SAPE  H16X15602   0.097   3.688   9.232  0.2909  1.4682  0.0099
  142SAPE  H16Y15603  -0.041   3.594   9.164 -2.0738  1.2902 -1.3214
  142SAPE  C31715604  -0.103   3.761   9.285  0.0385 -0.2795 -0.3053
  142SAPE  H17X15605  -0.200   3.773   9.233 -0.6862 -2.2669  0.4905
  142SAPE  H17Y15606  -0.072   3.865   9.308 -1.3241  0.5528 -1.9646
  142SAPE  C31815607  -0.122   3.679   9.412  0.6438  0.1923  0.0549
  142SAPE  H18X15608  -0.189   3.725   9.487  2.1011 -1.8037  2.7300
  142SAPE  H18Y15609  -0.021   3.670   9.457  0.5029 -1.0186  0.1578
  142SAPE  H18Z15610  -0.162   3.578   9.388  1.8190  0.3889 -3.3673
  143SAPE     N15611   2.593   3.024  11.002 -0.1955  0.1169  0.6649
  143SAPE   HN115612   2.658   3.062  10.931 -1.7080 -0.3169 -1.0447
  143SAPE   HN215613   2.536   2.946  10.964 -0.8243  0.3031  1.1918
  143SAPE   HN315614   2.522   3.100  11.010 -0.9027 -0.4290 -0.1841
  143SAPE   C1215615   2.646   3.009  11.141  0.3448 -0.3271  0.3365
  143SAPE  H12A15616   2.672   3.111  11.177 -1.2360  1.2320 -2.6176
  143SAPE  H12B15617   2.730   2.936  11.129 -1.2449 -1.9177 -1.8335
  143SAPE   C1115618   2.543   2.940  11.228  0.5361 -0.4079 -0.0428
  143SAPE  H11A15619   2.458   3.009  11.247  0.0758 -1.3594  1.5922
  143SAPE  H11B15620   2.597   2.943  11.326  2.4620 -1.1475 -1.0258
  143SAPE     P15621   2.367   2.774  11.113 -0.0011 -0.1165  0.2303
  143SAPE   O1315622   2.342   2.623  11.111 -0.2836 -0.0631 -0.0734
  143SAPE   O1415623   2.251   2.862  11.156 -0.2005  0.3184 -0.4114
  143SAPE   O1215624   2.495   2.807  11.201 -0.2341  0.0761 -0.3572
  143SAPE   O1115625   2.416   2.824  10.971 -0.0371  0.1185 -0.6992
  143SAPE    C115626   2.331   2.868  10.873  0.8893 -0.7460 -0.4113
  143SAPE    HA15627   2.238   2.807  10.880  0.8001 -0.4090  3.7882
  143SAPE    HB15628   2.309   2.976  10.884  0.2214 -1.0987  2.4408
  143SAPE    C215629   2.388   2.840  10.729 -0.2609 -0.3472  0.0789
  143SAPE    HS15630   2.435   2.739  10.734  0.1970 -0.1586 -0.2687
  143SAPE   O2115631   2.490   2.945  10.707  0.6759  0.1948  0.5157
  143SAPE   C2115632   2.578   2.903  10.621 -0.6113  0.1756 -0.0508
  143SAPE   O2215633   2.588   2.783  10.592  0.4742 -0.2839  0.8492
  143SAPE   C2215634   2.663   3.017  10.552 -0.2292 -0.4623  0.2656
  143SAPE   H2R15635   2.620   3.117  10.573  0.6486 -0.0439  0.0934
  143SAPE   H2S15636   2.762   3.019  10.602 -0.1343  2.5866  0.1077
  143SAPE    C315637   2.276   2.843  10.618  0.8265 -0.3397 -0.3713
  143SAPE    HX15638   2.243   2.949  10.615 -1.1789 -0.7686  2.5001
  143SAPE    HY15639   2.188   2.783  10.650  0.7240  0.0738  0.1319
  143SAPE   O3115640   2.325   2.805  10.491  0.8674 -0.0347 -0.4073
  143SAPE   C3115641   2.338   2.673  10.459  0.7097 -0.5794 -0.1070
  143SAPE   O3215642   2.314   2.584  10.537 -0.5391 -0.7517  0.2976
  143SAPE   C3215643   2.386   2.653  10.315  0.0541  0.1712  0.0431
  143SAPE   H2X15644   2.423   2.550  10.294  3.4062  1.0976  0.7534
  143SAPE   H2Y15645   2.474   2.720  10.300  0.9111 -1.3472 -2.2202
  143SAPE   C2315646   2.681   3.004  10.400 -0.0898 -0.1089  0.5510
  143SAPE   H3R15647   2.585   2.990  10.347 -0.3679 -1.8638  1.4399
  143SAPE   H3S15648   2.731   2.905  10.387 -0.9375 -0.2285 -2.8277
  143SAPE   C2415649   2.743   3.130  10.331 -0.5276  0.2079 -0.4892
  143SAPE   H4R15650   2.689   3.226  10.348 -0.7514  0.0174 -0.1023
  143SAPE   H4S15651   2.750   3.122  10.221  5.0720  0.6897 -0.4505
  143SAPE   C2515652   2.887   3.150  10.371  0.0583 -0.2677  0.2453
  143SAPE   H5R15653   2.912   3.174  10.476  0.8579  1.8706 -0.3678
  143SAPE   C2615654   2.997   3.142  10.293  0.2473  0.6806 -0.2735
  143SAPE   H6R15655   3.100   3.135  10.332  0.1599 -1.0315 -0.2790
  143SAPE   C2715656   2.998   3.107  10.140  0.5081 -0.0430  0.7768
  143SAPE   H7R15657   3.104   3.092  10.108 -0.2099 -0.2312 -1.7295
  143SAPE   H7S15658   2.968   3.194  10.078 -0.2841 -1.8716 -1.5650
  143SAPE   C2815659   2.919   2.988  10.082  0.2456  0.3670  1.0451
  143SAPE   H8R15660   2.908   2.906  10.155  0.2721  0.2823  0.9538
  143SAPE   C2915661   2.842   2.987   9.970 -0.3141 -0.4499  0.0975
  143SAPE   H9R15662   2.778   2.900   9.948  0.6414 -0.7560 -1.6155
  143SAPE  C21015663   2.823   3.105   9.882  0.8294 -0.0991 -0.1166
  143SAPE  H10R15664   2.780   3.189   9.940 -1.0904 -2.0573  1.4593
  143SAPE  H10S15665   2.738   3.081   9.815 -0.9231  2.7175  0.9477
  143SAPE  C21115666   2.943   3.139   9.795 -0.1515 -0.1090  0.2953
  143SAPE  H11R15667   3.037   3.145   9.852  1.3941  0.3118 -2.1435
  143SAPE  C21215668   2.955   3.152   9.661 -0.3756 -0.4761 -0.4705
  143SAPE  H12R15669   3.054   3.169   9.617 -0.4026  0.5710 -0.1508
  143SAPE  C21315670   2.849   3.140   9.558 -0.1681 -0.5905  0.0169
  143SAPE  H13R15671   2.760   3.112   9.618  2.1080 -1.8289  3.0735
  143SAPE  H13S15672   2.872   3.055   9.490  0.3162 -0.3059 -0.1807
  143SAPE  C21415673   2.839   3.268   9.467  0.8628 -0.2757 -0.4074
  143SAPE  H14R15674   2.778   3.351   9.505 -0.1368 -2.0983  2.2544
  143SAPE  C21515675   2.891   3.279   9.342  0.1964  0.1464 -0.0213
  143SAPE  H15R15676   2.882   3.378   9.293 -0.6112  0.7748  1.3213
  143SAPE  C21615677   2.967   3.176   9.262  0.0412  0.6116  0.3349
  143SAPE  H16R15678   2.992   3.090   9.327 -0.6525  0.7064  0.7412
  143SAPE  H16S15679   3.062   3.223   9.229  0.9265 -1.3977 -0.1230
  143SAPE  C21715680   2.888   3.123   9.147  0.5145 -0.3441  0.8177
  143SAPE  H17R15681   2.954   3.048   9.097  1.5039  1.5133 -0.8003
  143SAPE  H17S15682   2.864   3.200   9.072  0.3878 -1.3536 -0.2089
  143SAPE  C21815683   2.766   3.043   9.190  0.0622  0.3251  0.4014
  143SAPE  H18R15684   2.682   3.102   9.232 -0.5977 -0.9847  0.9645
  143SAPE  H18S15685   2.811   2.982   9.271  2.4973  0.8683 -0.4730
  143SAPE  C21915686   2.721   2.937   9.082  0.1819  0.0095 -0.8262
  143SAPE  H19R15687   2.643   2.880   9.136 -0.1193  4.0625  3.7023
  143SAPE  H19S15688   2.806   2.879   9.039 -0.8635 -1.2199 -1.2907
  143SAPE  C22015689   2.667   2.998   8.954 -0.1428  0.5190  0.2255
  143SAPE  H20R15690   2.685   2.927   8.870  4.0625  2.3967 -0.7103
  143SAPE  H20S15691   2.703   3.098   8.922  2.6841 -0.6428 -0.5668
  143SAPE  H20T15692   2.557   3.012   8.961 -0.2572 -0.4755  0.5371
  143SAPE   C3315693   2.270   2.679  10.219  0.0703 -0.4666  0.0100
  143SAPE   H3X15694   2.212   2.766  10.256  1.5928  1.4621 -1.8548
  143SAPE   H3Y15695   2.198   2.595  10.225 -1.7083  0.8533 -1.5700
  143SAPE   C3415696   2.315   2.723  10.080  0.2257 -0.1822 -0.2494
  143SAPE   H4X15697   2.385   2.809  10.079  0.5706 -0.4612 -0.5041
  143SAPE   H4Y15698   2.228   2.757  10.019  0.5044 -0.6370 -0.9196
  143SAPE   C3515699   2.382   2.601  10.004  0.0986  0.3904 -0.6937
  143SAPE   H5X15700   2.315   2.516   9.980 -1.4671  1.1957  0.6103
  143SAPE   H5Y15701   2.463   2.568  10.073 -0.2105 -1.7503 -1.2847
  143SAPE   C3615702   2.450   2.636   9.872  0.1999 -0.1344  0.5290
  143SAPE   H6X15703   2.369   2.636   9.797 -0.3328 -1.4154  1.0752
  143SAPE   H6Y15704   2.520   2.554   9.844  1.2240  0.8062  0.2254
  143SAPE   C3715705   2.528   2.773   9.865  0.3146  0.2731  0.0840
  143SAPE   H7X15706   2.606   2.761   9.944  0.4322 -1.4786 -0.2659
  143SAPE   H7Y15707   2.460   2.858   9.891  0.1233  0.4299 -0.8931
  143SAPE   C3815708   2.599   2.798   9.726  0.3449 -0.0182 -0.8272
  143SAPE   H8X15709   2.649   2.704   9.695 -1.9592 -2.1850  1.4511
  143SAPE   H8Y15710   2.667   2.884   9.742  0.2625 -0.1616  0.4273
  143SAPE   C3915711   2.492   2.826   9.620 -0.0218  0.1166 -0.2412
  143SAPE   H9X15712   2.413   2.893   9.662 -1.1974 -1.2339 -0.2467
  143SAPE   H9Y15713   2.435   2.734   9.597  0.4064 -0.1865 -0.0896
  143SAPE  C31015714   2.553   2.880   9.486  0.8819  0.2325  0.7465
  143SAPE  H10X15715   2.613   2.794   9.449 -1.5327 -0.4121 -2.0358
  143SAPE  H10Y15716   2.610   2.975   9.488  3.5080 -1.2617  2.4118
  143SAPE  C31115717   2.452   2.889   9.373 -0.4645 -0.0832 -0.6409
  143SAPE  H11X15718   2.414   2.785   9.367 -0.0623 -0.4143  1.4937
  143SAPE  H11Y15719   2.503   2.917   9.279  0.3903 -0.7049 -0.3741
  143SAPE  C31215720   2.332   2.982   9.405 -0.1740 -0.9164 -0.3267
  143SAPE  H12X15721   2.365   3.088   9.396 -1.8634 -0.4884 -2.3620
  143SAPE  H12Y15722   2.295   2.965   9.508 -0.9619  2.3465  0.0463
  143SAPE  C31315723   2.217   2.954   9.314 -0.8701  0.4615 -0.4893
  143SAPE  H13X15724   2.160   2.862   9.339  2.4396 -1.3625  0.9601
  143SAPE  H13Y15725   2.254   2.955   9.210  0.5035  2.3732 -0.0396
  143SAPE  C31415726   2.118   3.068   9.320  0.1188  0.3628  0.7779
  143SAPE  H14X15727   2.169   3.165   9.338  1.0069 -0.0479  0.4949
  143SAPE  H14Y15728   2.045   3.037   9.398  0.4768  0.1619  1.0326
  143SAPE  C31515729   2.045   3.083   9.176  0.1472 -0.1091 -0.3165
  143SAPE  H15X15730   1.992   2.989   9.149  1.7394 -0.8872 -0.8765
  143SAPE  H15Y15731   2.114   3.089   9.090 -2.1053 -0.6604 -2.2863
  143SAPE  C31615732   1.947   3.196   9.178 -0.1134 -0.8196  0.2489
  143SAPE  H16X15733   2.012   3.281   9.209 -1.0113 -0.4235  1.0842
  143SAPE  H16Y15734   1.876   3.177   9.261 -1.4170 -2.8190 -1.2399
  143SAPE  C31715735   1.879   3.227   9.038  0.3855  0.8029 -0.3934
  143SAPE  H17X15736   1.948   3.249   8.954  1.0062 -1.9114 -0.6751
  143SAPE  H17Y15737   1.830   3.323   9.064  1.4063  1.6509 -1.4983
  143SAPE  C31815738   1.782   3.132   8.977 -0.6417  0.1999 -0.3517
  143SAPE  H18X15739   1.710   3.089   9.050 -0.0752 -0.8265 -0.3815
  143SAPE  H18Y15740   1.838   3.046   8.935 -1.7338 -0.4630 -0.4757
  143SAPE  H18Z15741   1.721   3.174   8.894  0.9386  1.6494 -0.8266
  144SAPE     N15742   6.821   4.926  10.947  0.3703  0.4808  0.4748
  144SAPE   HN115743   6.919   4.926  10.912  0.6775  0.1391  1.3189
  144SAPE   HN215744   6.810   5.025  10.977 -0.1937  1.5179 -2.7520
  144SAPE   HN315745   6.836   4.868  11.032  0.3000 -1.4896 -0.8166
  144SAPE   C1215746   6.716   4.888  10.846 -0.3373 -0.8275  0.0210
  144SAPE  H12A15747   6.614   4.917  10.881 -1.3872  1.3106 -4.1663
  144SAPE  H12B15748   6.713   4.778  10.835 -0.6362 -0.7746 -0.4725
  144SAPE   C1115749   6.744   4.969  10.713 -0.5789 -0.0709  0.6455
  144SAPE  H11A15750   6.697   4.914  10.629 -1.5322 -0.1765  1.2323
  144SAPE  H11B15751   6.853   4.965  10.691 -0.7087 -0.3499  0.0391
  144SAPE     P15752   6.541   5.133  10.682 -0.0394  0.2704 -0.0010
  144SAPE   O1315753   6.448   5.061  10.773 -0.1241  0.0135  0.8784
  144SAPE   O1415754   6.534   5.281  10.687  0.1330 -0.8671 -0.0815
  144SAPE   O1215755   6.693   5.101  10.717  0.3341 -0.3394  0.2344
  144SAPE   O1115756   6.523   5.084  10.534 -0.4476  0.1838 -0.0753
  144SAPE    C115757   6.634   5.104  10.442  1.0029  0.3809 -0.0367
  144SAPE    HA15758   6.733   5.140  10.478  0.4612  0.6041  1.3172
  144SAPE    HB15759   6.651   5.002  10.401  0.7152 -0.2518  1.3389
  144SAPE    C215760   6.579   5.189  10.325  0.0928  0.1436 -0.3304
  144SAPE    HS15761   6.653   5.200  10.243  0.5447  1.1254  0.1938
  144SAPE   O2115762   6.539   5.318  10.367  0.3724  0.1222 -0.5466
  144SAPE   C2115763   6.640   5.403  10.391 -0.1945 -0.2994 -1.1486
  144SAPE   O2215764   6.758   5.372  10.368 -0.2918 -0.0955  0.4639
  144SAPE   C2215765   6.579   5.547  10.407 -0.0412  0.1088  0.2806
  144SAPE   H2R15766   6.551   5.562  10.514  0.9795  0.5600  0.4945
  144SAPE   H2S15767   6.669   5.605  10.379  0.6373  0.0208  2.1042
  144SAPE    C315768   6.448   5.132  10.266 -0.2802 -0.2648 -0.0501
  144SAPE    HX15769   6.368   5.140  10.342 -0.7509  0.0508 -0.5664
  144SAPE    HY15770   6.464   5.023  10.254  3.1513 -0.1414  2.0109
  144SAPE   O3115771   6.430   5.195  10.135 -0.7389 -0.2956  0.4503
  144SAPE   C3115772   6.500   5.145  10.035 -0.2075 -0.1701  0.1046
  144SAPE   O3215773   6.583   5.058  10.040  0.2943 -0.5968 -0.4594
  144SAPE   C3215774   6.456   5.209   9.906  0.2849 -0.8057 -0.0894
  144SAPE   H2X15775   6.517   5.302   9.902  1.0309 -1.3164 -0.9713
  144SAPE   H2Y15776   6.347   5.228   9.916  0.4403  0.5144 -0.6300
  144SAPE   C2315777   6.455   5.583  10.319  0.0014 -0.4433 -0.6201
  144SAPE   H3R15778   6.410   5.678  10.356  2.2030  0.0504  0.9945
  144SAPE   H3S15779   6.379   5.505  10.340  0.2587 -0.7206 -0.7272
  144SAPE   C2415780   6.489   5.586  10.167 -0.0504  0.8104 -0.4974
  144SAPE   H4R15781   6.391   5.619  10.126  0.4803  1.1385 -1.5389
  144SAPE   H4S15782   6.495   5.482  10.130  2.7369  0.4269  0.7146
  144SAPE   C2515783   6.599   5.671  10.112 -0.4607 -0.1907 -0.1429
  144SAPE   H5R15784   6.669   5.723  10.179 -1.8930  1.0027  0.4756
  144SAPE   C2615785   6.619   5.679   9.978  0.7201 -0.1476 -0.5017
  144SAPE   H6R15786   6.696   5.749   9.942 -1.1294  1.4390 -1.5594
  144SAPE   C2715787   6.546   5.619   9.864  0.2399 -0.6354  0.1414
  144SAPE   H7R15788   6.478   5.536   9.893 -1.0687  0.2068 -0.4388
  144SAPE   H7S15789   6.626   5.574   9.801 -2.1608 -0.6402 -3.1732
  144SAPE   C2815790   6.469   5.710   9.774 -0.5165  0.4121  0.4308
  144SAPE   H8R15791   6.402   5.782   9.824 -0.4626  0.0270  1.0603
  144SAPE   C2915792   6.491   5.730   9.641  0.4539  0.1158  0.4094
  144SAPE   H9R15793   6.431   5.807   9.590 -0.5632  0.3079  1.8300
  144SAPE  C21015794   6.588   5.657   9.551  0.0230 -0.6522  0.5785
  144SAPE  H10R15795   6.683   5.631   9.603 -0.3754  0.1996  1.7635
  144SAPE  H10S15796   6.618   5.730   9.473 -0.6943  1.2300  1.9879
  144SAPE  C21115797   6.538   5.531   9.494  0.4325  0.0407 -0.0733
  144SAPE  H11R15798   6.506   5.462   9.573  1.9192  2.9492  3.3916
  144SAPE  C21215799   6.522   5.491   9.375 -0.5766  0.8568  0.4002
  144SAPE  H12R15800   6.468   5.396   9.363 -0.0473  0.8468 -2.5170
  144SAPE  C21315801   6.563   5.569   9.250  0.4417 -0.0245 -0.6396
  144SAPE  H13R15802   6.633   5.654   9.270  1.1961 -0.2103 -2.2816
  144SAPE  H13S15803   6.478   5.629   9.211 -1.1200 -1.7307  0.0116
  144SAPE  C21415804   6.629   5.474   9.148 -0.0356 -0.6572 -0.4176
  144SAPE  H14R15805   6.680   5.386   9.192 -0.2764 -1.0415 -0.8972
  144SAPE  C21515806   6.607   5.480   9.018 -1.2586  0.3306 -0.1539
  144SAPE  H15R15807   6.640   5.397   8.954 -0.8438 -0.1678  0.6762
  144SAPE  C21615808   6.536   5.587   8.949 -0.3485 -0.7365  0.1576
  144SAPE  H16R15809   6.531   5.689   8.992 -0.7636  0.8228 -3.2409
  144SAPE  H16S15810   6.429   5.563   8.931  0.0734 -0.9350 -2.5215
  144SAPE  C21715811   6.605   5.624   8.817  0.1996 -1.8087 -0.4177
  144SAPE  H17R15812   6.628   5.540   8.747 -1.0799 -0.8443 -2.0785
  144SAPE  H17S15813   6.704   5.673   8.832  0.2699 -2.7568  2.9161
  144SAPE  C21815814   6.510   5.728   8.735  0.6403  0.3058 -0.5646
  144SAPE  H18R15815   6.486   5.817   8.798  0.5277 -0.8002  0.9900
  144SAPE  H18S15816   6.423   5.665   8.706 -0.8557  0.2988  3.3253
  144SAPE  C21915817   6.569   5.782   8.607 -0.0615 -0.0795 -0.0483
  144SAPE  H19R15818   6.592   5.699   8.538 -0.7379 -0.5608  0.3013
  144SAPE  H19S15819   6.665   5.838   8.620 -1.3479  2.0676  0.7253
  144SAPE  C22015820   6.466   5.876   8.542  0.2797  0.9503  0.3585
  144SAPE  H20R15821   6.372   5.819   8.558  0.6155 -0.7220 -2.7914
  144SAPE  H20S15822   6.492   5.896   8.436  2.8133 -1.2319  0.4597
  144SAPE  H20T15823   6.473   5.969   8.603 -0.8386  1.4933 -0.3103
  144SAPE   C3315824   6.499   5.121   9.786  0.1306 -0.1727 -0.0913
  144SAPE   H3X15825   6.435   5.033   9.810 -0.6323  0.5560  0.6194
  144SAPE   H3Y15826   6.604   5.086   9.786  0.0151 -0.8121  2.8638
  144SAPE   C3415827   6.449   5.176   9.654  0.4314 -0.7009  0.0169
  144SAPE   H4X15828   6.528   5.247   9.622 -2.2378  2.6990  0.4920
  144SAPE   H4Y15829   6.359   5.240   9.664  1.1333  0.8509 -2.6174
  144SAPE   C3515830   6.440   5.060   9.555  0.7293 -0.2984  0.1062
  144SAPE   H5X15831   6.430   4.963   9.608 -1.6875 -0.0934  0.1314
  144SAPE   H5Y15832   6.537   5.050   9.501  0.9273  3.6447 -0.5419
  144SAPE   C3615833   6.325   5.068   9.442  0.0522 -0.4407  0.2472
  144SAPE   H6X15834   6.346   5.151   9.371 -1.1474 -0.9905 -0.7875
  144SAPE   H6Y15835   6.225   5.084   9.488 -1.6211  0.3979 -3.3454
  144SAPE   C3715836   6.313   4.944   9.360  0.3723  0.0213  0.1509
  144SAPE   H7X15837   6.289   4.861   9.430  0.8818 -3.1073 -3.0714
  144SAPE   H7Y15838   6.406   4.917   9.306 -0.7449 -2.3849 -0.7188
  144SAPE   C3815839   6.199   4.949   9.249  0.2907 -0.4315 -0.0087
  144SAPE   H8X15840   6.111   5.002   9.292 -0.4160  0.8592 -2.7807
  144SAPE   H8Y15841   6.177   4.841   9.238  2.1717 -1.1986  2.7788
  144SAPE   C3915842   6.236   5.023   9.120 -0.4616  0.0782  0.4268
  144SAPE   H9X15843   6.307   4.954   9.071  0.6568 -0.6994  2.9495
  144SAPE   H9Y15844   6.289   5.118   9.143 -1.2050  0.5039  0.4207
  144SAPE  C31015845   6.126   5.053   9.012  0.4385 -0.2101 -0.1699
  144SAPE  H10X15846   6.058   5.133   9.046  1.0313 -0.2372  1.1681
  144SAPE  H10Y15847   6.068   4.958   9.018 -0.2204  0.2532  1.3074
  144SAPE  C31115848   6.190   5.081   8.877 -0.4687 -0.2680  1.4042
  144SAPE  H11X15849   6.285   5.024   8.869 -0.9587 -0.7957 -1.5947
  144SAPE  H11Y15850   6.216   5.189   8.876 -1.5990  0.0122  0.4701
  144SAPE  C31215851   6.089   5.049   8.769 -0.2102 -0.0017 -0.2608
  144SAPE  H12X15852   5.991   5.085   8.808 -0.2345 -0.5757  0.2232
  144SAPE  H12Y15853   6.080   4.940   8.750 -0.3399  0.3506 -2.4870
  144SAPE  C31315854   6.131   5.118   8.636 -0.0668 -0.8248 -0.3425
  144SAPE  H13X15855   6.132   5.229   8.636  2.3731 -0.7893 -0.4886
  144SAPE  H13Y15856   6.063   5.082   8.556 -0.5168  1.3757 -1.0151
  144SAPE  C31415857   6.271   5.069   8.597  0.1266  0.4374 -0.5473
  144SAPE  H14X15858   6.274   4.959   8.588  0.4357  0.5623 -2.2806
  144SAPE  H14Y15859   6.345   5.093   8.678 -0.8237 -2.2411  1.2384
  144SAPE  C31515860   6.301   5.107   8.451  0.0961 -0.4101  0.2783
  144SAPE  H15X15861   6.320   5.216   8.440 -0.3165 -0.2392  1.1888
  144SAPE  H15Y15862   6.213   5.090   8.386  0.0554  2.0862 -0.4205
  144SAPE  C31615863   6.411   5.022   8.392  0.6293  0.8303  1.0161
  144SAPE  H16X15864   6.368   4.920   8.402 -0.8831  1.2504 -0.6567
  144SAPE  H16Y15865   6.502   5.028   8.455  0.4784  1.0038  1.2188
  144SAPE  C31715866   6.442   5.051   8.244 -0.6116 -0.5075 -0.2498
  144SAPE  H17X15867   6.460   5.160   8.228 -1.0313 -0.5242 -0.8747
  144SAPE  H17Y15868   6.359   5.027   8.174  0.2589 -0.7993 -1.2028
  144SAPE  C31815869   6.559   4.970   8.196  0.1751 -0.0687  0.5301
  144SAPE  H18X15870   6.559   4.872   8.248  0.9062  1.0353  2.7153
  144SAPE  H18Y15871   6.652   5.021   8.227  0.1160 -0.1707  0.8717
  144SAPE  H18Z15872   6.565   4.953   8.086  1.1961 -1.3246  0.7605
  145SAPE     N15873   2.099   2.996  11.318  0.2785  0.2511  0.1228
  145SAPE   HN115874   2.097   2.940  11.405  2.0071 -1.9163 -1.1458
  145SAPE   HN215875   2.172   2.949  11.261  0.4737  0.1459  0.4626
  145SAPE   HN315876   2.145   3.085  11.346  1.3907  0.4232 -2.0455
  145SAPE   C1215877   1.974   3.015  11.242  0.7538 -0.3756  0.5653
  145SAPE  H12A15878   1.998   3.054  11.140  0.1546  0.7943  0.8531
  145SAPE  H12B15879   1.906   3.088  11.292  0.5454  0.5730 -1.0292
  145SAPE   C1115880   1.895   2.884  11.221  0.2747 -0.0447 -0.0593
  145SAPE  H11A15881   1.909   2.813  11.304  0.2714 -1.1223 -0.9621
  145SAPE  H11B15882   1.940   2.824  11.139 -0.6332  0.6448 -1.1029
  145SAPE     P15883   1.692   2.952  11.060 -0.0345 -0.0037  0.0464
  145SAPE   O1315884   1.546   2.917  11.062 -0.1406 -0.0951 -0.1472
  145SAPE   O1415885   1.724   3.091  11.034  0.5968  0.3263 -0.3051
  145SAPE   O1215886   1.758   2.917  11.201  0.5687 -0.1986 -0.4517
  145SAPE   O1115887   1.783   2.847  10.972  0.7162 -0.4870 -0.5807
  145SAPE    C115888   1.894   2.877  10.886  0.2383 -0.7405  0.4485
  145SAPE    HA15889   1.943   2.970  10.921 -1.0629  0.2454 -0.2620
  145SAPE    HB15890   1.974   2.800  10.891  0.9938 -0.0426 -0.4915
  145SAPE    C215891   1.847   2.898  10.742  0.1891  0.2640 -0.2694
  145SAPE    HS15892   1.937   2.927  10.683  0.1661 -0.2137 -0.5436
  145SAPE   O2115893   1.744   2.994  10.727  0.1115 -0.3292 -0.5952
  145SAPE   C2115894   1.799   3.124  10.734  0.8860 -0.0252  0.2892
  145SAPE   O2215895   1.916   3.144  10.723 -0.2331  0.0683  0.1682
  145SAPE   C2215896   1.687   3.244  10.741 -0.1668 -0.5420 -0.6692
  145SAPE   H2R15897   1.687   3.264  10.850  0.6359  0.1034 -0.7715
  145SAPE   H2S15898   1.724   3.331  10.682 -1.0992  0.0571 -0.3916
  145SAPE    C315899   1.792   2.771  10.681  0.3119 -0.7382 -0.1345
  145SAPE    HX15900   1.703   2.741  10.740  1.3162 -2.6732  0.4743
  145SAPE    HY15901   1.857   2.685  10.708  1.8664  0.7829  1.2544
  145SAPE   O3115902   1.765   2.795  10.539 -0.6249  0.4817  0.0379
  145SAPE   C3115903   1.872   2.778  10.471  0.1092 -0.5450  0.1677
  145SAPE   O3215904   1.979   2.740  10.508 -0.4302 -0.2013  0.6619
  145SAPE   C3215905   1.840   2.826  10.335 -0.3480 -0.1208  0.0828
  145SAPE   H2X15906   1.848   2.937  10.338 -1.1958 -0.0339 -0.3330
  145SAPE   H2Y15907   1.731   2.812  10.316 -0.4167  2.0488 -1.5881
  145SAPE   C2315908   1.543   3.214  10.691 -1.1730  0.2580 -0.1917
  145SAPE   H3R15909   1.477   3.291  10.737 -0.6882  0.5792 -0.0276
  145SAPE   H3S15910   1.506   3.115  10.726  2.5084 -0.4598  2.2493
  145SAPE   C2415911   1.533   3.228  10.534  0.1979 -0.4684 -0.2537
  145SAPE   H4R15912   1.589   3.318  10.501 -0.9732  0.5263  0.3914
  145SAPE   H4S15913   1.423   3.240  10.522 -0.1352 -3.1174 -0.4606
  145SAPE   C2515914   1.566   3.098  10.465  0.0678  0.1593 -0.5084
  145SAPE   H5R15915   1.534   3.007  10.517 -1.1576 -0.4254 -2.1868
  145SAPE   C2615916   1.631   3.094  10.344  0.0667  0.7852  0.2778
  145SAPE   H6R15917   1.652   2.994  10.303 -1.7402  0.5523 -0.1753
  145SAPE   C2715918   1.678   3.214  10.265  0.1048 -0.6584 -0.0387
  145SAPE   H7R15919   1.697   3.304  10.326  0.9061 -1.1858  0.5003
  145SAPE   H7S15920   1.596   3.236  10.193 -0.2371 -1.0958  0.2094
  145SAPE   C2815921   1.803   3.185  10.186 -0.6269 -0.0893 -0.2558
  145SAPE   H8R15922   1.787   3.099  10.119 -0.7901 -0.2316 -0.0363
  145SAPE   C2915923   1.927   3.244  10.206 -0.2566  0.9134 -0.8952
  145SAPE   H9R15924   2.020   3.207  10.159  0.3861 -0.7742  1.4769
  145SAPE  C21015925   1.968   3.342  10.310  0.0819 -0.2721 -1.0057
  145SAPE  H10R15926   1.880   3.402  10.342 -0.6448 -2.1428  0.6836
  145SAPE  H10S15927   2.044   3.414  10.272  1.3812 -1.6162 -1.0011
  145SAPE  C21115928   2.036   3.272  10.425  0.1207 -0.1076 -0.1162
  145SAPE  H11R15929   1.991   3.308  10.519  0.1146 -0.5668  0.0612
  145SAPE  C21215930   2.151   3.196  10.437  0.1562  0.5361  0.2847
  145SAPE  H12R15931   2.172   3.149  10.534 -2.1147 -1.0073  0.0927
  145SAPE  C21315932   2.241   3.149  10.331  0.1481  0.0646 -0.3049
  145SAPE  H13R15933   2.206   3.069  10.263 -1.4750  0.8944 -0.4837
  145SAPE  H13S15934   2.316   3.092  10.391 -1.2524 -1.1641  0.3243
  145SAPE  C21415935   2.298   3.259  10.248 -0.1074  0.3153 -1.3130
  145SAPE  H14R15936   2.288   3.365  10.278  1.3036 -0.1534  0.9933
  145SAPE  C21515937   2.364   3.232  10.131  0.6070 -0.9292  0.3372
  145SAPE  H15R15938   2.410   3.310  10.069  0.0518 -0.2044  0.8282
  145SAPE  C21615939   2.398   3.101  10.058  0.5193  0.0153  0.3238
  145SAPE  H16R15940   2.327   3.023  10.093  0.2663 -0.4134 -1.0827
  145SAPE  H16S15941   2.505   3.072  10.062  0.9300  1.5458  1.0099
  145SAPE  C21715942   2.373   3.124   9.906 -0.6603 -0.9206  0.6703
  145SAPE  H17R15943   2.433   3.050   9.849 -0.5260 -0.6513  0.4595
  145SAPE  H17S15944   2.408   3.225   9.878 -1.5274 -0.4977  1.0547
  145SAPE  C21815945   2.221   3.125   9.876  0.3458 -0.4399 -0.3481
  145SAPE  H18R15946   2.187   3.212   9.936  3.7877  0.0851  1.0774
  145SAPE  H18S15947   2.177   3.031   9.917 -0.0062 -0.4731 -0.7921
  145SAPE  C21915948   2.184   3.139   9.733 -0.0184 -0.2682  0.0742
  145SAPE  H19R15949   2.237   3.061   9.675  0.9380 -0.3618  1.0315
  145SAPE  H19S15950   2.224   3.236   9.696  1.3229 -1.3169 -1.3481
  145SAPE  C22015951   2.026   3.129   9.717  0.4062 -0.2901  0.6291
  145SAPE  H20R15952   1.986   3.192   9.799  2.2090  0.1763  1.1901
  145SAPE  H20S15953   1.997   3.022   9.722 -1.0381  0.1142  1.3163
  145SAPE  H20T15954   1.995   3.152   9.613 -1.4986 -0.2958  1.1544
  145SAPE   C3315955   1.910   2.750  10.223 -0.2920  0.4146  0.1856
  145SAPE   H3X15956   1.918   2.646  10.260  0.2940 -0.0287 -1.1435
  145SAPE   H3Y15957   2.013   2.785  10.203 -0.6304  1.4499  0.1489
  145SAPE   C3415958   1.826   2.742  10.093 -0.4164  0.1625 -0.3026
  145SAPE   H4X15959   1.802   2.845  10.059 -2.6443  0.2422  1.3054
  145SAPE   H4Y15960   1.733   2.689  10.122  0.0021 -0.3351  0.1720
  145SAPE   C3515961   1.885   2.652   9.986 -0.6234  0.4560 -0.4394
  145SAPE   H5X15962   1.806   2.604   9.925 -3.0423  4.0304 -0.3461
  145SAPE   H5Y15963   1.938   2.566  10.034 -2.4762 -3.1697 -4.1947
  145SAPE   C3615964   1.981   2.722   9.900 -0.3377 -1.3271 -0.3787
  145SAPE   H6X15965   2.050   2.786   9.959  0.6167 -0.5321 -2.2519
  145SAPE   H6Y15966   1.916   2.772   9.826 -1.2800 -2.4318 -0.3298
  145SAPE   C3715967   2.063   2.631   9.820  0.7381  0.4625 -0.0117
  145SAPE   H7X15968   2.002   2.541   9.799  0.8493  0.5182 -0.5749
  145SAPE   H7Y15969   2.149   2.585   9.874  0.3330 -3.1512 -2.0762
  145SAPE   C3815970   2.110   2.691   9.690 -0.6997  0.6938  0.1313
  145SAPE   H8X15971   2.181   2.615   9.652 -2.0981 -0.6941  0.1356
  145SAPE   H8Y15972   2.155   2.791   9.702 -0.8042  0.7572  0.0039
  145SAPE   C3915973   2.009   2.707   9.569  0.0186 -0.5814 -0.6171
  145SAPE   H9X15974   2.052   2.777   9.495  0.2238 -1.9711 -1.8490
  145SAPE   H9Y15975   1.909   2.749   9.595  0.0578 -0.5513 -0.5117
  145SAPE  C31015976   1.969   2.575   9.494 -0.5303 -0.2601 -0.5943
  145SAPE  H10X15977   1.933   2.496   9.564  1.8151 -0.5024  0.4456
  145SAPE  H10Y15978   2.064   2.549   9.445  1.7593  4.6203  0.6440
  145SAPE  C31115979   1.865   2.602   9.376 -0.6663  0.3693 -0.1950
  145SAPE  H11X15980   1.771   2.649   9.413 -1.0089  0.1979 -0.8347
  145SAPE  H11Y15981   1.840   2.500   9.339 -0.5936 -0.1266  1.0790
  145SAPE  C31215982   1.921   2.691   9.263  0.0758  0.4738  0.7346
  145SAPE  H12X15983   2.018   2.646   9.233 -1.4383 -1.8646 -0.9513
  145SAPE  H12Y15984   1.944   2.796   9.293  0.2793  0.3990  0.8443
  145SAPE  C31315985   1.833   2.698   9.138 -0.0700  0.3443 -0.3780
  145SAPE  H13X15986   1.755   2.775   9.152  1.6722  1.9099  1.2320
  145SAPE  H13Y15987   1.777   2.603   9.125 -1.4316  0.8678  1.3114
  145SAPE  C31415988   1.909   2.743   9.015  0.5572  0.1276 -0.1444
  145SAPE  H14X15989   1.980   2.825   9.037 -2.4245  2.4055  1.9225
  145SAPE  H14Y15990   1.842   2.774   8.931 -2.1632 -1.9914  1.0792
  145SAPE  C31515991   2.002   2.626   8.964 -0.2157  0.3567  0.4281
  145SAPE  H15X15992   1.943   2.533   8.951  0.3823  0.0558 -0.1938
  145SAPE  H15Y15993   2.084   2.612   9.037  0.4865 -1.3121 -0.6436
  145SAPE  C31615994   2.067   2.643   8.825  0.1979  0.0264 -0.5005
  145SAPE  H16X15995   2.112   2.545   8.797 -0.2522  0.1336 -1.6357
  145SAPE  H16Y15996   2.141   2.725   8.832  0.1944  0.1091 -1.4029
  145SAPE  C31715997   1.972   2.685   8.714 -0.3432  0.0669 -0.7133
  145SAPE  H17X15998   1.914   2.778   8.731 -3.5888 -2.0697  1.1307
  145SAPE  H17Y15999   1.891   2.609   8.704  0.3375 -0.8179  0.2617
  145SAPE  C31816000   2.037   2.689   8.578 -0.2130 -0.1253 -0.2474
  145SAPE  H18X16001   1.961   2.730   8.508  0.0499 -0.2519 -0.6074
  145SAPE  H18Y16002   2.066   2.588   8.544  0.0455 -0.6936  1.5279
  145SAPE  H18Z16003   2.132   2.747   8.575  0.1254 -0.6009  0.8269
  146SAPE     N16004   5.521   3.882  10.943 -0.8352  0.2890 -0.3018
  146SAPE   HN116005   5.461   3.966  10.937  1.9714  2.9226  3.5928
  146SAPE   HN216006   5.534   3.837  10.850 -0.1727 -1.4669  0.5750
  146SAPE   HN316007   5.467   3.810  10.994  0.2909 -0.7782 -0.5518
  146SAPE   C1216008   5.648   3.917  11.023 -0.6230  0.4113 -0.7163
  146SAPE  H12A16009   5.697   3.823  11.057  2.1471  2.3347  1.0171
  146SAPE  H12B16010   5.629   3.958  11.124 -0.9113 -0.2558 -0.4908
  146SAPE   C1116011   5.732   4.020  10.959  0.7866 -0.1903  0.2969
  146SAPE  H11A16012   5.817   4.050  11.025  0.1968  0.4152  0.7960
  146SAPE  H11B16013   5.668   4.110  10.947 -3.0806 -2.8371 -0.6602
  146SAPE     P16014   5.917   3.944  10.797 -0.2074  0.2573  0.0966
  146SAPE   O1316015   5.992   4.072  10.816  0.3289 -0.2839  0.4705
  146SAPE   O1416016   5.971   3.826  10.856 -0.8439 -0.6024  0.3307
  146SAPE   O1216017   5.770   3.965  10.830 -0.1762  0.1339 -0.4699
  146SAPE   O1116018   5.925   3.926  10.638  0.5950 -0.3038 -0.1243
  146SAPE    C116019   5.817   3.962  10.549  1.2657  0.0435  1.1260
  146SAPE    HA16020   5.775   3.879  10.488 -0.2310  1.6777 -0.1594
  146SAPE    HB16021   5.732   4.007  10.603  0.9186  1.7154 -0.7014
  146SAPE    C216022   5.870   4.077  10.451 -0.1898  0.4388 -0.4255
  146SAPE    HS16023   5.780   4.099  10.391 -1.0492 -0.3388  0.5388
  146SAPE   O2116024   5.988   4.038  10.370 -0.2268 -0.3965  0.1534
  146SAPE   C2116025   5.969   3.944  10.281 -0.0066  0.2812  0.2202
  146SAPE   O2216026   5.864   3.896  10.239 -0.5713 -0.2705  0.1175
  146SAPE   C2216027   6.109   3.907  10.221 -0.2545  0.1668 -0.0311
  146SAPE   H2R16028   6.175   3.996  10.227  0.4246 -0.3797  1.0864
  146SAPE   H2S16029   6.141   3.815  10.276 -0.0488 -1.0118 -2.0269
  146SAPE    C316030   5.914   4.202  10.519 -0.5132 -0.2104 -0.6183
  146SAPE    HX16031   6.007   4.184  10.577 -1.0535  2.0328  1.1189
  146SAPE    HY16032   5.831   4.231  10.587  2.3536  3.7989  1.6200
  146SAPE   O3116033   5.926   4.308  10.422  0.5550 -0.5672  0.3969
  146SAPE   C3116034   5.954   4.427  10.479  0.8033 -0.1020  0.9421
  146SAPE   O3216035   5.961   4.450  10.600  0.7538  0.4595  0.2142
  146SAPE   C3216036   5.973   4.525  10.364 -0.3616 -0.5494 -0.0299
  146SAPE   H2X16037   5.983   4.623  10.416  3.5038 -0.0439 -1.3905
  146SAPE   H2Y16038   5.887   4.527  10.294  0.6237  1.6222 -1.2584
  146SAPE   C2316039   6.086   3.876  10.073  0.4644  0.1873  0.0303
  146SAPE   H3R16040   6.042   3.968  10.030  0.3711  1.0441  1.8627
  146SAPE   H3S16041   6.013   3.795  10.052 -1.7352  2.3057 -0.9554
  146SAPE   C2416042   6.211   3.843   9.984 -0.8842 -0.1299 -0.7619
  146SAPE   H4R16043   6.159   3.814   9.890 -0.6923 -0.2609 -0.8300
  146SAPE   H4S16044   6.257   3.754  10.031 -0.7509  0.0297 -0.5908
  146SAPE   C2516045   6.318   3.947   9.979  0.0089 -0.0846  0.6199
  146SAPE   H5R16046   6.353   3.977  10.079  2.2902 -2.9993  0.8268
  146SAPE   C2616047   6.356   4.016   9.868 -0.0057  0.1414 -0.2417
  146SAPE   H6R16048   6.427   4.099   9.874  0.8843 -0.6192 -0.0174
  146SAPE   C2716049   6.300   3.989   9.727 -0.3158  1.3746 -0.5432
  146SAPE   H7R16050   6.266   4.087   9.686 -1.1661  1.8046  1.0993
  146SAPE   H7S16051   6.215   3.918   9.729  0.9624 -0.2113  1.8468
  146SAPE   C2816052   6.418   3.929   9.649 -0.6793  0.0029 -0.1035
  146SAPE   H8R16053   6.465   3.837   9.689 -1.3752  0.6457  2.3523
  146SAPE   C2916054   6.447   3.965   9.524 -0.2529 -0.7049 -0.1141
  146SAPE   H9R16055   6.542   3.927   9.483  0.2954  0.1412  0.3185
  146SAPE  C21016056   6.371   4.067   9.443  0.3050 -0.4694 -0.8878
  146SAPE  H10R16057   6.274   4.089   9.492 -0.4097 -0.7500 -2.1215
  146SAPE  H10S16058   6.334   4.031   9.345 -0.0633  1.6966 -1.5964
  146SAPE  C21116059   6.463   4.182   9.412  0.0548  0.2400  0.3261
  146SAPE  H11R16060   6.445   4.273   9.471 -2.9689 -1.0124  1.5447
  146SAPE  C21216061   6.553   4.195   9.314  0.6307 -0.3908  0.5692
  146SAPE  H12R16062   6.606   4.292   9.315  0.0317 -0.0611  1.0173
  146SAPE  C21316063   6.603   4.105   9.209  0.2082  0.3890  0.5015
  146SAPE  H13R16064   6.550   4.007   9.211  2.0340 -0.8550 -2.7523
  146SAPE  H13S16065   6.710   4.080   9.227  0.0399 -0.1876  0.7189
  146SAPE  C21416066   6.587   4.162   9.070  0.0423 -0.1230  0.0344
  146SAPE  H14R16067   6.488   4.152   9.024  0.3824  0.1139 -0.7829
  146SAPE  C21516068   6.680   4.222   8.991  0.6626  0.6269 -0.2500
  146SAPE  H15R16069   6.648   4.261   8.893  2.8139  0.2903 -1.1696
  146SAPE  C21616070   6.834   4.239   9.006  0.7101  0.5309 -0.0830
  146SAPE  H16R16071   6.897   4.244   8.915  1.0833 -0.5091  0.1107
  146SAPE  H16S16072   6.860   4.144   9.057 -1.7151 -0.1946 -0.0274
  146SAPE  C21716073   6.872   4.365   9.084  0.0559  0.8324  0.1110
  146SAPE  H17R16074   6.807   4.366   9.174  0.0735  0.0659  0.1394
  146SAPE  H17S16075   6.849   4.463   9.037  0.3535  2.1651  2.5696
  146SAPE  C21816076   7.010   4.360   9.135 -0.4880 -0.5166 -0.1072
  146SAPE  H18R16077   7.079   4.344   9.049 -0.8977  1.6660 -0.9148
  146SAPE  H18S16078   7.024   4.271   9.201 -0.5390 -2.1315 -2.1662
  146SAPE  C21916079   7.058   4.483   9.220  0.6310 -0.4263 -0.4363
  146SAPE  H19R16080   7.057   4.569   9.150  2.9543  0.4735  0.5470
  146SAPE  H19S16081   7.161   4.467   9.256 -0.6294 -0.6945  3.5310
  146SAPE  C22016082   6.968   4.528   9.339  0.1888  0.1153  0.3211
  146SAPE  H20R16083   7.020   4.601   9.404 -1.1043  0.2514  1.2232
  146SAPE  H20S16084   6.945   4.441   9.404  2.5569  0.0367  1.1380
  146SAPE  H20T16085   6.871   4.574   9.311  0.0457 -1.3695 -1.8882
  146SAPE   C3316086   6.113   4.515  10.293  0.7815 -1.2156 -0.2547
  146SAPE   H3X16087   6.186   4.499  10.375  0.9056 -0.1017 -0.1432
  146SAPE   H3Y16088   6.135   4.615  10.252 -0.0929 -0.8611  0.1184
  146SAPE   C3416089   6.124   4.417  10.179 -0.1888  0.2353 -0.7122
  146SAPE   H4X16090   6.078   4.322  10.213 -0.7956  0.6336 -0.4078
  146SAPE   H4Y16091   6.232   4.403  10.156  0.8204 -0.8965  3.7015
  146SAPE   C3516092   6.060   4.463  10.052 -0.2967 -0.7227  0.2688
  146SAPE   H5X16093   6.111   4.552  10.009 -2.9252  1.7526  1.8898
  146SAPE   H5Y16094   5.956   4.501  10.057 -0.1413  0.5850 -3.3735
  146SAPE   C3616095   6.061   4.357   9.944 -0.3971  0.0730  0.2375
  146SAPE   H6X16096   5.997   4.277   9.986 -3.6700  1.5455 -1.6135
  146SAPE   H6Y16097   6.160   4.310   9.923  0.5450  2.1896 -0.3597
  146SAPE   C3716098   5.988   4.403   9.814 -0.6699  0.3508  0.3235
  146SAPE   H7X16099   6.042   4.491   9.772 -1.8807 -0.2159 -2.6360
  146SAPE   H7Y16100   5.887   4.442   9.839 -0.8076 -0.1673  0.5803
  146SAPE   C3816101   5.990   4.296   9.711 -0.3864  0.3482 -0.0292
  146SAPE   H8X16102   5.946   4.204   9.754 -1.8258  0.9152 -0.2373
  146SAPE   H8Y16103   6.098   4.280   9.690 -0.7758 -1.6378 -0.6736
  146SAPE   C3916104   5.922   4.338   9.581  0.7022  0.3131 -0.3792
  146SAPE   H9X16105   5.927   4.447   9.565  0.7139  1.0485  3.6085
  146SAPE   H9Y16106   5.813   4.318   9.590  1.0714 -0.7178  4.1726
  146SAPE  C31016107   5.971   4.259   9.454 -0.0550  0.7585  0.1609
  146SAPE  H10X16108   5.899   4.241   9.372 -0.5156 -1.8457  1.0600
  146SAPE  H10Y16109   5.988   4.156   9.492 -2.7087  0.5714  1.0608
  146SAPE  C31116110   6.107   4.306   9.395 -0.0397 -0.0813 -0.2790
  146SAPE  H11X16111   6.152   4.220   9.343  0.4051 -0.7343  1.1278
  146SAPE  H11Y16112   6.185   4.342   9.466 -0.3939  0.3273 -0.0920
  146SAPE  C31216113   6.072   4.401   9.280  0.2686  0.3551 -0.1787
  146SAPE  H12X16114   6.014   4.492   9.305  0.7969 -0.1585  3.5818
  146SAPE  H12Y16115   6.006   4.347   9.210 -0.8308  3.8797 -2.0703
  146SAPE  C31316116   6.198   4.436   9.206 -0.3418 -0.4954 -0.3211
  146SAPE  H13X16117   6.166   4.455   9.102 -1.6615 -1.4404 -0.1103
  146SAPE  H13Y16118   6.251   4.339   9.198 -1.9265 -1.4078 -0.0304
  146SAPE  C31416119   6.298   4.544   9.260  0.8971  0.8741  0.6282
  146SAPE  H14X16120   6.325   4.506   9.361  0.3501 -1.0976  0.0791
  146SAPE  H14Y16121   6.244   4.641   9.259  1.6174  1.2877 -1.1540
  146SAPE  C31516122   6.423   4.567   9.173 -0.3326  0.0608 -0.2472
  146SAPE  H15X16123   6.490   4.481   9.195  1.1560  1.3456  0.5140
  146SAPE  H15Y16124   6.490   4.649   9.207  1.0483 -0.5955 -1.2409
  146SAPE  C31616125   6.400   4.575   9.025 -0.6732  1.1721 -1.0161
  146SAPE  H16X16126   6.352   4.480   8.992 -0.2857  0.6633 -0.1461
  146SAPE  H16Y16127   6.497   4.585   8.971  0.2979 -1.8384 -0.0116
  146SAPE  C31716128   6.323   4.704   9.003 -0.5610 -0.0081  1.3013
  146SAPE  H17X16129   6.385   4.786   9.046 -0.4452  1.3036 -1.2084
  146SAPE  H17Y16130   6.219   4.702   9.041 -1.6612 -3.5922 -1.3284
  146SAPE  C31816131   6.301   4.746   8.854 -0.0126  0.4070  0.9901
  146SAPE  H18X16132   6.392   4.762   8.792 -1.6858  2.1301 -1.1262
  146SAPE  H18Y16133   6.241   4.839   8.860  2.3347  2.0342  0.6530
  146SAPE  H18Z16134   6.240   4.662   8.813  0.6647 -0.0802  0.9514
  147SAPE     N16135   4.801   1.343   6.230  0.2554 -0.2452  0.5436
  147SAPE   HN116136   4.733   1.291   6.290  0.4914 -0.2590  0.8023
  147SAPE   HN216137   4.750   1.338   6.140 -0.2564  2.1451  0.6570
  147SAPE   HN316138   4.893   1.297   6.213  0.6363  1.0531 -1.2311
  147SAPE   C1216139   4.822   1.487   6.276 -0.0395 -0.0249 -0.6234
  147SAPE  H12A16140   4.729   1.531   6.320 -0.0201  1.1926 -1.7416
  147SAPE  H12B16141   4.857   1.550   6.192  0.4620  1.4514  0.6459
  147SAPE   C1116142   4.931   1.491   6.386  0.6403  0.1640 -0.2583
  147SAPE  H11A16143   4.905   1.428   6.473  2.3494  1.1254  1.0055
  147SAPE  H11B16144   4.935   1.599   6.414  1.0632  0.1373 -0.1993
  147SAPE     P16145   5.192   1.484   6.397  0.2620  0.1260 -0.0766
  147SAPE   O1316146   5.289   1.372   6.396 -0.0060  0.3760 -0.4367
  147SAPE   O1416147   5.237   1.606   6.323  0.3805 -0.1785  0.0317
  147SAPE   O1216148   5.057   1.441   6.330  0.8474  0.3030  0.2902
  147SAPE   O1116149   5.154   1.511   6.551  0.0557 -0.7675  0.4757
  147SAPE    C116150   5.128   1.391   6.629  0.0483 -0.3979  0.0348
  147SAPE    HA16151   5.042   1.404   6.699 -0.1002 -0.9105 -0.0518
  147SAPE    HB16152   5.093   1.307   6.566  2.4585 -0.7850 -0.8688
  147SAPE    C216153   5.255   1.361   6.719 -0.1706 -0.2851 -0.1902
  147SAPE    HS16154   5.334   1.298   6.673  0.2543 -0.3587  0.6120
  147SAPE   O2116155   5.206   1.302   6.841 -1.1182  0.5231 -0.3930
  147SAPE   C2116156   5.174   1.173   6.831  1.1348 -0.3305  0.1623
  147SAPE   O2216157   5.181   1.115   6.723 -0.5218  0.6169 -0.7868
  147SAPE   C2216158   5.121   1.117   6.968  0.4620  0.6486 -0.1995
  147SAPE   H2R16159   5.053   1.197   7.005  1.1328  2.7745 -3.1931
  147SAPE   H2S16160   5.064   1.026   6.941  0.3855  0.4151  0.7346
  147SAPE    C316161   5.328   1.492   6.755 -0.7322  0.0239 -0.3631
  147SAPE    HX16162   5.249   1.560   6.791  0.6632  0.8100  1.3188
  147SAPE    HY16163   5.371   1.544   6.666  1.2390  1.1492  1.1652
  147SAPE   O3116164   5.437   1.460   6.854 -0.9598 -0.1950 -0.2455
  147SAPE   C3116165   5.510   1.567   6.886  1.1691  0.4133  0.5531
  147SAPE   O3216166   5.474   1.682   6.857  1.0784 -0.1722  0.5421
  147SAPE   C3216167   5.645   1.532   6.933  0.4227  0.2983  0.7529
  147SAPE   H2X16168   5.714   1.526   6.846  0.1408  1.3534  0.4372
  147SAPE   H2Y16169   5.634   1.429   6.974  0.0075 -0.4396 -1.0846
  147SAPE   C2316170   5.233   1.087   7.070 -0.0723 -0.0727  0.5604
  147SAPE   H3R16171   5.291   1.006   7.022 -0.2507  0.5358 -0.7129
  147SAPE   H3S16172   5.179   1.050   7.161 -2.9261 -0.9229 -1.3414
  147SAPE   C2416173   5.317   1.204   7.118 -0.0165  0.1333 -0.0488
  147SAPE   H4R16174   5.375   1.253   7.038  0.6180  0.8485  0.8245
  147SAPE   H4S16175   5.392   1.177   7.195  1.3357  1.1603 -0.9562
  147SAPE   C2516176   5.221   1.308   7.171 -0.4203  0.0720 -0.8600
  147SAPE   H5R16177   5.148   1.349   7.099 -1.8757 -0.6419  0.1505
  147SAPE   C2616178   5.210   1.345   7.303  0.5254  0.0447  0.7601
  147SAPE   H6R16179   5.142   1.431   7.312  0.3153 -0.1393  0.9286
  147SAPE   C2716180   5.286   1.297   7.427  0.5926  0.3991  0.5019
  147SAPE   H7R16181   5.297   1.377   7.503 -0.0223 -0.6201  1.7161
  147SAPE   H7S16182   5.388   1.275   7.390  0.8103  0.1489  1.2266
  147SAPE   C2816183   5.219   1.186   7.500  0.0862 -1.2844  0.2191
  147SAPE   H8R16184   5.119   1.150   7.471  0.0065 -0.4746 -0.5467
  147SAPE   C2916185   5.274   1.125   7.606 -0.0940 -0.1305 -0.0421
  147SAPE   H9R16186   5.213   1.043   7.647  0.4173  0.0781  1.1784
  147SAPE  C21016187   5.408   1.161   7.669  0.6389  0.1101  0.0725
  147SAPE  H10R16188   5.482   1.173   7.587 -0.9457  1.8265 -1.2161
  147SAPE  H10S16189   5.445   1.077   7.732 -1.5620 -1.4178 -0.5339
  147SAPE  C21116190   5.396   1.292   7.747  0.1727  0.6406  0.2377
  147SAPE  H11R16191   5.396   1.379   7.680 -0.1939 -0.7426 -1.6509
  147SAPE  C21216192   5.396   1.310   7.882 -0.0803 -0.1748  0.6656
  147SAPE  H12R16193   5.380   1.414   7.913  0.5984  1.0354 -2.6991
  147SAPE  C21316194   5.400   1.205   7.995 -0.0722 -0.0029  0.2051
  147SAPE  H13R16195   5.493   1.223   8.054 -0.0441 -1.4077  0.6385
  147SAPE  H13S16196   5.416   1.103   7.954 -2.1643 -0.1689 -0.3226
  147SAPE  C21416197   5.274   1.203   8.079  0.1676 -0.3884 -0.0996
  147SAPE  H14R16198   5.224   1.300   8.084  1.1034  0.1886 -1.4052
  147SAPE  C21516199   5.229   1.106   8.156 -0.0524  0.7507 -0.4944
  147SAPE  H15R16200   5.125   1.114   8.193  0.3336 -1.1176  1.1094
  147SAPE  C21616201   5.280   0.964   8.170  0.2188 -0.5205 -0.4492
  147SAPE  H16R16202   5.373   0.955   8.110 -0.2703 -1.3926 -1.0906
  147SAPE  H16S16203   5.204   0.891   8.136  0.3103 -1.6347  1.5785
  147SAPE  C21716204   5.314   0.911   8.308 -0.0901  0.1756  0.5552
  147SAPE  H17R16205   5.370   0.816   8.293  0.9264  0.8620 -0.1355
  147SAPE  H17S16206   5.226   0.888   8.372 -0.6764  0.5529 -0.0984
  147SAPE  C21816207   5.407   1.007   8.383 -0.7002  0.3740 -0.7995
  147SAPE  H18R16208   5.365   1.107   8.403  0.7407  0.9410 -0.4440
  147SAPE  H18S16209   5.493   1.024   8.314 -1.7533  0.5604 -2.0997
  147SAPE  C21916210   5.453   0.940   8.510  0.4851  0.0031 -0.1233
  147SAPE  H19R16211   5.544   0.994   8.545  0.2377 -0.7728  1.8346
  147SAPE  H19S16212   5.485   0.835   8.488  1.1311  0.0715  0.4496
  147SAPE  C22016213   5.351   0.925   8.628 -0.3689  0.8335 -0.5400
  147SAPE  H20R16214   5.253   0.886   8.593 -0.4364  0.6415 -0.1335
  147SAPE  H20S16215   5.338   1.023   8.678 -0.4639  0.5953 -0.0978
  147SAPE  H20T16216   5.393   0.863   8.710 -0.0981  1.3881 -0.2582
  147SAPE   C3316217   5.694   1.623   7.041  0.0531  0.0076  0.2211
  147SAPE   H3X16218   5.612   1.625   7.115 -0.1842  1.3217 -0.0647
  147SAPE   H3Y16219   5.718   1.723   6.998 -0.2138 -0.0156  0.0160
  147SAPE   C3416220   5.827   1.581   7.110 -0.6066 -0.6561  0.1220
  147SAPE   H4X16221   5.901   1.662   7.090 -0.0670 -1.1770  0.0029
  147SAPE   H4Y16222   5.878   1.496   7.060  0.2176 -1.0855  1.6261
  147SAPE   C3516223   5.809   1.563   7.258 -0.1579 -0.0282  0.1119
  147SAPE   H5X16224   5.759   1.640   7.319  1.8777  1.4936 -0.0289
  147SAPE   H5Y16225   5.914   1.570   7.295 -0.2598 -0.3343  0.4732
  147SAPE   C3616226   5.743   1.427   7.293  0.4593  0.4522 -0.3163
  147SAPE   H6X16227   5.811   1.339   7.296 -0.0112  0.0898 -0.0403
  147SAPE   H6Y16228   5.666   1.415   7.213 -1.3116 -0.6074  1.4517
  147SAPE   C3716229   5.687   1.426   7.437  0.7216 -0.1568 -0.5602
  147SAPE   H7X16230   5.607   1.351   7.454 -0.8203  1.7459  1.0616
  147SAPE   H7Y16231   5.625   1.516   7.458 -0.2266 -0.2088 -2.8622
  147SAPE   C3816232   5.789   1.403   7.548  0.1733  0.5034  0.6882
  147SAPE   H8X16233   5.865   1.484   7.546 -2.2703  3.0233  2.3894
  147SAPE   H8Y16234   5.846   1.309   7.527  0.7377  0.5874  1.7568
  147SAPE   C3916235   5.735   1.408   7.687 -0.2452 -0.2855 -0.4365
  147SAPE   H9X16236   5.681   1.313   7.705  0.3144 -0.6889 -0.8330
  147SAPE   H9Y16237   5.663   1.490   7.709  0.0785 -0.6745  2.3738
  147SAPE  C31016238   5.838   1.430   7.794  0.3314 -0.1038  0.0156
  147SAPE  H10X16239   5.881   1.532   7.779 -1.2121  0.3409 -1.7950
  147SAPE  H10Y16240   5.922   1.360   7.774  1.3882  0.3403  2.5418
  147SAPE  C31116241   5.767   1.426   7.935 -0.4642  0.2959 -0.3633
  147SAPE  H11X16242   5.711   1.333   7.958 -0.6359  0.2831 -0.8227
  147SAPE  H11Y16243   5.694   1.509   7.942 -1.1925 -0.4161  0.9993
  147SAPE  C31216244   5.868   1.472   8.037  0.5142 -0.6997 -0.0921
  147SAPE  H12X16245   5.896   1.578   8.016  1.7713 -0.8125  0.8899
  147SAPE  H12Y16246   5.958   1.408   8.030  1.2552  0.1844  0.8937
  147SAPE  C31316247   5.817   1.456   8.176  0.2340  0.5023 -0.4055
  147SAPE  H13X16248   5.781   1.352   8.190  5.5181 -1.8476 -1.4523
  147SAPE  H13Y16249   5.733   1.528   8.189 -0.3298  1.3887 -6.1118
  147SAPE  C31416250   5.923   1.480   8.280 -0.2360 -0.3860  0.1786
  147SAPE  H14X16251   5.962   1.583   8.267 -4.2308  1.2085 -0.7726
  147SAPE  H14Y16252   6.014   1.428   8.242  0.7986  0.2244  1.7665
  147SAPE  C31516253   5.894   1.449   8.431 -0.0169  0.5184 -0.2720
  147SAPE  H15X16254   5.820   1.515   8.479 -1.2753 -0.2090 -1.1467
  147SAPE  H15Y16255   5.991   1.452   8.485  2.0491 -2.6039 -3.3139
  147SAPE  C31616256   5.839   1.309   8.463 -0.3078  0.8176  0.1020
  147SAPE  H16X16257   5.741   1.301   8.411  0.9083 -0.2308 -2.1674
  147SAPE  H16Y16258   5.830   1.314   8.574 -0.7456 -0.5113  0.1442
  147SAPE  C31716259   5.918   1.188   8.417  0.3239  0.1995 -0.3417
  147SAPE  H17X16260   6.014   1.182   8.473 -1.8592  0.6403  3.9197
  147SAPE  H17Y16261   5.938   1.205   8.309 -0.5818  2.9698 -0.1606
  147SAPE  C31816262   5.832   1.061   8.432 -0.3396 -0.2969 -0.4173
  147SAPE  H18X16263   5.794   1.054   8.536  0.5624 -1.6654 -0.1517
  147SAPE  H18Y16264   5.886   0.967   8.407  0.6438 -0.2464  1.3453
  147SAPE  H18Z16265   5.748   1.062   8.359 -0.4435 -1.0162 -0.3179
  148SAPE     N16266   4.540   0.742   6.277  0.4509 -0.1113 -0.4331
  148SAPE   HN116267   4.637   0.705   6.286  1.0139  1.5655  0.8418
  148SAPE   HN216268   4.505   0.749   6.179  0.2338 -0.1736 -0.3620
  148SAPE   HN316269   4.527   0.836   6.319 -2.3641 -1.6431  2.6282
  148SAPE   C1216270   4.458   0.649   6.358  0.3963  0.2123 -0.0455
  148SAPE  H12A16271   4.377   0.600   6.300  1.1410 -0.5169 -0.4996
  148SAPE  H12B16272   4.414   0.702   6.444  1.0208 -0.1233  0.4940
  148SAPE   C1116273   4.549   0.549   6.421  0.5341  0.8898  0.8799
  148SAPE  H11A16274   4.594   0.472   6.355  0.5283  3.0727 -1.8577
  148SAPE  H11B16275   4.473   0.490   6.477  0.0185  0.7390  0.0418
  148SAPE     P16276   4.799   0.627   6.458 -0.0178 -0.4745  0.0712
  148SAPE   O1316277   4.785   0.651   6.314 -0.5241  0.2331 -0.3513
  148SAPE   O1416278   4.862   0.731   6.542 -0.3673  0.3049  0.2925
  148SAPE   O1216279   4.648   0.610   6.504  0.2471 -0.1623  0.1667
  148SAPE   O1116280   4.869   0.492   6.490  0.1633 -0.9585  0.2557
  148SAPE    C116281   4.931   0.470   6.618  0.0631 -0.2639 -0.4113
  148SAPE    HA16282   5.030   0.520   6.613  0.3950 -0.6917  1.1829
  148SAPE    HB16283   4.871   0.504   6.705  1.5796  0.2206  0.4954
  148SAPE    C216284   4.961   0.323   6.632  0.3848  0.9296  0.3760
  148SAPE    HS16285   5.019   0.289   6.543  2.1037 -0.1532  1.8504
  148SAPE   O2116286   4.840   0.254   6.657  0.4305  0.3450 -0.1668
  148SAPE   C2116287   4.780   0.201   6.548  0.1857  0.0390 -0.4564
  148SAPE   O2216288   4.830   0.212   6.435 -0.3985 -0.4203 -0.2161
  148SAPE   C2216289   4.655   0.129   6.588  0.5004  0.7216 -0.5430
  148SAPE   H2R16290   4.621   0.062   6.506 -1.8337  1.8446 -0.5625
  148SAPE   H2S16291   4.674   0.064   6.676 -1.0803  1.3495  0.2854
  148SAPE    C316292   5.056   0.304   6.760 -0.7298  0.3613  0.0018
  148SAPE    HX16293   5.155   0.343   6.729 -0.8182 -0.4693 -1.4244
  148SAPE    HY16294   5.078   0.196   6.778 -0.2571  0.2024 -1.3975
  148SAPE   O3116295   5.013   0.372   6.881  0.2046  0.1269  0.1009
  148SAPE   C3116296   4.940   0.300   6.969 -0.4515  0.0986 -0.7075
  148SAPE   O3216297   4.897   0.191   6.943  0.7166 -0.1305  0.1445
  148SAPE   C3216298   4.895   0.386   7.089  0.6131 -0.0930 -0.0982
  148SAPE   H2X16299   4.788   0.413   7.085  0.0580 -1.5994  2.3691
  148SAPE   H2Y16300   4.951   0.482   7.080  0.4446  0.2306  1.9282
  148SAPE   C2316301   4.537   0.214   6.629  0.3631 -0.4598 -0.2577
  148SAPE   H3R16302   4.446   0.158   6.660 -1.0053  2.9861  2.7045
  148SAPE   H3S16303   4.509   0.271   6.537 -1.0692 -1.2652 -0.3445
  148SAPE   C2416304   4.555   0.319   6.743  0.1031  0.4443  0.3598
  148SAPE   H4R16305   4.631   0.394   6.714  0.1986  1.1786  2.3796
  148SAPE   H4S16306   4.588   0.267   6.835 -0.6546 -0.3314  0.2152
  148SAPE   C2516307   4.431   0.393   6.770  0.2074  0.5033 -0.1411
  148SAPE   H5R16308   4.363   0.419   6.688 -0.7978  2.2927  1.1944
  148SAPE   C2616309   4.401   0.453   6.887 -0.2731 -0.0030  0.1949
  148SAPE   H6R16310   4.316   0.522   6.891 -0.9466 -0.8332  0.2709
  148SAPE   C2716311   4.473   0.444   7.019 -0.1974  0.1746 -0.5768
  148SAPE   H7R16312   4.525   0.541   7.032 -1.6153  1.2145 -2.2576
  148SAPE   H7S16313   4.547   0.361   7.025 -0.6374 -0.1438  0.7490
  148SAPE   C2816314   4.378   0.436   7.136  0.5833 -0.5575 -0.4305
  148SAPE   H8R16315   4.273   0.463   7.113 -0.2273 -3.0826  0.0190
  148SAPE   C2916316   4.393   0.384   7.257  0.6016 -0.1322  0.3080
  148SAPE   H9R16317   4.309   0.374   7.326  2.5348 -2.1807  2.5707
  148SAPE  C21016318   4.523   0.333   7.322  1.0028 -0.1486 -0.2302
  148SAPE  H10R16319   4.590   0.302   7.238  0.7320 -0.8373 -0.2035
  148SAPE  H10S16320   4.506   0.233   7.367  2.6688 -0.1244  0.4976
  148SAPE  C21116321   4.578   0.448   7.410  0.0676 -0.3917 -0.0350
  148SAPE  H11R16322   4.588   0.542   7.355  0.0905 -1.2790 -1.6167
  148SAPE  C21216323   4.628   0.448   7.538  0.5381  0.2178  0.4059
  148SAPE  H12R16324   4.659   0.539   7.591  0.6034  0.4509 -0.0269
  148SAPE  C21316325   4.640   0.321   7.621  0.0361  0.3591  0.1616
  148SAPE  H13R16326   4.736   0.320   7.677  0.1778  2.4660  0.0335
  148SAPE  H13S16327   4.635   0.233   7.553 -1.3929  0.2491  0.3838
  148SAPE  C21416328   4.529   0.301   7.731 -0.1029  0.4206 -0.3066
  148SAPE  H14R16329   4.442   0.243   7.697  0.3268  1.3370 -3.3034
  148SAPE  C21516330   4.532   0.350   7.859 -0.1587  0.2896 -0.0850
  148SAPE  H15R16331   4.456   0.317   7.931  0.0255  2.3367  1.1394
  148SAPE  C21616332   4.647   0.420   7.924  0.2272 -0.3193  0.7397
  148SAPE  H16R16333   4.602   0.501   7.985  0.2166 -0.9295  1.5503
  148SAPE  H16S16334   4.708   0.464   7.842 -0.8455 -0.9562 -0.4496
  148SAPE  C21716335   4.729   0.322   8.005 -0.2706 -0.1521 -0.0391
  148SAPE  H17R16336   4.821   0.369   8.045 -0.7135  0.1594  0.6387
  148SAPE  H17S16337   4.771   0.242   7.940 -1.6833 -1.2732  0.3753
  148SAPE  C21816338   4.655   0.249   8.121 -0.3983  0.3416 -0.9743
  148SAPE  H18R16339   4.592   0.170   8.074 -0.7567  0.8628 -1.3815
  148SAPE  H18S16340   4.580   0.314   8.169 -2.2439 -0.9172 -2.0406
  148SAPE  C21916341   4.754   0.195   8.225  0.0168 -0.5876 -0.3142
  148SAPE  H19R16342   4.702   0.183   8.322 -3.6391 -0.5897 -2.1212
  148SAPE  H19S16343   4.842   0.261   8.240 -0.3957  0.5010 -2.3220
  148SAPE  C22016344   4.799   0.050   8.185 -0.4773  0.1433  0.3241
  148SAPE  H20R16345   4.736  -0.037   8.214  1.5508 -1.3185  0.5831
  148SAPE  H20S16346   4.901   0.030   8.224 -0.1168 -0.2433 -0.7924
  148SAPE  H20T16347   4.811   0.054   8.075 -2.6377 -0.0607  0.0408
  148SAPE   C3316348   4.928   0.315   7.219  0.2850  0.6190  1.0260
  148SAPE   H3X16349   4.887   0.212   7.211  0.9899  0.3669  0.4881
  148SAPE   H3Y16350   4.875   0.369   7.300  0.5865 -0.4913  1.9908
  148SAPE   C3416351   5.073   0.308   7.258  0.5477 -0.3789 -0.1855
  148SAPE   H4X16352   5.105   0.415   7.257 -1.3551  0.2290 -0.0123
  148SAPE   H4Y16353   5.123   0.251   7.177 -1.6428 -0.3808 -1.5889
  148SAPE   C3516354   5.095   0.251   7.400 -0.0621  1.1483  0.2840
  148SAPE   H5X16355   5.202   0.223   7.414 -0.4814  0.0505  1.4785
  148SAPE   H5Y16356   5.036   0.158   7.416  1.6531 -0.1959 -0.8578
  148SAPE   C3616357   5.047   0.339   7.517 -0.4442  0.5813  0.6575
  148SAPE   H6X16358   4.937   0.346   7.526 -0.5647  2.0468 -1.3481
  148SAPE   H6Y16359   5.068   0.446   7.496 -3.9757  0.8648 -2.4235
  148SAPE   C3716360   5.116   0.291   7.643 -0.4508  0.4156 -0.2173
  148SAPE   H7X16361   5.216   0.256   7.610 -1.7095 -2.7693 -1.0507
  148SAPE   H7Y16362   5.063   0.204   7.687 -2.2694  0.4842 -2.1666
  148SAPE   C3816363   5.147   0.405   7.750 -0.7499 -0.5187  0.1343
  148SAPE   H8X16364   5.047   0.428   7.791 -1.7063 -2.5439 -0.8930
  148SAPE   H8Y16365   5.187   0.492   7.695  2.3961 -1.5095  0.6459
  148SAPE   C3916366   5.262   0.366   7.850 -0.0112  0.0480  0.1247
  148SAPE   H9X16367   5.350   0.335   7.791  0.2959 -1.1883  1.1685
  148SAPE   H9Y16368   5.234   0.281   7.916  1.0785 -0.3801  0.0481
  148SAPE  C31016369   5.316   0.483   7.929 -0.2756 -0.9524 -0.1863
  148SAPE  H10X16370   5.232   0.552   7.951  1.3738  0.4001  2.4481
  148SAPE  H10Y16371   5.392   0.537   7.869 -1.3768 -0.4733 -1.1710
  148SAPE  C31116372   5.375   0.447   8.060 -0.0249 -0.2702  0.2531
  148SAPE  H11X16373   5.443   0.359   8.051  0.8817  0.1622  2.2707
  148SAPE  H11Y16374   5.292   0.414   8.125 -2.7295  1.6753 -2.0149
  148SAPE  C31216375   5.463   0.549   8.139  0.1560 -0.4730 -0.3599
  148SAPE  H12X16376   5.407   0.636   8.178  3.7242  0.2900  3.7855
  148SAPE  H12Y16377   5.552   0.581   8.081  0.4775  0.9652  0.8787
  148SAPE  C31316378   5.530   0.489   8.259 -0.4570  0.5147 -0.8831
  148SAPE  H13X16379   5.604   0.411   8.232  0.9242  0.9471  1.3610
  148SAPE  H13Y16380   5.459   0.442   8.329  0.0376  2.3302  0.9408
  148SAPE  C31416381   5.606   0.593   8.342 -0.6657 -0.1257 -0.1028
  148SAPE  H14X16382   5.537   0.673   8.375 -1.1824 -0.3410 -0.6358
  148SAPE  H14Y16383   5.670   0.639   8.263  0.3036  1.1514  1.3820
  148SAPE  C31516384   5.684   0.538   8.469 -0.7471  0.1498  0.6983
  148SAPE  H15X16385   5.764   0.470   8.434 -1.0110  0.1128  0.1579
  148SAPE  H15Y16386   5.610   0.475   8.523 -1.0020  0.4040  0.6476
  148SAPE  C31616387   5.745   0.653   8.555 -0.2083  0.3302  0.1367
  148SAPE  H16X16388   5.672   0.700   8.624 -1.3684 -1.8698  0.5021
  148SAPE  H16Y16389   5.783   0.731   8.486  1.9611 -0.8953 -0.1376
  148SAPE  C31716390   5.871   0.617   8.636  0.5808 -0.3594  0.3430
  148SAPE  H17X16391   5.953   0.587   8.568  0.6122 -1.2148  0.7466
  148SAPE  H17Y16392   5.848   0.520   8.686 -3.0417  1.2568  2.2464
  148SAPE  C31816393   5.900   0.724   8.738 -0.4431  0.0826  0.2668
  148SAPE  H18X16394   5.803   0.763   8.776 -0.8706 -0.8477  0.1697
  148SAPE  H18Y16395   5.944   0.809   8.682  0.0599 -0.4950 -0.2230
  148SAPE  H18Z16396   5.970   0.685   8.815 -0.0356 -0.0404 -0.1610
  149SAPE     N16397   3.273   5.598   6.465  0.5298  0.6573  0.1139
  149SAPE   HN116398   3.252   5.678   6.403  1.1809 -0.5288 -1.7268
  149SAPE   HN216399   3.194   5.530   6.463  1.4607 -0.5519  1.7248
  149SAPE   HN316400   3.292   5.632   6.562 -0.0056 -0.3581  0.5992
  149SAPE   C1216401   3.398   5.520   6.413 -0.2037  0.6013 -0.6226
  149SAPE  H12A16402   3.363   5.469   6.321 -2.9171 -0.5241  0.9239
  149SAPE  H12B16403   3.422   5.443   6.489 -0.4196  0.4454 -0.7129
  149SAPE   C1116404   3.511   5.619   6.404 -1.0873 -0.3365 -0.1385
  149SAPE  H11A16405   3.492   5.700   6.331 -3.5637  0.2711  1.0751
  149SAPE  H11B16406   3.597   5.562   6.362 -1.1835 -1.5969  1.2741
  149SAPE     P16407   3.670   5.737   6.567 -0.6162 -0.0871  0.0176
  149SAPE   O1316408   3.732   5.684   6.690 -0.4524 -0.8096  0.0201
  149SAPE   O1416409   3.757   5.735   6.448  0.0977 -0.5883  0.0416
  149SAPE   O1216410   3.537   5.665   6.540  0.0890  0.4708 -0.4456
  149SAPE   O1116411   3.622   5.886   6.588  0.4834  0.5088  0.1486
  149SAPE    C116412   3.553   5.962   6.479  0.8361  0.7914 -0.0754
  149SAPE    HA16413   3.622   6.008   6.406  1.0314  1.3625  0.4561
  149SAPE    HB16414   3.479   5.901   6.422  0.7998  0.1742  0.6134
  149SAPE    C216415   3.475   6.075   6.543 -0.6339 -0.1465 -0.2869
  149SAPE    HS16416   3.417   6.133   6.469  0.2648 -0.4300 -1.2425
  149SAPE   O2116417   3.563   6.166   6.612  0.0791 -0.1627 -0.4098
  149SAPE   C2116418   3.631   6.252   6.538  0.0509 -0.7202  0.1398
  149SAPE   O2216419   3.628   6.256   6.415 -0.1982  0.5280 -0.3336
  149SAPE   C2216420   3.722   6.334   6.630 -0.8445 -0.0017  0.0966
  149SAPE   H2R16421   3.675   6.434   6.648 -0.7064  0.1559 -0.3951
  149SAPE   H2S16422   3.727   6.285   6.729  2.0099 -0.1696 -0.0582
  149SAPE    C316423   3.375   6.022   6.653  0.0588  0.6789  0.6066
  149SAPE    HX16424   3.439   5.987   6.737 -0.2421  1.4264  1.1599
  149SAPE    HY16425   3.316   5.935   6.616 -0.8726  0.6252  2.1704
  149SAPE   O3116426   3.287   6.125   6.699 -0.5277  0.1235 -0.0210
  149SAPE   C3116427   3.173   6.151   6.633 -0.0818 -0.4163  0.2687
  149SAPE   O3216428   3.140   6.091   6.528  0.5038 -0.7698  0.5581
  149SAPE   C3216429   3.096   6.270   6.692  0.2446 -0.3032 -0.2667
  149SAPE   H2X16430   3.000   6.277   6.637  0.8710  0.9866 -1.2428
  149SAPE   H2Y16431   3.155   6.363   6.677  1.6454 -1.1398 -0.1100
  149SAPE   C2316432   3.854   6.380   6.565  0.0057 -0.8783  0.3842
  149SAPE   H3R16433   3.892   6.453   6.640 -0.3964  1.7516 -1.7804
  149SAPE   H3S16434   3.844   6.442   6.473 -0.5636 -0.1714  0.9043
  149SAPE   C2416435   3.951   6.270   6.537 -0.6739 -0.0421 -0.0722
  149SAPE   H4R16436   3.910   6.184   6.479  1.7937 -2.1175  1.0775
  149SAPE   H4S16437   3.968   6.225   6.637  1.0447  0.3359 -0.1587
  149SAPE   C2516438   4.076   6.304   6.471 -0.2255 -0.0247 -0.0174
  149SAPE   H5R16439   4.065   6.334   6.366 -1.6633 -1.1600 -0.2281
  149SAPE   C2616440   4.199   6.309   6.524 -0.0138 -0.2328 -0.3330
  149SAPE   H6R16441   4.282   6.335   6.456 -0.2592  0.2933 -0.4368
  149SAPE   C2716442   4.232   6.282   6.666  0.1743  0.0217  0.0334
  149SAPE   H7R16443   4.342   6.280   6.687  0.4380  2.6360 -0.7728
  149SAPE   H7S16444   4.207   6.176   6.686 -1.0766  0.5432  1.3841
  149SAPE   C2816445   4.166   6.368   6.769 -0.3734 -0.0376  0.0736
  149SAPE   H8R16446   4.122   6.458   6.724  1.2625  0.6461 -0.2229
  149SAPE   C2916447   4.160   6.347   6.904 -0.2432  0.3925 -0.2840
  149SAPE   H9R16448   4.099   6.416   6.965 -0.9160 -0.4547  0.0080
  149SAPE  C21016449   4.222   6.231   6.986  0.1773  0.1395 -0.1080
  149SAPE  H10R16450   4.331   6.253   6.988  0.2813 -0.3467 -0.4115
  149SAPE  H10S16451   4.198   6.144   6.922  0.6197  0.9263 -1.3719
  149SAPE  C21116452   4.163   6.205   7.123 -0.1053 -0.2553 -0.4732
  149SAPE  H11R16453   4.104   6.112   7.126 -0.3793 -0.1148 -1.2029
  149SAPE  C21216454   4.196   6.269   7.240  0.1052 -0.2853  1.3149
  149SAPE  H12R16455   4.149   6.230   7.331 -0.3872  0.7327  1.5167
  149SAPE  C21316456   4.294   6.382   7.265 -0.5654 -0.9875 -0.3083
  149SAPE  H13R16457   4.355   6.409   7.176 -0.3155  0.9643  0.4186
  149SAPE  H13S16458   4.364   6.339   7.338 -2.2820 -1.5231  1.0889
  149SAPE  C21416459   4.230   6.505   7.314 -0.0365 -1.0674  0.3311
  149SAPE  H14R16460   4.195   6.575   7.237 -0.0622 -0.2848  1.0476
  149SAPE  C21516461   4.205   6.543   7.441  0.2323  0.4611  0.0030
  149SAPE  H15R16462   4.166   6.644   7.465  3.5198  1.8992 -0.1703
  149SAPE  C21616463   4.245   6.462   7.564  0.2757  0.5336  0.7152
  149SAPE  H16R16464   4.349   6.487   7.594  1.4301 -1.9272 -0.9450
  149SAPE  H16S16465   4.250   6.358   7.527  0.4119  0.9247 -0.4188
  149SAPE  C21716466   4.137   6.476   7.675  0.2965 -0.6049  0.4005
  149SAPE  H17R16467   4.032   6.456   7.644  1.1079 -0.5611 -2.8109
  149SAPE  H17S16468   4.141   6.583   7.707 -1.1441 -0.3662 -0.1526
  149SAPE  C21816469   4.175   6.407   7.805 -0.3729  0.3550 -0.1798
  149SAPE  H18R16470   4.279   6.425   7.841  0.7072 -5.3467  0.4735
  149SAPE  H18S16471   4.175   6.299   7.776 -1.5424  0.6170 -1.2456
  149SAPE  C21916472   4.081   6.433   7.924 -0.2290 -0.2000 -0.0476
  149SAPE  H19R16473   3.972   6.420   7.905 -0.5124  1.7193  0.0866
  149SAPE  H19S16474   4.090   6.541   7.945 -0.8172 -0.1256 -0.1641
  149SAPE  C22016475   4.120   6.349   8.043 -0.4019  0.3234 -0.5264
  149SAPE  H20R16476   4.044   6.367   8.122  0.3899  1.1870  0.0511
  149SAPE  H20S16477   4.206   6.394   8.096 -0.7951 -0.0699  0.4707
  149SAPE  H20T16478   4.142   6.242   8.023  1.9399  0.6706 -0.0506
  149SAPE   C3316479   3.052   6.261   6.842 -0.4626  0.0806  0.6200
  149SAPE   H3X16480   3.026   6.153   6.850 -1.6910  0.2396 -0.7830
  149SAPE   H3Y16481   2.966   6.330   6.855  0.5534  1.2925  1.1443
  149SAPE   C3416482   3.160   6.299   6.948  0.1782  0.5346 -0.1401
  149SAPE   H4X16483   3.197   6.402   6.931  1.8373 -0.2983 -1.8954
  149SAPE   H4Y16484   3.245   6.228   6.940  1.4728  1.7259  1.9682
  149SAPE   C3516485   3.115   6.286   7.093  0.2658 -0.1438 -0.3003
  149SAPE   H5X16486   3.203   6.266   7.158  0.7330  1.3201 -0.4379
  149SAPE   H5Y16487   3.047   6.199   7.102 -1.5202  1.2645  0.3342
  149SAPE   C3616488   3.044   6.408   7.147  0.4547  0.0333 -0.4505
  149SAPE   H6X16489   2.972   6.439   7.068  1.1006  0.9735 -0.6868
  149SAPE   H6Y16490   3.116   6.491   7.166 -1.2005  1.6369 -0.8429
  149SAPE   C3716491   2.968   6.396   7.287 -0.1698  0.4568 -0.2527
  149SAPE   H7X16492   2.871   6.343   7.272  1.0664 -1.6932 -1.0304
  149SAPE   H7Y16493   2.954   6.501   7.321 -0.9222 -0.1711  1.4820
  149SAPE   C3816494   3.059   6.330   7.395  0.7438  0.5039  1.0374
  149SAPE   H8X16495   3.152   6.390   7.406  0.5891  1.4424 -1.7699
  149SAPE   H8Y16496   3.088   6.227   7.365  0.1143  0.1185  1.7509
  149SAPE   C3916497   2.984   6.320   7.520  0.0709 -0.3485  0.0232
  149SAPE   H9X16498   2.882   6.280   7.504  0.5815 -1.4670 -0.5730
  149SAPE   H9Y16499   2.979   6.423   7.562  1.0032 -0.3088  0.0706
  149SAPE  C31016500   3.051   6.219   7.614 -0.1717  0.2987  0.2874
  149SAPE  H10X16501   3.151   6.265   7.633  0.2494  0.5194 -2.1220
  149SAPE  H10Y16502   3.059   6.118   7.569  1.7663  0.2053  0.7350
  149SAPE  C31116503   2.988   6.206   7.751 -0.3924 -0.0368  0.7285
  149SAPE  H11X16504   2.986   6.098   7.776 -2.5386 -0.2112  0.0050
  149SAPE  H11Y16505   2.881   6.231   7.734 -0.0296  1.5518  0.6156
  149SAPE  C31216506   3.059   6.268   7.862 -0.0899 -0.3558  0.3434
  149SAPE  H12X16507   3.072   6.378   7.852 -0.0636 -0.3666  0.2509
  149SAPE  H12Y16508   3.153   6.212   7.881 -1.0669 -2.5793 -0.9397
  149SAPE  C31316509   2.980   6.247   7.995  0.7398 -0.0155  0.3401
  149SAPE  H13X16510   2.961   6.137   7.997 -1.6846  0.2224 -2.6379
  149SAPE  H13Y16511   2.879   6.292   8.004  0.3547 -0.6458 -0.6502
  149SAPE  C31416512   3.055   6.298   8.115 -0.3003  1.1826  0.1183
  149SAPE  H14X16513   3.085   6.400   8.083 -1.3087  0.9762 -1.6046
  149SAPE  H14Y16514   3.154   6.255   8.141 -0.3309  1.7456  1.2325
  149SAPE  C31516515   2.951   6.297   8.230 -0.2309  0.3814 -0.2020
  149SAPE  H15X16516   2.926   6.189   8.243 -2.3180  0.8682  0.0781
  149SAPE  H15Y16517   2.856   6.347   8.204 -0.5183 -0.1682 -0.2350
  149SAPE  C31616518   3.000   6.353   8.366 -0.4859 -0.1436 -0.0181
  149SAPE  H16X16519   3.087   6.303   8.413 -1.0019 -0.8862  0.1762
  149SAPE  H16Y16520   2.916   6.342   8.439 -0.0456 -0.5585  0.4394
  149SAPE  C31716521   3.028   6.501   8.355  0.0548 -0.7882 -0.0936
  149SAPE  H17X16522   3.114   6.508   8.285  0.0522  1.1633  0.0312
  149SAPE  H17Y16523   3.083   6.539   8.444  0.3723 -0.4555 -0.4241
  149SAPE  C31816524   2.907   6.595   8.320  0.0529  0.0388  1.1241
  149SAPE  H18X16525   2.873   6.585   8.214 -0.2931 -0.6655  1.2928
  149SAPE  H18Y16526   2.921   6.702   8.345  0.0049  0.4194 -0.3479
  149SAPE  H18Z16527   2.822   6.557   8.381 -0.5142 -0.9257 -0.2238
  150SAPE     N16528   2.046   5.843   6.237 -0.4914 -0.2822 -0.2308
  150SAPE   HN116529   2.001   5.912   6.174  1.5544 -0.4288 -1.9386
  150SAPE   HN216530   2.025   5.879   6.333  0.8926  2.4637 -0.8595
  150SAPE   HN316531   2.149   5.853   6.231 -0.6360  1.8280 -0.0615
  150SAPE   C1216532   2.003   5.701   6.212  0.4249 -0.0026 -0.3660
  150SAPE  H12A16533   2.061   5.637   6.282 -0.2620  0.8437  1.0207
  150SAPE  H12B16534   2.024   5.675   6.106 -3.4094 -0.5022 -1.1577
  150SAPE   C1116535   1.857   5.682   6.250  0.3506  0.4706 -0.0283
  150SAPE  H11A16536   1.842   5.686   6.361 -2.3214 -0.8638 -0.2352
  150SAPE  H11B16537   1.842   5.573   6.233  1.1952  0.2017  0.8331
  150SAPE     P16538   1.629   5.771   6.159  0.2893  0.0670  0.0206
  150SAPE   O1316539   1.599   5.817   6.022  0.2435 -0.1096 -0.4128
  150SAPE   O1416540   1.572   5.640   6.186  0.3641 -0.2663  0.0336
  150SAPE   O1216541   1.781   5.769   6.169 -0.1791 -0.1983  0.2280
  150SAPE   O1116542   1.578   5.868   6.268  0.0601  0.3738  0.0790
  150SAPE    C116543   1.442   5.902   6.293  0.2894 -0.4738  0.2588
  150SAPE    HA16544   1.393   5.937   6.200 -0.6346 -0.5845  0.6878
  150SAPE    HB16545   1.389   5.811   6.328  1.3592 -0.4216  2.1306
  150SAPE    C216546   1.410   6.014   6.402  1.4269  0.5571  0.0632
  150SAPE    HS16547   1.449   6.105   6.351  0.0368  0.1333 -1.8519
  150SAPE   O2116548   1.473   5.971   6.527 -0.3303 -0.1263  0.6154
  150SAPE   C2116549   1.530   6.069   6.597 -1.1415  0.8059  0.3837
  150SAPE   O2216550   1.547   6.183   6.559 -0.3644 -0.0665 -0.0064
  150SAPE   C2216551   1.552   6.011   6.740 -0.3336 -0.1963  0.2604
  150SAPE   H2R16552   1.455   6.020   6.793 -0.8297  2.8631 -0.9297
  150SAPE   H2S16553   1.587   5.906   6.741 -1.0661 -0.4904 -1.5427
  150SAPE    C316554   1.256   6.029   6.434  0.2573  0.4363 -0.6999
  150SAPE    HX16555   1.221   5.933   6.478  2.0486 -0.3863 -0.9812
  150SAPE    HY16556   1.214   6.046   6.333  0.1197  1.0379 -0.5413
  150SAPE   O3116557   1.232   6.133   6.534  0.4526 -0.4674  0.3437
  150SAPE   C3116558   1.194   6.247   6.482 -0.0011  0.3168 -0.7951
  150SAPE   O3216559   1.211   6.279   6.364 -0.6519 -0.7540 -0.0657
  150SAPE   C3216560   1.149   6.338   6.599  0.1260  0.5008  0.2583
  150SAPE   H2X16561   1.070   6.281   6.654  0.4088 -1.2134 -1.0172
  150SAPE   H2Y16562   1.097   6.426   6.556  0.0871 -0.4160 -1.6645
  150SAPE   C2316563   1.654   6.106   6.803 -0.2809 -0.2507 -0.2571
  150SAPE   H3R16564   1.605   6.205   6.811  0.1956  0.0235 -0.6481
  150SAPE   H3S16565   1.753   6.117   6.754  0.0584 -0.7910  0.2914
  150SAPE   C2416566   1.690   6.072   6.948 -0.2207  0.0116  0.7469
  150SAPE   H4R16567   1.763   6.139   6.998 -1.3011 -0.3459  2.9050
  150SAPE   H4S16568   1.734   5.970   6.950 -1.0818 -0.4366 -0.9371
  150SAPE   C2516569   1.565   6.067   7.026  0.2763  0.4639 -0.4426
  150SAPE   H5R16570   1.509   5.975   7.001 -0.1572  1.2188 -2.4265
  150SAPE   C2616571   1.516   6.158   7.114 -0.2120  0.6767 -0.2742
  150SAPE   H6R16572   1.422   6.137   7.166  0.1468  2.5570  1.2906
  150SAPE   C2716573   1.600   6.277   7.152 -0.0611 -0.2601  0.0530
  150SAPE   H7R16574   1.622   6.343   7.065  3.0884  0.3321  1.1756
  150SAPE   H7S16575   1.706   6.254   7.176  0.9706 -0.2795 -3.7859
  150SAPE   C2816576   1.535   6.362   7.262  0.5595  0.2049  0.0015
  150SAPE   H8R16577   1.491   6.452   7.217  0.0573 -0.8237 -1.6315
  150SAPE   C2916578   1.540   6.323   7.395  0.8616  0.9537  0.4398
  150SAPE   H9R16579   1.506   6.400   7.466 -2.5797 -0.0455  0.0654
  150SAPE  C21016580   1.608   6.201   7.455 -0.8613  0.0997  0.0284
  150SAPE  H10R16581   1.707   6.188   7.407 -1.0947  0.1864 -0.4849
  150SAPE  H10S16582   1.565   6.106   7.418  1.2129 -1.3991  1.2556
  150SAPE  C21116583   1.609   6.188   7.605 -0.4071 -0.2345  1.0452
  150SAPE  H11R16584   1.698   6.138   7.648  1.0976  0.3852 -1.1829
  150SAPE  C21216585   1.501   6.204   7.682 -0.4632  0.1443 -0.1405
  150SAPE  H12R16586   1.515   6.203   7.791 -1.4011  1.9206  0.0427
  150SAPE  C21316587   1.357   6.240   7.647  0.4649  0.2218 -0.0551
  150SAPE  H13R16588   1.340   6.248   7.538  1.3780  2.6446 -0.0930
  150SAPE  H13S16589   1.331   6.337   7.696 -0.0518 -0.2465  0.6046
  150SAPE  C21416590   1.258   6.139   7.699 -0.4153  0.2163  0.5335
  150SAPE  H14R16591   1.238   6.054   7.632 -1.3235  1.4691 -0.8459
  150SAPE  C21516592   1.202   6.140   7.821 -0.4888  0.8257 -0.5445
  150SAPE  H15R16593   1.134   6.054   7.833 -2.4462  1.7236 -3.9497
  150SAPE  C21616594   1.218   6.232   7.946 -0.1874  0.0237  0.4511
  150SAPE  H16R16595   1.286   6.315   7.917 -2.7031  1.4704 -1.7546
  150SAPE  H16S16596   1.267   6.180   8.031  0.3501  0.7459  0.5938
  150SAPE  C21716597   1.087   6.300   7.998  0.2649 -0.1288  0.2540
  150SAPE  H17R16598   1.046   6.364   7.917  2.4724 -1.6250 -2.2099
  150SAPE  H17S16599   1.130   6.370   8.073  0.5084 -0.6713  0.6270
  150SAPE  C21816600   0.979   6.207   8.061  0.0143  0.5724  0.7405
  150SAPE  H18R16601   1.038   6.136   8.123  0.8940  1.7761  1.3379
  150SAPE  H18S16602   0.943   6.142   7.978  2.1088  0.7807 -0.4056
  150SAPE  C21916603   0.868   6.274   8.140  1.0595  0.0551  0.0012
  150SAPE  H19R16604   0.814   6.195   8.195  0.1859 -0.1188 -1.0697
  150SAPE  H19S16605   0.787   6.323   8.081 -0.4181  0.1677  2.0131
  150SAPE  C22016606   0.921   6.369   8.249 -0.3846 -0.0670 -0.1424
  150SAPE  H20R16607   0.841   6.414   8.312  0.4655  0.1553  0.8110
  150SAPE  H20S16608   0.972   6.459   8.209 -0.6430  0.1889  0.0939
  150SAPE  H20T16609   0.995   6.322   8.318  0.5555  0.4401 -0.7802
  150SAPE   C3316610   1.272   6.375   6.692 -0.1516 -0.3829  0.5374
  150SAPE   H3X16611   1.354   6.406   6.624 -2.0600  2.4098 -0.7014
  150SAPE   H3Y16612   1.322   6.286   6.734  1.4752 -0.3014 -1.1230
  150SAPE   C3416613   1.232   6.489   6.791  0.6143  0.5400  0.4786
  150SAPE   H4X16614   1.145   6.445   6.845  1.0421 -3.4001 -1.6707
  150SAPE   H4Y16615   1.186   6.578   6.743 -0.2374  0.1066  0.4650
  150SAPE   C3516616   1.356   6.519   6.871  0.2824 -0.2235 -0.1504
  150SAPE   H5X16617   1.442   6.532   6.802 -0.5131  0.2615 -1.0786
  150SAPE   H5Y16618   1.378   6.436   6.941  3.7812  1.1610  0.5940
  150SAPE   C3616619   1.340   6.650   6.957 -0.0673  0.0050 -0.5178
  150SAPE   H6X16620   1.252   6.624   7.020  0.4731 -3.3798 -0.9640
  150SAPE   H6Y16621   1.306   6.733   6.892  1.4432  0.9081 -0.2216
  150SAPE   C3716622   1.475   6.694   7.027  0.0949 -0.4249 -0.3303
  150SAPE   H7X16623   1.551   6.708   6.947 -0.6411 -0.1874 -0.9889
  150SAPE   H7Y16624   1.512   6.609   7.089  1.5437 -0.1629 -0.7858
  150SAPE   C3816625   1.465   6.819   7.106  0.0850 -0.9543  0.4096
  150SAPE   H8X16626   1.398   6.814   7.194  0.4442 -0.0430  0.7482
  150SAPE   H8Y16627   1.423   6.902   7.044  0.3350 -1.1481 -0.0258
  150SAPE   C3916628   1.604   6.864   7.163 -0.2470 -0.8247  0.5575
  150SAPE   H9X16629   1.595   6.972   7.187 -0.7265 -0.6599 -0.3051
  150SAPE   H9Y16630   1.672   6.861   7.075 -1.3743 -1.0313 -0.3346
  150SAPE  C31016631   1.659   6.781   7.280 -0.8479 -0.8417  0.3783
  150SAPE  H10X16632   1.756   6.833   7.294 -1.4844  0.3506  0.5330
  150SAPE  H10Y16633   1.654   6.674   7.252 -1.5376 -0.6300 -0.3748
  150SAPE  C31116634   1.591   6.797   7.417  0.0799 -0.2847 -0.2582
  150SAPE  H11X16635   1.485   6.763   7.412  0.5580 -1.7280 -1.4687
  150SAPE  H11Y16636   1.589   6.906   7.439 -0.7527 -0.8236  2.8578
  150SAPE  C31216637   1.655   6.700   7.511 -0.4149 -0.5905 -0.0859
  150SAPE  H12X16638   1.765   6.707   7.523  0.0731 -2.1205 -2.9286
  150SAPE  H12Y16639   1.634   6.605   7.458 -1.2969  1.2211 -3.2393
  150SAPE  C31316640   1.587   6.686   7.653  0.3612 -0.3917 -0.3733
  150SAPE  H13X16641   1.487   6.639   7.637  0.6540 -1.6301  1.1142
  150SAPE  H13Y16642   1.584   6.775   7.718  0.1737 -1.8912  1.7768
  150SAPE  C31416643   1.661   6.578   7.741 -0.1820 -0.5064 -0.1185
  150SAPE  H14X16644   1.770   6.592   7.752 -0.1090  0.0687 -1.4101
  150SAPE  H14Y16645   1.657   6.478   7.693 -0.1383 -0.2172 -0.7284
  150SAPE  C31516646   1.583   6.560   7.881 -0.3875 -0.5748  1.1068
  150SAPE  H15X16647   1.475   6.547   7.859 -0.3449  0.4447  0.2155
  150SAPE  H15Y16648   1.579   6.652   7.943  1.6528  0.4707 -0.1984
  150SAPE  C31616649   1.651   6.451   7.962  0.9692 -0.9448  0.2547
  150SAPE  H16X16650   1.761   6.465   7.958  0.7622  0.9762  0.5259
  150SAPE  H16Y16651   1.628   6.357   7.908 -2.2270 -0.3550  0.3763
  150SAPE  C31716652   1.599   6.435   8.105 -0.1118  1.0175 -0.3052
  150SAPE  H17X16653   1.490   6.454   8.108  0.0182  1.7344  0.9445
  150SAPE  H17Y16654   1.637   6.522   8.163 -0.0716  0.9396 -0.2117
  150SAPE  C31816655   1.651   6.302   8.161  0.8751  0.0733 -0.2340
  150SAPE  H18X16656   1.754   6.279   8.128  1.6347 -0.3908  2.2043
  150SAPE  H18Y16657   1.590   6.223   8.113  1.5792 -1.1887  0.8532
  150SAPE  H18Z16658   1.650   6.291   8.272  0.5006 -2.1429 -0.3972
  151SAPE     N16659   3.902   5.578   6.278  0.2743 -0.8497 -0.1143
  151SAPE   HN116660   3.835   5.517   6.227  1.9605 -3.0061  0.0765
  151SAPE   HN216661   3.845   5.640   6.339  0.0894 -0.0497 -1.0799
  151SAPE   HN316662   3.964   5.630   6.212  0.0730 -0.8770 -0.3255
  151SAPE   C1216663   3.995   5.503   6.366  0.4598 -0.0211 -0.3356
  151SAPE  H12A16664   4.052   5.428   6.307 -0.3839 -1.2684  0.3914
  151SAPE  H12B16665   3.937   5.447   6.442  2.0797 -0.6820  0.4658
  151SAPE   C1116666   4.090   5.599   6.439  0.6878 -1.0364 -0.3179
  151SAPE  H11A16667   4.131   5.543   6.526  1.1891 -3.9354 -2.2599
  151SAPE  H11B16668   4.033   5.685   6.479  0.2686 -1.0119 -0.9526
  151SAPE     P16669   4.203   5.757   6.261  0.6323 -0.2389  0.3427
  151SAPE   O1316670   4.335   5.777   6.193 -0.3102  0.4397 -0.4910
  151SAPE   O1416671   4.080   5.746   6.174  0.2847 -0.2481  0.4401
  151SAPE   O1216672   4.200   5.632   6.352  0.1308  0.2335 -0.5208
  151SAPE   O1116673   4.183   5.872   6.362  0.1197 -0.0958  0.1778
  151SAPE    C116674   4.284   5.923   6.449  0.2585  0.5992 -0.5769
  151SAPE    HA16675   4.388   5.904   6.413  0.6897  0.4826  0.7011
  151SAPE    HB16676   4.276   6.034   6.445  1.5491  0.7085 -0.4942
  151SAPE    C216677   4.267   5.885   6.596  0.4070  0.6493 -0.2426
  151SAPE    HS16678   4.265   5.775   6.605 -1.5998  0.6972  0.4915
  151SAPE   O2116679   4.141   5.944   6.632 -1.0479  0.7640  0.1754
  151SAPE   C2116680   4.066   5.878   6.719  0.5519  0.1172  0.2112
  151SAPE   O2216681   4.068   5.756   6.741 -0.5706  0.9062  0.3840
  151SAPE   C2216682   3.961   5.975   6.770 -0.6129  0.4407 -0.2538
  151SAPE   H2R16683   4.005   6.075   6.788 -1.5812  0.8325  0.0193
  151SAPE   H2S16684   3.892   5.981   6.682  0.3935  1.2421 -1.0055
  151SAPE    C316685   4.378   5.951   6.683 -0.2469  0.3165 -0.0874
  151SAPE    HX16686   4.389   6.058   6.656  3.6960 -0.3879 -2.0633
  151SAPE    HY16687   4.471   5.893   6.662 -0.5180  0.5109 -2.0669
  151SAPE   O3116688   4.334   5.933   6.813  0.1518 -0.2772 -0.0036
  151SAPE   C3116689   4.386   5.837   6.887  0.4296  0.1927 -0.8394
  151SAPE   O3216690   4.456   5.744   6.848 -0.0590  0.1315  0.3947
  151SAPE   C3216691   4.339   5.862   7.035  0.1689 -0.3273 -0.5794
  151SAPE   H2X16692   4.232   5.837   7.052  0.3708  0.0097  1.4974
  151SAPE   H2Y16693   4.361   5.966   7.066  3.5221 -0.6434 -1.5173
  151SAPE   C2316694   3.874   5.917   6.883  0.4035 -0.2094  0.4514
  151SAPE   H3R16695   3.934   5.902   6.975  0.9122  1.1783  0.3684
  151SAPE   H3S16696   3.845   5.813   6.856 -2.0845  0.6300 -0.4785
  151SAPE   C2416697   3.736   5.998   6.897 -0.1015  0.2648  0.5674
  151SAPE   H4R16698   3.665   5.934   6.955 -0.8177  0.7003  0.1768
  151SAPE   H4S16699   3.708   6.018   6.792 -1.2294  1.1585  1.0113
  151SAPE   C2516700   3.770   6.131   6.960 -0.5871  0.6398  1.0918
  151SAPE   H5R16701   3.793   6.216   6.894  0.8344 -0.8899 -0.4849
  151SAPE   C2616702   3.789   6.138   7.094  0.5444 -1.0976 -0.0388
  151SAPE   H6R16703   3.821   6.238   7.128  0.3073 -0.6346 -1.1480
  151SAPE   C2716704   3.781   6.029   7.197  0.6515 -0.5508  0.4203
  151SAPE   H7R16705   3.887   6.003   7.215  1.4312  0.3690 -2.2298
  151SAPE   H7S16706   3.740   5.934   7.159  0.0136 -0.3548  0.6128
  151SAPE   C2816707   3.711   6.061   7.323 -0.3803 -0.3797 -0.3439
  151SAPE   H8R16708   3.601   6.052   7.321 -0.2790 -2.9252  0.7077
  151SAPE   C2916709   3.778   6.086   7.435  0.1869 -0.0354  0.4474
  151SAPE   H9R16710   3.715   6.077   7.524 -1.4849 -2.7141 -0.8783
  151SAPE  C21016711   3.921   6.104   7.461 -0.0185 -0.4295  0.5496
  151SAPE  H10R16712   3.950   6.182   7.387  1.1571  0.6612  2.0871
  151SAPE  H10S16713   3.980   6.010   7.453  3.1652  1.4607  0.3301
  151SAPE  C21116714   3.946   6.154   7.602  0.1322  0.2386 -0.1670
  151SAPE  H11R16715   3.991   6.254   7.608 -0.5459  0.4969  1.1131
  151SAPE  C21216716   3.927   6.085   7.717 -0.3694  0.1961 -0.4511
  151SAPE  H12R16717   3.942   6.138   7.812  0.7698 -0.2145 -0.3885
  151SAPE  C21316718   3.884   5.941   7.728 -0.2096  0.4734 -0.5804
  151SAPE  H13R16719   3.920   5.879   7.642  2.3654  2.7044 -1.2324
  151SAPE  H13S16720   3.774   5.930   7.724 -0.1541 -0.6073  0.4573
  151SAPE  C21416721   3.923   5.882   7.861 -0.4493 -0.1538  0.2542
  151SAPE  H14R16722   4.020   5.833   7.850 -1.0479 -1.0273 -1.4616
  151SAPE  C21516723   3.861   5.900   7.976 -0.5069  0.4955 -0.0733
  151SAPE  H15R16724   3.898   5.856   8.069  0.4246 -1.4156 -1.2788
  151SAPE  C21616725   3.727   5.966   7.982  0.9359 -0.2047  0.2473
  151SAPE  H16R16726   3.645   5.892   7.973  0.6267  0.2956 -1.3832
  151SAPE  H16S16727   3.711   6.032   7.894  1.0302 -1.5701 -0.8263
  151SAPE  C21716728   3.712   6.041   8.113 -0.8303 -0.5982 -0.5485
  151SAPE  H17R16729   3.724   5.972   8.200 -0.2904  0.8982  0.6087
  151SAPE  H17S16730   3.617   6.098   8.121 -0.2605  0.3678 -0.4505
  151SAPE  C21816731   3.817   6.154   8.138  0.6960 -0.5844  0.0976
  151SAPE  H18R16732   3.823   6.228   8.056  0.6724 -1.4244 -0.6857
  151SAPE  H18S16733   3.920   6.113   8.140  1.6416  1.6341 -0.6856
  151SAPE  C21916734   3.798   6.235   8.265  0.0258 -1.1306 -0.1628
  151SAPE  H19R16735   3.704   6.292   8.250  0.4687 -1.1064 -3.3921
  151SAPE  H19S16736   3.876   6.313   8.273 -1.2654  0.2901 -0.7861
  151SAPE  C22016737   3.803   6.141   8.383 -0.6635 -0.1873  0.2582
  151SAPE  H20R16738   3.899   6.089   8.403 -1.4084 -1.1285  1.5939
  151SAPE  H20S16739   3.768   6.201   8.470  0.8925  0.8515  0.2124
  151SAPE  H20T16740   3.725   6.065   8.362 -2.0996  1.6811 -1.5776
  151SAPE   C3316741   4.424   5.773   7.128 -0.0322 -0.0884  0.0311
  151SAPE   H3X16742   4.532   5.801   7.129 -0.0952  0.2663 -1.3225
  151SAPE   H3Y16743   4.429   5.668   7.092 -1.8882  0.0502 -0.7370
  151SAPE   C3416744   4.370   5.775   7.273  0.2218  0.3055 -0.4144
  151SAPE   H4X16745   4.391   5.678   7.323 -0.3576  0.0595 -0.6397
  151SAPE   H4Y16746   4.261   5.798   7.270  0.6492  2.4626 -1.5123
  151SAPE   C3516747   4.448   5.868   7.359  0.2977 -0.4916 -0.1747
  151SAPE   H5X16748   4.464   5.963   7.305  0.1690 -0.0297  0.5888
  151SAPE   H5Y16749   4.545   5.826   7.394 -0.1582  0.4579  2.4486
  151SAPE   C3616750   4.370   5.906   7.497 -0.8175 -0.0149 -0.3965
  151SAPE   H6X16751   4.359   5.815   7.559  2.3515 -1.0581 -1.1479
  151SAPE   H6Y16752   4.270   5.943   7.468  0.1551  1.2779 -2.3681
  151SAPE   C3716753   4.441   6.010   7.584  0.2348  0.6267 -0.3624
  151SAPE   H7X16754   4.463   6.103   7.528  1.6316  1.3796  1.3197
  151SAPE   H7Y16755   4.535   5.957   7.612 -0.3792 -0.5584 -0.4756
  151SAPE   C3816756   4.347   6.040   7.701  0.5837 -0.1975  0.3252
  151SAPE   H8X16757   4.247   6.059   7.657 -0.4343 -0.1579  2.4884
  151SAPE   H8Y16758   4.376   6.142   7.736 -1.6202  0.2528  1.0056
  151SAPE   C3916759   4.354   5.952   7.822  0.4055  0.0739  0.1027
  151SAPE   H9X16760   4.461   5.935   7.847  0.3661 -0.0919  0.1579
  151SAPE   H9Y16761   4.315   5.854   7.787 -0.4190  0.3838  0.1245
  151SAPE  C31016762   4.274   6.005   7.945 -0.0086  0.4586  0.0847
  151SAPE  H10X16763   4.171   6.026   7.909 -0.4199 -0.9935  0.3314
  151SAPE  H10Y16764   4.331   6.095   7.977  2.7104 -1.3929  0.8118
  151SAPE  C31116765   4.273   5.904   8.059  0.6306 -0.1774 -0.2135
  151SAPE  H11X16766   4.378   5.876   8.081  1.4743  0.7031 -2.7822
  151SAPE  H11Y16767   4.217   5.815   8.023 -0.0821  0.1496  0.0831
  151SAPE  C31216768   4.202   5.966   8.188  0.1171 -0.4453 -0.2240
  151SAPE  H12X16769   4.112   5.902   8.204  1.5949 -2.3104  1.0426
  151SAPE  H12Y16770   4.177   6.072   8.163 -0.1630 -0.8727 -1.8976
  151SAPE  C31316771   4.298   5.965   8.309  0.1342 -0.1962  0.6890
  151SAPE  H13X16772   4.395   6.008   8.276 -1.1515 -0.0803 -3.4924
  151SAPE  H13Y16773   4.321   5.859   8.335 -3.3092 -0.8474  1.5727
  151SAPE  C31416774   4.232   6.029   8.432  1.1936 -0.9430 -0.6800
  151SAPE  H14X16775   4.247   5.960   8.518 -2.0116 -1.5662 -0.4838
  151SAPE  H14Y16776   4.126   6.050   8.407  1.0253 -0.7840  0.1346
  151SAPE  C31516777   4.301   6.163   8.464  0.0272 -0.6685 -0.1283
  151SAPE  H15X16778   4.325   6.225   8.374 -1.0705 -0.7773 -0.5181
  151SAPE  H15Y16779   4.403   6.148   8.506 -0.6825  0.3694  2.1289
  151SAPE  C31616780   4.231   6.250   8.567 -0.2721  0.3879  0.1449
  151SAPE  H16X16781   4.140   6.283   8.513  0.4416 -0.0807 -1.3831
  151SAPE  H16Y16782   4.296   6.340   8.566 -2.2643  1.9747 -2.7868
  151SAPE  C31716783   4.210   6.191   8.702  0.4262  0.4608  0.2321
  151SAPE  H17X16784   4.308   6.171   8.752 -0.1366  2.9313  2.6032
  151SAPE  H17Y16785   4.150   6.099   8.686  2.2901 -0.6698 -0.6419
  151SAPE  C31816786   4.145   6.294   8.789 -0.1483  0.1170 -0.0500
  151SAPE  H18X16787   4.215   6.379   8.803  0.1090 -0.3459  1.7090
  151SAPE  H18Y16788   4.134   6.247   8.889  1.1342  0.0507  0.0771
  151SAPE  H18Z16789   4.045   6.326   8.751 -0.2947 -2.0103 -1.6312
  152SAPE     N16790   1.429   6.478   6.131  0.0813 -0.0905  0.1924
  152SAPE   HN116791   1.335   6.493   6.089  0.5971  1.4930 -0.4771
  152SAPE   HN216792   1.421   6.513   6.229  3.7096  0.5383  0.3979
  152SAPE   HN316793   1.491   6.548   6.086 -0.1197  0.3138  0.5247
  152SAPE   C1216794   1.499   6.343   6.120 -0.1018  0.5799  0.5936
  152SAPE  H12A16795   1.528   6.333   6.014 -1.7793  0.4050  0.1121
  152SAPE  H12B16796   1.441   6.255   6.156  0.4999 -0.4701 -0.9344
  152SAPE   C1116797   1.638   6.333   6.198  0.2188  0.1324 -0.3573
  152SAPE  H11A16798   1.691   6.237   6.184  0.7533 -0.0466  2.3859
  152SAPE  H11B16799   1.616   6.336   6.307 -0.0645 -3.1989 -0.2149
  152SAPE     P16800   1.857   6.461   6.219 -0.2965  0.5005  0.4198
  152SAPE   O1316801   1.945   6.344   6.185  0.1220 -0.7082 -0.1367
  152SAPE   O1416802   1.902   6.592   6.177 -0.9328  0.3108  0.5590
  152SAPE   O1216803   1.711   6.444   6.153  0.3805 -0.2001  0.6733
  152SAPE   O1116804   1.830   6.465   6.373  0.1783 -0.0134 -0.2795
  152SAPE    C116805   1.754   6.576   6.426  0.2038 -0.4638  0.2857
  152SAPE    HA16806   1.819   6.654   6.471  0.1041  0.8391 -1.6947
  152SAPE    HB16807   1.696   6.627   6.345  1.5365  0.3077 -0.2162
  152SAPE    C216808   1.650   6.527   6.528  0.3299  0.2297 -0.2815
  152SAPE    HS16809   1.594   6.446   6.476  0.5703 -1.6819  2.2027
  152SAPE   O2116810   1.566   6.641   6.565  0.2986 -0.1938  0.3892
  152SAPE   C2116811   1.449   6.654   6.487 -0.2522 -0.1519 -0.2120
  152SAPE   O2216812   1.419   6.584   6.396 -0.5537  0.3908 -0.3003
  152SAPE   C2216813   1.375   6.773   6.551  0.0893  0.2345 -0.1415
  152SAPE   H2R16814   1.328   6.732   6.644  1.4133 -0.3672  0.2819
  152SAPE   H2S16815   1.450   6.851   6.573 -1.0911  1.0510  1.1662
  152SAPE    C316816   1.711   6.465   6.662  0.0490  0.0017  0.1531
  152SAPE    HX16817   1.772   6.377   6.632  3.1028  2.4870 -1.4318
  152SAPE    HY16818   1.625   6.419   6.716 -0.3797 -1.3760 -1.6035
  152SAPE   O3116819   1.785   6.558   6.742  0.5110 -0.3617 -0.1074
  152SAPE   C3116820   1.845   6.505   6.848 -0.3058  0.3371  0.4932
  152SAPE   O3216821   1.834   6.386   6.869  0.1052  0.1432 -0.3160
  152SAPE   C3216822   1.933   6.612   6.925  0.0921  0.0755  0.9178
  152SAPE   H2X16823   1.919   6.712   6.877  1.3386  0.7267  1.8544
  152SAPE   H2Y16824   2.039   6.585   6.907 -0.4752 -1.8126  0.1725
  152SAPE   C2316825   1.266   6.841   6.464  0.0930  0.2760  0.0998
  152SAPE   H3R16826   1.176   6.776   6.456 -0.6342  0.7668  3.0259
  152SAPE   H3S16827   1.310   6.872   6.367 -0.3418  2.3661  0.5316
  152SAPE   C2416828   1.219   6.978   6.522 -0.6291 -0.3765  1.1769
  152SAPE   H4R16829   1.313   7.033   6.501 -0.7952 -1.2158 -2.3376
  152SAPE   H4S16830   1.195   6.970   6.630 -1.6668  1.6557  1.1378
  152SAPE   C2516831   1.100   7.044   6.455  0.3345 -0.4014  0.4587
  152SAPE   H5R16832   1.016   6.975   6.443 -0.5785  0.8495 -0.6655
  152SAPE   C2616833   1.084   7.170   6.407 -0.3933 -0.2019 -0.5460
  152SAPE   H6R16834   0.984   7.201   6.374 -1.0958 -1.5319  0.2343
  152SAPE   C2716835   1.185   7.279   6.404  0.2254  0.0822  0.4862
  152SAPE   H7R16836   1.273   7.251   6.342  2.0562  2.7166  1.6727
  152SAPE   H7S16837   1.228   7.297   6.505 -1.1852 -0.8120  1.2810
  152SAPE   C2816838   1.126   7.413   6.366  0.2868  0.7824  0.0519
  152SAPE   H8R16839   1.074   7.418   6.270  2.4731 -0.3905 -1.2614
  152SAPE   C2916840   1.124   7.529   6.437  0.4738 -0.1054 -0.6520
  152SAPE   H9R16841   1.069   7.616   6.397 -1.1922 -0.0601  1.4903
  152SAPE  C21016842   1.181   7.557   6.577 -0.0161 -0.0752 -0.5837
  152SAPE  H10R16843   1.278   7.503   6.582  0.8153  1.3292 -0.9146
  152SAPE  H10S16844   1.105   7.516   6.647 -0.1238 -0.9111 -1.1705
  152SAPE  C21116845   1.205   7.705   6.608  0.2211  0.4915  0.9452
  152SAPE  H11R16846   1.189   7.768   6.519 -3.2586  0.4708  1.4091
  152SAPE  C21216847   1.219   7.763   6.723  0.4980 -0.0229 -0.4233
  152SAPE  H12R16848   1.225   7.872   6.736 -2.3589  0.0759  0.7747
  152SAPE  C21316849   1.222   7.697   6.856 -0.2265  0.0724  0.0308
  152SAPE  H13R16850   1.301   7.750   6.913 -0.8923  2.2487 -0.9930
  152SAPE  H13S16851   1.263   7.594   6.847 -0.6524 -0.1024  0.0780
  152SAPE  C21416852   1.092   7.711   6.935 -0.6596  0.2132  1.3560
  152SAPE  H14R16853   1.018   7.640   6.895  0.7989 -0.2169 -0.7893
  152SAPE  C21516854   1.063   7.796   7.040  0.0276  0.0710 -0.2403
  152SAPE  H15R16855   0.959   7.805   7.075 -0.1078  3.3794 -1.1554
  152SAPE  C21616856   1.150   7.899   7.104  0.4172  0.5577  0.1667
  152SAPE  H16R16857   1.090   7.992   7.101 -0.9253 -0.2136  1.4251
  152SAPE  H16S16858   1.240   7.918   7.041  1.1313 -3.4320 -0.3162
  152SAPE  C21716859   1.194   7.870   7.250  0.5787  0.2782  0.5447
  152SAPE  H17R16860   1.110   7.837   7.315 -0.1541  1.8232  0.4322
  152SAPE  H17S16861   1.232   7.968   7.287  0.4442  0.0343  1.3419
  152SAPE  C21816862   1.310   7.769   7.266 -0.4153  0.2470  0.0956
  152SAPE  H18R16863   1.278   7.679   7.209 -0.2496  1.1080 -1.4020
  152SAPE  H18S16864   1.332   7.749   7.373  4.4891 -3.9161 -1.2846
  152SAPE  C21916865   1.439   7.819   7.207  0.6197 -0.9754  0.5292
  152SAPE  H19R16866   1.458   7.916   7.259 -1.6237 -1.5314  2.5815
  152SAPE  H19S16867   1.427   7.838   7.098 -0.5671  0.0900  0.8202
  152SAPE  C22016868   1.560   7.730   7.209  0.0415 -0.3075 -0.1484
  152SAPE  H20R16869   1.658   7.778   7.193 -0.4820  0.2252 -2.0543
  152SAPE  H20S16870   1.553   7.649   7.133  0.2891  0.0423 -0.5464
  152SAPE  H20T16871   1.571   7.686   7.310 -1.4829 -2.6068 -0.8849
  152SAPE   C3316872   1.909   6.619   7.078  0.0218 -0.8035  0.6882
  152SAPE   H3X16873   1.802   6.599   7.098 -0.3248 -0.0714 -0.3120
  152SAPE   H3Y16874   1.926   6.722   7.116  0.1258 -0.0214 -1.3436
  152SAPE   C3416875   1.987   6.519   7.165 -0.5419 -0.9029 -0.2324
  152SAPE   H4X16876   2.076   6.581   7.189  0.7196 -2.2406 -1.3028
  152SAPE   H4Y16877   2.018   6.430   7.107 -2.9041 -1.1378 -1.2345
  152SAPE   C3516878   1.927   6.491   7.296  0.5780 -0.1396  0.7550
  152SAPE   H5X16879   1.851   6.413   7.277 -0.5000  0.6960  1.5029
  152SAPE   H5Y16880   1.882   6.583   7.339  1.9589  1.5088 -1.1344
  152SAPE   C3616881   2.030   6.447   7.399  0.5642 -0.3812 -0.3842
  152SAPE   H6X16882   2.099   6.531   7.417 -2.0818  1.9714 -0.4856
  152SAPE   H6Y16883   2.083   6.364   7.348 -0.5092 -1.0108 -0.5199
  152SAPE   C3716884   1.953   6.408   7.519 -0.0374  0.1497 -0.4902
  152SAPE   H7X16885   1.884   6.324   7.500  0.0912 -0.4722  1.5157
  152SAPE   H7Y16886   1.891   6.495   7.549  0.9048 -0.5375  4.2680
  152SAPE   C3816887   2.036   6.364   7.638  0.9942  0.5460 -0.4172
  152SAPE   H8X16888   2.113   6.438   7.666  0.3616  1.3101 -0.6453
  152SAPE   H8Y16889   2.088   6.271   7.608  0.1355  0.2765 -1.1453
  152SAPE   C3916890   1.942   6.344   7.766 -0.6835  0.2207  0.4272
  152SAPE   H9X16891   1.844   6.300   7.736 -0.3464 -1.9862  2.2748
  152SAPE   H9Y16892   1.933   6.448   7.804 -0.5051  0.2608  0.3597
  152SAPE  C31016893   2.016   6.259   7.876 -0.0448 -1.2320 -0.6565
  152SAPE  H10X16894   1.958   6.266   7.970 -1.0104  3.9411 -1.2931
  152SAPE  H10Y16895   2.105   6.318   7.906 -0.3579 -0.5131 -1.0894
  152SAPE  C31116896   2.065   6.124   7.832  0.2681 -0.6732 -0.0004
  152SAPE  H11X16897   2.131   6.126   7.742 -0.3450  1.2658 -0.4603
  152SAPE  H11Y16898   1.966   6.083   7.804  0.5382 -1.2632 -0.1032
  152SAPE  C31216899   2.123   6.054   7.957 -0.0334  0.0924  0.8093
  152SAPE  H12X16900   2.053   6.080   8.039  1.0234  2.1447  1.1128
  152SAPE  H12Y16901   2.223   6.096   7.982  1.6674 -3.8485  1.3615
  152SAPE  C31316902   2.148   5.909   7.932  0.8276 -0.0132 -0.3591
  152SAPE  H13X16903   2.224   5.906   7.851 -1.3414 -2.8123 -2.4851
  152SAPE  H13Y16904   2.057   5.860   7.892  0.4397 -0.1515  0.6657
  152SAPE  C31416905   2.206   5.844   8.061  0.0573  0.0952  0.0640
  152SAPE  H14X16906   2.305   5.887   8.087 -0.6390  1.1508  1.0335
  152SAPE  H14Y16907   2.225   5.740   8.027 -1.3619 -0.4609  0.8954
  152SAPE  C31516908   2.106   5.845   8.176 -0.1689  0.2718  0.1517
  152SAPE  H15X16909   2.013   5.799   8.137 -1.1179  0.1304  2.4855
  152SAPE  H15Y16910   2.080   5.946   8.214 -0.0159 -0.2495  1.6912
  152SAPE  C31616911   2.153   5.763   8.296 -0.2814 -0.3727 -0.4889
  152SAPE  H16X16912   2.174   5.658   8.264 -1.6225 -0.8477  0.1258
  152SAPE  H16Y16913   2.071   5.756   8.371 -1.4707  0.0432 -1.6995
  152SAPE  C31716914   2.277   5.829   8.362 -0.3058 -0.3909 -1.1177
  152SAPE  H17X16915   2.247   5.932   8.390  1.6616 -0.4582  1.7661
  152SAPE  H17Y16916   2.357   5.838   8.286 -0.2442 -1.5766 -1.2150
  152SAPE  C31816917   2.326   5.757   8.489  0.0263 -0.3573  0.2756
  152SAPE  H18X16918   2.407   5.686   8.460  1.0340  0.4165  1.0702
  152SAPE  H18Y16919   2.245   5.701   8.542 -0.2344  0.9192  1.2706
  152SAPE  H18Z16920   2.361   5.825   8.569 -0.9235  0.1474  0.2703
  153SAPE     N16921   6.447   2.891   6.221 -0.3444 -0.1474 -0.0478
  153SAPE   HN116922   6.387   2.976   6.221  0.1870  0.2500 -1.2633
  153SAPE   HN216923   6.381   2.817   6.190  0.3873 -0.9508  0.2559
  153SAPE   HN316924   6.471   2.867   6.319 -1.3610 -0.1560  0.2110
  153SAPE   C1216925   6.573   2.901   6.133  0.3837 -0.9193  0.0360
  153SAPE  H12A16926   6.536   2.908   6.029  0.0478 -0.2061  0.1956
  153SAPE  H12B16927   6.640   2.813   6.142  2.0707 -0.0763 -3.1499
  153SAPE   C1116928   6.644   3.039   6.174 -0.4895  0.3475  0.2934
  153SAPE  H11A16929   6.728   3.046   6.102  0.3359  3.5502  1.3698
  153SAPE  H11B16930   6.677   3.023   6.279  2.8038 -1.0682 -0.8291
  153SAPE     P16931   6.557   3.277   6.240  0.1514  0.0849  0.6578
  153SAPE   O1316932   6.654   3.371   6.180 -0.0070 -0.3034 -0.5796
  153SAPE   O1416933   6.423   3.327   6.255  0.8429  0.3844  0.3968
  153SAPE   O1216934   6.551   3.148   6.152 -0.2156 -0.1017  0.0970
  153SAPE   O1116935   6.610   3.234   6.384  0.2787  0.1875 -0.2517
  153SAPE    C116936   6.513   3.180   6.479  0.0731 -0.3113  0.2299
  153SAPE    HA16937   6.428   3.248   6.504  0.6424  0.5259 -0.0804
  153SAPE    HB16938   6.478   3.082   6.440  1.2984  0.3248 -2.6825
  153SAPE    C216939   6.570   3.153   6.618  0.2205  0.1866 -0.5258
  153SAPE    HS16940   6.504   3.080   6.670  1.0584 -1.4681 -1.7048
  153SAPE   O2116941   6.578   3.272   6.704  0.2399 -0.2955  0.0170
  153SAPE   C2116942   6.484   3.277   6.789 -0.2230 -0.2574 -0.5785
  153SAPE   O2216943   6.398   3.191   6.812 -0.0029  0.2676 -0.0267
  153SAPE   C2216944   6.492   3.413   6.865  0.5619 -0.4387  0.3314
  153SAPE   H2R16945   6.591   3.427   6.912  1.0061  0.8829 -0.9311
  153SAPE   H2S16946   6.506   3.489   6.785  3.1748 -0.4038  0.7281
  153SAPE    C316947   6.705   3.085   6.613 -0.6277  1.2843  0.0988
  153SAPE    HX16948   6.789   3.150   6.582  0.0662  1.2080  1.7260
  153SAPE    HY16949   6.691   3.008   6.533  2.6175  0.8101 -0.1477
  153SAPE   O3116950   6.747   3.014   6.731  0.1813 -0.5271 -0.2462
  153SAPE   C3116951   6.676   2.898   6.761  0.9572 -0.5077  0.2536
  153SAPE   O3216952   6.584   2.852   6.693 -0.5595  0.3515  0.1543
  153SAPE   C3216953   6.751   2.842   6.878  0.0118 -0.2351 -0.7044
  153SAPE   H2X16954   6.821   2.920   6.915  0.7111 -0.5288 -1.3614
  153SAPE   H2Y16955   6.812   2.760   6.835 -0.4789  0.3675 -2.6568
  153SAPE   C2316956   6.366   3.439   6.955 -1.1966 -0.1728 -0.0033
  153SAPE   H3R16957   6.272   3.437   6.895 -0.4876  1.1553 -1.2015
  153SAPE   H3S16958   6.373   3.549   6.971 -1.8538  0.3525 -2.7372
  153SAPE   C2416959   6.373   3.366   7.087 -0.2332  0.2872  0.7406
  153SAPE   H4R16960   6.474   3.391   7.126  0.5908 -2.3831  0.5411
  153SAPE   H4S16961   6.371   3.255   7.082  0.1976  0.3426 -1.1109
  153SAPE   C2516962   6.261   3.415   7.172 -0.4827 -0.6419 -0.2767
  153SAPE   H5R16963   6.179   3.452   7.108 -0.3021 -0.4772 -0.4158
  153SAPE   C2616964   6.247   3.439   7.301  0.1289 -0.2717  0.6739
  153SAPE   H6R16965   6.157   3.498   7.323  0.5839 -0.6075  4.0280
  153SAPE   C2716966   6.356   3.429   7.411 -0.1815  0.7817 -0.2581
  153SAPE   H7R16967   6.431   3.354   7.379 -1.4831 -0.4822 -0.4923
  153SAPE   H7S16968   6.308   3.384   7.501 -0.6631  0.0412 -0.8714
  153SAPE   C2816969   6.430   3.557   7.434  1.0551  0.1167 -0.2122
  153SAPE   H8R16970   6.428   3.632   7.354 -0.9802  0.2815 -0.0610
  153SAPE   C2916971   6.494   3.583   7.545  0.1718  0.0760  0.2496
  153SAPE   H9R16972   6.528   3.686   7.564 -0.7382  0.3162  0.6441
  153SAPE  C21016973   6.503   3.492   7.664 -0.2117 -0.0793 -0.9947
  153SAPE  H10R16974   6.608   3.458   7.653 -0.1516  0.3941 -1.9905
  153SAPE  H10S16975   6.438   3.402   7.650 -0.7714  0.3168 -0.9867
  153SAPE  C21116976   6.463   3.562   7.800 -0.2767  0.6720  0.1092
  153SAPE  H11R16977   6.357   3.547   7.827 -0.4030  0.2277 -0.6079
  153SAPE  C21216978   6.544   3.635   7.877 -0.3652  0.5462  0.0469
  153SAPE  H12R16979   6.498   3.687   7.962  2.6831  3.4064  0.1378
  153SAPE  C21316980   6.693   3.663   7.846 -0.4411  0.3013  0.5943
  153SAPE  H13R16981   6.724   3.647   7.740  1.0659  0.9269  0.9161
  153SAPE  H13S16982   6.753   3.588   7.900  0.9909  0.1027 -1.1958
  153SAPE  C21416983   6.721   3.803   7.879 -0.4027  0.5937  0.6856
  153SAPE  H14R16984   6.692   3.877   7.803 -0.1711  0.3647  0.3716
  153SAPE  C21516985   6.802   3.849   7.976 -0.3767 -0.0460  0.2479
  153SAPE  H15R16986   6.799   3.958   7.984  2.7406  0.3134 -1.7856
  153SAPE  C21616987   6.893   3.777   8.078 -0.6403  0.0379 -0.1112
  153SAPE  H16R16988   7.000   3.762   8.049 -0.7238  0.9315 -0.9370
  153SAPE  H16S16989   6.854   3.675   8.099  2.2538 -1.2483 -0.4808
  153SAPE  C21716990   6.876   3.858   8.208  0.5270 -0.0594  0.1309
  153SAPE  H17R16991   6.910   3.962   8.189 -2.0476  0.6049 -1.3714
  153SAPE  H17S16992   6.938   3.817   8.291 -1.0698  2.3970  2.7304
  153SAPE  C21816993   6.735   3.857   8.273  0.3485  0.1023 -0.5768
  153SAPE  H18R16994   6.716   3.757   8.317 -0.6462  0.4766 -0.1232
  153SAPE  H18S16995   6.655   3.859   8.195  0.0230 -0.1277 -0.2516
  153SAPE  C21916996   6.716   3.963   8.375 -0.2242 -0.0393  0.0468
  153SAPE  H19R16997   6.699   4.054   8.313  1.0736  0.6365  0.6351
  153SAPE  H19S16998   6.809   3.978   8.434 -0.1231 -0.2215 -0.0672
  153SAPE  C22016999   6.599   3.942   8.474 -0.0341  0.8066  0.5090
  153SAPE  H20R17000   6.514   3.931   8.403  0.8896 -1.6475 -0.3446
  153SAPE  H20S17001   6.580   4.028   8.541  0.6819  1.5608 -0.2219
  153SAPE  H20T17002   6.614   3.851   8.536  2.5550  1.3889  0.8617
  153SAPE   C3317003   6.661   2.801   7.002  0.6328 -0.7030 -0.0005
  153SAPE   H3X17004   6.596   2.720   6.961 -0.2145 -1.5881  2.8337
  153SAPE   H3Y17005   6.593   2.882   7.037  0.5739 -0.4635 -0.6591
  153SAPE   C3417006   6.750   2.739   7.111  0.7204 -0.2216 -1.1581
  153SAPE   H4X17007   6.820   2.819   7.143 -2.6242  2.5479 -0.0917
  153SAPE   H4Y17008   6.799   2.644   7.082 -0.5588 -1.9952  2.0710
  153SAPE   C3517009   6.666   2.705   7.231  0.2028  0.4486 -0.3315
  153SAPE   H5X17010   6.566   2.665   7.204  0.9004 -0.7113 -1.2956
  153SAPE   H5Y17011   6.632   2.799   7.279 -0.3587 -0.1754  0.5303
  153SAPE   C3617012   6.732   2.609   7.329  0.6462 -0.1859 -0.2932
  153SAPE   H6X17013   6.833   2.651   7.347  1.0170 -0.5431 -1.4677
  153SAPE   H6Y17014   6.756   2.513   7.279  0.0870  0.8912 -2.7830
  153SAPE   C3717015   6.660   2.592   7.462 -0.1578  0.2459 -1.0140
  153SAPE   H7X17016   6.593   2.504   7.450  1.3646 -1.1853  0.4082
  153SAPE   H7Y17017   6.592   2.674   7.493  1.2079  0.9705  0.1549
  153SAPE   C3817018   6.746   2.554   7.585 -0.7367  0.1761 -0.0127
  153SAPE   H8X17019   6.826   2.628   7.606 -1.2807  0.3688  1.4361
  153SAPE   H8Y17020   6.806   2.461   7.572 -2.6782 -1.2577  0.7977
  153SAPE   C3917021   6.660   2.538   7.712 -0.4357  0.0432  0.6346
  153SAPE   H9X17022   6.584   2.458   7.696  0.2675 -0.3965 -0.6498
  153SAPE   H9Y17023   6.605   2.634   7.719 -1.6363 -0.3586 -2.1740
  153SAPE  C31017024   6.743   2.504   7.844 -0.1024 -0.4526  0.3937
  153SAPE  H10X17025   6.837   2.562   7.846  0.3806 -1.2249  2.4498
  153SAPE  H10Y17026   6.769   2.396   7.846 -0.9337 -0.6467  2.0691
  153SAPE  C31117027   6.668   2.527   7.978 -0.5359  0.7013 -0.0863
  153SAPE  H11X17028   6.579   2.461   7.969 -0.3553  0.4460  0.0101
  153SAPE  H11Y17029   6.643   2.633   7.998  1.3858  1.7814 -2.7790
  153SAPE  C31217030   6.760   2.471   8.088 -0.2949 -0.3659 -0.5791
  153SAPE  H12X17031   6.835   2.551   8.104 -0.1049 -0.2915 -1.7587
  153SAPE  H12Y17032   6.817   2.384   8.049  0.1708 -0.4492  0.2653
  153SAPE  C31317033   6.693   2.458   8.231 -0.7691 -0.2850  0.1354
  153SAPE  H13X17034   6.615   2.380   8.218 -0.8170 -0.4431  1.3116
  153SAPE  H13Y17035   6.632   2.544   8.266 -2.1756 -1.2967  0.2370
  153SAPE  C31417036   6.791   2.423   8.353  0.3185  0.4175 -0.2311
  153SAPE  H14X17037   6.817   2.315   8.344  0.6541  0.6040 -1.9347
  153SAPE  H14Y17038   6.724   2.434   8.441 -1.3569 -1.5182 -1.1669
  153SAPE  C31517039   6.903   2.524   8.374  0.8708  0.2883  0.4041
  153SAPE  H15X17040   6.857   2.624   8.374 -0.7052 -0.4046  1.0408
  153SAPE  H15Y17041   6.980   2.513   8.294  1.6059 -1.6140  1.2956
  153SAPE  C31617042   6.971   2.496   8.511 -0.5183 -0.0068  0.0381
  153SAPE  H16X17043   6.991   2.389   8.534 -0.5942 -0.0857 -0.2606
  153SAPE  H16Y17044   6.909   2.548   8.588 -1.7726  0.2426 -1.1018
  153SAPE  C31717045   7.111   2.557   8.519 -0.1259  0.5160  0.2567
  153SAPE  H17X17046   7.097   2.667   8.511 -2.6592  0.1375 -2.0355
  153SAPE  H17Y17047   7.170   2.527   8.429  0.0416 -1.3763  0.9531
  153SAPE  C31817048   7.186   2.507   8.641  0.0668 -0.3465  0.1849
  153SAPE  H18X17049   7.192   2.396   8.638  1.1869 -0.2754 -1.1399
  153SAPE  H18Y17050   7.141   2.556   8.731 -2.5520 -0.8555 -0.7651
  153SAPE  H18Z17051   7.295   2.526   8.637 -0.1819  0.9419 -2.0611
  154SAPE     N17052   3.081   0.739   6.093  0.0313  0.3331 -0.0342
  154SAPE   HN117053   3.025   0.654   6.112 -1.3641  1.1009 -0.5807
  154SAPE   HN217054   3.016   0.810   6.055  0.6059 -0.0987 -1.9457
  154SAPE   HN317055   3.149   0.724   6.015  0.6288 -0.0805  0.5607
  154SAPE   C1217056   3.159   0.793   6.210  0.4610  0.2492  0.3457
  154SAPE  H12A17057   3.090   0.808   6.296 -0.4525 -0.8794 -0.1651
  154SAPE  H12B17058   3.202   0.894   6.188  1.1312 -0.1450 -0.1849
  154SAPE   C1117059   3.266   0.698   6.247 -0.0891 -0.9713 -0.2175
  154SAPE  H11A17060   3.229   0.602   6.289  0.7367 -1.3454 -0.3206
  154SAPE  H11B17061   3.339   0.724   6.327 -0.7419 -0.9853  0.3897
  154SAPE     P17062   3.402   0.524   6.099 -0.2873 -0.3091  0.0762
  154SAPE   O1317063   3.295   0.431   6.070  0.4283  0.4189 -0.3594
  154SAPE   O1417064   3.505   0.532   5.987 -0.1288  0.4368  0.3569
  154SAPE   O1217065   3.357   0.673   6.140 -0.3867 -0.3401  0.1440
  154SAPE   O1117066   3.478   0.490   6.233 -0.0728  0.4896  0.0499
  154SAPE    C117067   3.588   0.563   6.276 -0.1654  0.0570  0.4317
  154SAPE    HA17068   3.675   0.535   6.213 -0.3167 -0.4043  0.4203
  154SAPE    HB17069   3.577   0.673   6.269 -1.2724 -0.0382  0.5329
  154SAPE    C217070   3.620   0.518   6.422  0.1907  0.0731  0.6952
  154SAPE    HS17071   3.616   0.407   6.425  0.0398  0.0195 -0.5633
  154SAPE   O2117072   3.522   0.579   6.503  0.2648  0.0650 -0.2146
  154SAPE   C2117073   3.428   0.497   6.551 -0.6209 -0.8267  0.1423
  154SAPE   O2217074   3.408   0.379   6.516  0.0896  0.4221 -0.3154
  154SAPE   C2217075   3.353   0.574   6.658  0.0311  0.1130  0.4526
  154SAPE   H2R17076   3.423   0.600   6.740 -2.0841 -1.3438  2.8870
  154SAPE   H2S17077   3.310   0.668   6.616 -0.2392 -0.0073  0.4566
  154SAPE    C317078   3.759   0.565   6.474  0.0473 -0.2920 -0.2205
  154SAPE    HX17079   3.767   0.670   6.437  0.5493 -0.1193  0.3681
  154SAPE    HY17080   3.836   0.496   6.435 -2.6921 -2.4797 -2.2233
  154SAPE   O3117081   3.779   0.575   6.620  0.6159 -0.4920  0.2932
  154SAPE   C3117082   3.774   0.461   6.688 -1.2831  0.4230  0.4622
  154SAPE   O3217083   3.761   0.351   6.643  0.0337  0.0330  0.2284
  154SAPE   C3217084   3.799   0.496   6.835  0.3803  0.1874  0.1291
  154SAPE   H2X17085   3.788   0.400   6.888 -1.3919 -0.4730 -1.3567
  154SAPE   H2Y17086   3.715   0.561   6.869  0.6820  0.8864 -0.4337
  154SAPE   C2317087   3.238   0.483   6.714 -0.0181  0.1283 -0.1986
  154SAPE   H3R17088   3.284   0.394   6.763 -0.0481 -0.2010 -0.7524
  154SAPE   H3S17089   3.175   0.447   6.630  0.5907  0.6412 -0.8878
  154SAPE   C2417090   3.144   0.553   6.813  0.4018  0.2690  0.0234
  154SAPE   H4R17091   3.094   0.631   6.752  2.1880  1.3651 -0.1316
  154SAPE   H4S17092   3.222   0.598   6.878 -0.7229  0.7873  1.0550
  154SAPE   C2517093   3.054   0.467   6.893  0.0503  0.1314 -0.0601
  154SAPE   H5R17094   2.988   0.397   6.840 -0.1784  0.4893 -0.2614
  154SAPE   C2617095   3.024   0.466   7.026  0.5489 -0.5021  0.2756
  154SAPE   H6R17096   2.970   0.378   7.064  0.1859 -0.3075  0.2121
  154SAPE   C2717097   3.076   0.556   7.135  0.6947 -0.8730 -0.7499
  154SAPE   H7R17098   3.106   0.658   7.101 -1.2464  0.9292  2.4231
  154SAPE   H7S17099   3.165   0.511   7.184  0.3619 -0.1067  0.6054
  154SAPE   C2817100   2.973   0.580   7.233 -0.5408  0.7940 -0.4432
  154SAPE   H8R17101   2.878   0.612   7.190 -1.2116 -3.2665 -2.4809
  154SAPE   C2917102   2.981   0.559   7.368  0.4179  0.0106 -0.9923
  154SAPE   H9R17103   2.885   0.573   7.421  0.9463 -1.4750  0.4545
  154SAPE  C21017104   3.092   0.501   7.454  0.4285  0.3769 -0.3511
  154SAPE  H10R17105   3.159   0.582   7.490 -1.1424  0.6862  2.1451
  154SAPE  H10S17106   3.150   0.430   7.391  3.2760  2.0959  0.1406
  154SAPE  C21117107   3.027   0.421   7.569 -0.5287  0.2390  0.2488
  154SAPE  H11R17108   2.946   0.351   7.540  2.8793 -3.5451 -1.1449
  154SAPE  C21217109   3.052   0.419   7.696  0.5747  0.5258  0.3546
  154SAPE  H12R17110   2.992   0.362   7.768  1.3159  0.2320  0.7548
  154SAPE  C21317111   3.160   0.493   7.776 -0.6719  0.5578 -0.1443
  154SAPE  H13R17112   3.240   0.520   7.704 -1.0156  0.6861 -0.4837
  154SAPE  H13S17113   3.201   0.428   7.856  0.3363  1.1509 -0.1657
  154SAPE  C21417114   3.089   0.612   7.819  0.8206 -0.2160 -0.8700
  154SAPE  H14R17115   3.009   0.652   7.755  0.2971 -2.1298 -1.4504
  154SAPE  C21517116   3.120   0.676   7.933 -0.0656  0.3786  0.7444
  154SAPE  H15R17117   3.071   0.770   7.963  1.5605  1.2745  0.6952
  154SAPE  C21617118   3.223   0.625   8.027 -0.5342  0.1303 -0.4691
  154SAPE  H16R17119   3.319   0.677   8.006 -0.4594  0.3200  0.3213
  154SAPE  H16S17120   3.239   0.516   8.010 -0.3970  0.1123 -0.2291
  154SAPE  C21717121   3.185   0.651   8.163 -0.2361  0.3027  0.1948
  154SAPE  H17R17122   3.097   0.588   8.189  0.3601 -1.3641 -1.6449
  154SAPE  H17S17123   3.151   0.756   8.176 -0.1674  0.3288  0.1634
  154SAPE  C21817124   3.298   0.617   8.270  0.8337  0.1322  0.2002
  154SAPE  H18R17125   3.383   0.689   8.263  1.6224 -0.6351  1.5800
  154SAPE  H18S17126   3.334   0.515   8.245  1.3962  0.4258 -0.2097
  154SAPE  C21917127   3.249   0.625   8.411  0.3037  0.1775  0.4096
  154SAPE  H19R17128   3.216   0.730   8.426  0.1381  0.8544 -3.5377
  154SAPE  H19S17129   3.334   0.600   8.478 -0.2231 -1.7021  0.4094
  154SAPE  C22017130   3.128   0.538   8.437  0.2506  0.0781 -0.1877
  154SAPE  H20R17131   3.118   0.531   8.547  1.8003 -1.2182 -0.0818
  154SAPE  H20S17132   3.158   0.436   8.403 -0.2943  0.3907 -1.6484
  154SAPE  H20T17133   3.027   0.567   8.403 -0.4307 -1.4735  0.4035
  154SAPE   C3317134   3.938   0.553   6.877 -0.2044  0.2531  0.2065
  154SAPE   H3X17135   3.933   0.664   6.883  1.5430  0.2792  2.0091
  154SAPE   H3Y17136   4.019   0.519   6.809 -0.0757  0.7609  0.1018
  154SAPE   C3417137   3.968   0.511   7.024  0.5758 -0.5867  0.1610
  154SAPE   H4X17138   4.068   0.548   7.057  0.9313 -2.5287  1.3840
  154SAPE   H4Y17139   3.963   0.401   7.035  2.5790 -0.8192 -0.7959
  154SAPE   C3517140   3.858   0.555   7.119 -0.5419  0.5293 -1.2524
  154SAPE   H5X17141   3.762   0.503   7.095 -0.8312  0.8986 -0.9192
  154SAPE   H5Y17142   3.845   0.663   7.100 -0.8760  0.6408 -0.4445
  154SAPE   C3617143   3.885   0.540   7.270  0.3774 -0.3410  0.3349
  154SAPE   H6X17144   3.913   0.438   7.304 -2.4911 -0.5925  2.2888
  154SAPE   H6Y17145   3.796   0.553   7.334 -1.1188 -1.9264 -1.3167
  154SAPE   C3717146   3.995   0.633   7.305 -0.0239  0.5451 -0.4114
  154SAPE   H7X17147   3.984   0.734   7.259 -1.5970  1.1532  1.1554
  154SAPE   H7Y17148   4.092   0.581   7.292 -0.2161  0.2028 -0.4899
  154SAPE   C3817149   3.983   0.690   7.449 -0.3366  0.1086  1.2011
  154SAPE   H8X17150   3.981   0.596   7.510  1.8284  0.3735  1.7640
  154SAPE   H8Y17151   3.886   0.742   7.456 -0.2182  0.4957  0.0219
  154SAPE   C3917152   4.094   0.779   7.487 -0.1171 -0.5474  0.1065
  154SAPE   H9X17153   4.055   0.851   7.563  0.8656 -1.2372  1.3053
  154SAPE   H9Y17154   4.119   0.838   7.397 -1.7032 -1.1870 -0.7956
  154SAPE  C31017155   4.213   0.704   7.546  0.1111  0.3673 -0.0118
  154SAPE  H10X17156   4.303   0.769   7.539 -0.7356  1.5406 -0.5294
  154SAPE  H10Y17157   4.233   0.614   7.485  0.9661 -0.5912  1.6245
  154SAPE  C31117158   4.174   0.667   7.699 -0.1834  0.1530 -0.3503
  154SAPE  H11X17159   4.073   0.620   7.698 -1.1156  2.0132 -0.2068
  154SAPE  H11Y17160   4.165   0.760   7.760 -1.7820 -0.1355 -0.1095
  154SAPE  C31217161   4.272   0.573   7.767 -0.0929 -0.4083 -0.1066
  154SAPE  H12X17162   4.365   0.629   7.789 -0.2202  1.2117 -3.1713
  154SAPE  H12Y17163   4.307   0.489   7.702  1.1609  1.8269 -2.4790
  154SAPE  C31317164   4.214   0.507   7.890  0.5614  0.2897  0.0660
  154SAPE  H13X17165   4.126   0.561   7.931  0.5511  0.3074  0.0205
  154SAPE  H13Y17166   4.290   0.495   7.970 -2.0637 -0.6153  2.6109
  154SAPE  C31417167   4.161   0.360   7.873  0.2418  1.0555 -0.4492
  154SAPE  H14X17168   4.251   0.299   7.848  0.8609  0.7818  2.1270
  154SAPE  H14Y17169   4.082   0.349   7.797 -1.8494  3.6556  1.1463
  154SAPE  C31517170   4.112   0.305   8.008  0.6030  0.1494 -0.7655
  154SAPE  H15X17171   4.194   0.293   8.082 -0.2290 -1.7718 -0.1161
  154SAPE  H15Y17172   4.080   0.200   7.992 -2.2834  0.6805  0.9130
  154SAPE  C31617173   3.983   0.359   8.071 -0.9298  0.0097  0.0677
  154SAPE  H16X17174   3.891   0.329   8.016 -0.7548  0.5576 -0.5294
  154SAPE  H16Y17175   3.993   0.470   8.072  1.3484 -0.0926 -1.7770
  154SAPE  C31717176   3.966   0.314   8.216 -0.3189 -0.0109 -0.9824
  154SAPE  H17X17177   4.049   0.361   8.274 -0.5653 -0.8068  0.0438
  154SAPE  H17Y17178   3.972   0.205   8.233  1.5415  0.1999 -0.0558
  154SAPE  C31817179   3.836   0.374   8.264  0.4586  0.7169 -0.0190
  154SAPE  H18X17180   3.838   0.485   8.261  0.6231  0.7593  1.0840
  154SAPE  H18Y17181   3.819   0.347   8.371 -2.2836  1.2915 -0.2348
  154SAPE  H18Z17182   3.755   0.339   8.197  2.4138 -0.5171 -1.8693
  155SAPE     N17183   6.163   0.661   6.178  0.5528  0.4153 -0.4594
  155SAPE   HN117184   6.266   0.658   6.172  1.1100  1.0975  4.6196
  155SAPE   HN217185   6.125   0.566   6.162 -0.8297  0.6825  0.9641
  155SAPE   HN317186   6.123   0.724   6.106 -0.7087 -0.0054 -0.1629
  155SAPE   C1217187   6.152   0.719   6.317 -0.1629 -0.4706 -0.4591
  155SAPE  H12A17188   6.226   0.669   6.384 -0.0928 -0.6840 -0.6933
  155SAPE  H12B17189   6.058   0.691   6.368  0.8996 -0.3394  1.6677
  155SAPE   C1117190   6.174   0.872   6.313  0.9883  0.4555  0.0590
  155SAPE  H11A17191   6.274   0.892   6.269 -0.3036 -1.0692 -4.0969
  155SAPE  H11B17192   6.179   0.898   6.421 -0.6980 -0.8422  0.5066
  155SAPE     P17193   6.047   1.101   6.255 -0.3208  0.3654  0.4175
  155SAPE   O1317194   6.130   1.160   6.142  0.6309 -0.0251  0.3850
  155SAPE   O1417195   5.903   1.126   6.267 -0.2132 -0.8145  0.5008
  155SAPE   O1217196   6.071   0.945   6.247  0.0063  0.2269 -0.2741
  155SAPE   O1117197   6.116   1.134   6.391  0.1100 -0.1046 -0.0238
  155SAPE    C117198   6.055   1.099   6.520  0.6726  0.1736 -0.3479
  155SAPE    HA17199   6.016   0.996   6.529 -1.8722  0.8666 -2.2302
  155SAPE    HB17200   6.139   1.102   6.592  0.8613 -2.2966 -0.3846
  155SAPE    C217201   5.947   1.203   6.574  1.0243  0.1618 -0.1361
  155SAPE    HS17202   5.892   1.228   6.481  2.9237  0.9571 -1.0898
  155SAPE   O2117203   6.026   1.317   6.622  0.1151 -0.1194 -0.0268
  155SAPE   C2117204   5.955   1.428   6.634  0.2717  0.0856  0.3801
  155SAPE   O2217205   5.840   1.454   6.599  0.4354 -0.2402  0.2282
  155SAPE   C2217206   6.050   1.525   6.715  0.5772 -0.5738 -0.3300
  155SAPE   H2R17207   6.046   1.490   6.821  1.3865 -0.5054 -0.2695
  155SAPE   H2S17208   6.152   1.516   6.672  0.8979  0.1573  0.2393
  155SAPE    C317209   5.858   1.145   6.684 -0.0520 -0.0129 -0.4399
  155SAPE    HX17210   5.803   1.058   6.642 -0.4630  0.2874 -0.5338
  155SAPE    HY17211   5.777   1.216   6.710 -2.4111 -2.3272 -1.0207
  155SAPE   O3117212   5.931   1.094   6.806 -0.1773  0.5355  0.0604
  155SAPE   C3117213   5.932   1.182   6.905 -0.2925  1.1721  0.2279
  155SAPE   O3217214   5.878   1.291   6.895  0.2580  0.0112  0.2253
  155SAPE   C3217215   6.023   1.141   7.023 -0.3594 -0.0883 -0.1384
  155SAPE   H2X17216   6.119   1.108   6.979 -0.6803 -2.9381  1.1172
  155SAPE   H2Y17217   5.977   1.055   7.075  2.1579 -0.8335  0.9791
  155SAPE   C2317218   6.022   1.681   6.711 -0.1030 -0.1378 -1.0213
  155SAPE   H3R17219   5.914   1.697   6.734  0.0052 -1.8902  1.1102
  155SAPE   H3S17220   6.044   1.713   6.607 -0.4950 -1.4385 -1.5357
  155SAPE   C2417221   6.102   1.768   6.813  0.3173 -0.0891  0.4911
  155SAPE   H4R17222   6.041   1.764   6.906 -0.9850 -2.6270 -0.3622
  155SAPE   H4S17223   6.101   1.873   6.780  0.2862  0.6416  2.6590
  155SAPE   C2517224   6.247   1.730   6.827 -0.2481  0.1228 -0.3273
  155SAPE   H5R17225   6.313   1.726   6.739  0.7338 -2.3370  0.4110
  155SAPE   C2617226   6.314   1.684   6.937 -0.2400 -0.3441  0.0060
  155SAPE   H6R17227   6.421   1.663   6.930  0.0676 -0.0488  2.6967
  155SAPE   C2717228   6.267   1.664   7.084 -0.7850  0.2492 -0.5199
  155SAPE   H7R17229   6.330   1.581   7.124 -1.0195 -0.3176 -1.3011
  155SAPE   H7S17230   6.162   1.636   7.108 -1.3439  3.2343  0.9416
  155SAPE   C2817231   6.305   1.778   7.173  0.4827  0.6570 -0.0466
  155SAPE   H8R17232   6.318   1.877   7.126 -1.4126  1.5530  1.1647
  155SAPE   C2917233   6.337   1.762   7.300  0.1874  0.1974 -0.0076
  155SAPE   H9R17234   6.371   1.854   7.350 -1.6628  0.8248  0.1808
  155SAPE  C21017235   6.325   1.635   7.385 -0.0701 -0.7975  0.8842
  155SAPE  H10R17236   6.422   1.633   7.439  0.0810 -2.3700  0.5998
  155SAPE  H10S17237   6.314   1.547   7.319  2.2942 -2.2000  2.2161
  155SAPE  C21117238   6.208   1.648   7.484  0.3590 -0.1306 -0.5232
  155SAPE  H11R17239   6.112   1.606   7.452  0.3698 -0.1972 -0.4662
  155SAPE  C21217240   6.204   1.706   7.610  0.3172 -0.1486  0.2801
  155SAPE  H12R17241   6.112   1.693   7.670 -1.0372  0.4408 -1.5857
  155SAPE  C21317242   6.317   1.775   7.675  0.2196  0.2983  0.2533
  155SAPE  H13R17243   6.402   1.799   7.607 -0.4636 -0.0914 -0.7700
  155SAPE  H13S17244   6.361   1.714   7.756  1.5032 -1.5233 -1.7184
  155SAPE  C21417245   6.266   1.908   7.728 -0.8666 -0.1328  0.0990
  155SAPE  H14R17246   6.294   1.989   7.659 -0.9266 -1.3938 -1.4809
  155SAPE  C21517247   6.194   1.936   7.841 -0.8067 -0.2804  0.2637
  155SAPE  H15R17248   6.167   2.039   7.869  0.6865 -0.1128  1.1870
  155SAPE  C21617249   6.155   1.825   7.937 -0.2173 -0.6562  0.7465
  155SAPE  H16R17250   6.167   1.722   7.897  0.4455 -0.1236 -0.4722
  155SAPE  H16S17251   6.047   1.837   7.961  0.1559  0.1115  2.1553
  155SAPE  C21717252   6.231   1.839   8.062 -0.5831  0.0297 -0.0955
  155SAPE  H17R17253   6.204   1.939   8.103 -0.6335  0.3759 -0.9581
  155SAPE  H17S17254   6.341   1.830   8.048 -0.5478 -0.9087  0.6782
  155SAPE  C21817255   6.196   1.731   8.159 -0.2848  0.9215  0.0366
  155SAPE  H18R17256   6.248   1.635   8.135  1.7033  0.6443  4.5784
  155SAPE  H18S17257   6.090   1.699   8.146 -0.6875  2.2406 -0.0696
  155SAPE  C21917258   6.222   1.759   8.304  0.1522 -0.1589 -0.1539
  155SAPE  H19R17259   6.199   1.666   8.360  0.9854 -0.5002 -0.3653
  155SAPE  H19S17260   6.149   1.836   8.336 -0.7214 -1.2309  0.5213
  155SAPE  C22017261   6.364   1.807   8.344 -0.5313  0.8442  0.7268
  155SAPE  H20R17262   6.362   1.879   8.428  0.1755 -0.1067  1.5775
  155SAPE  H20S17263   6.426   1.852   8.263  1.3075 -1.2816  0.8301
  155SAPE  H20T17264   6.427   1.727   8.389  1.8555  2.8729  1.1586
  155SAPE   C3317265   6.041   1.263   7.120  0.0200  0.5969  0.3844
  155SAPE   H3X17266   5.940   1.302   7.145 -0.5497 -1.5559  1.7091
  155SAPE   H3Y17267   6.099   1.347   7.075  0.3572  1.2687  2.0142
  155SAPE   C3417268   6.094   1.210   7.254 -0.0718  0.0578  0.2685
  155SAPE   H4X17269   6.186   1.156   7.225 -0.7500 -0.9238 -0.1027
  155SAPE   H4Y17270   6.029   1.124   7.280  1.4049 -1.4990 -0.9473
  155SAPE   C3517271   6.118   1.310   7.365 -0.0492 -0.2196  0.2256
  155SAPE   H5X17272   6.021   1.355   7.394 -0.4224 -0.9047  0.0737
  155SAPE   H5Y17273   6.192   1.384   7.327 -1.0086 -0.3072 -1.9204
  155SAPE   C3617274   6.181   1.228   7.479  0.6061 -0.1563  0.3732
  155SAPE   H6X17275   6.278   1.196   7.437  0.2264 -2.3589  1.0752
  155SAPE   H6Y17276   6.112   1.143   7.496 -1.4391  1.5662  1.2595
  155SAPE   C3717277   6.197   1.296   7.612 -0.3293  0.2172  0.5962
  155SAPE   H7X17278   6.100   1.328   7.657  0.4663 -0.1456  2.6860
  155SAPE   H7Y17279   6.265   1.384   7.609  1.2962 -1.0184  0.0163
  155SAPE   C3817280   6.261   1.212   7.711  0.4593  0.8142 -0.3965
  155SAPE   H8X17281   6.358   1.175   7.672  0.1085  0.5661 -1.0513
  155SAPE   H8Y17282   6.195   1.126   7.735 -0.0884  1.2369 -0.3698
  155SAPE   C3917283   6.288   1.288   7.843 -0.0684 -0.1089  0.0776
  155SAPE   H9X17284   6.339   1.210   7.903 -0.4859 -0.3310  0.1455
  155SAPE   H9Y17285   6.198   1.309   7.904  0.0347  0.2616  0.1036
  155SAPE  C31017286   6.386   1.400   7.833  0.2433  0.0581 -0.6972
  155SAPE  H10X17287   6.331   1.488   7.793 -0.4985 -0.9196 -1.8859
  155SAPE  H10Y17288   6.468   1.378   7.760 -1.1377  0.0258 -2.3072
  155SAPE  C31117289   6.443   1.444   7.975  0.2342  0.6097  0.3301
  155SAPE  H11X17290   6.493   1.360   8.028 -2.6891  0.9277  4.0101
  155SAPE  H11Y17291   6.352   1.466   8.035 -0.6025 -0.5508 -0.4556
  155SAPE  C31217292   6.538   1.566   7.974 -0.0376  0.5828 -0.1852
  155SAPE  H12X17293   6.475   1.649   7.938 -0.4909  0.1337 -0.4304
  155SAPE  H12Y17294   6.626   1.547   7.908 -0.6729 -1.6342 -0.4773
  155SAPE  C31317295   6.600   1.612   8.114 -0.8118 -1.2709  0.2162
  155SAPE  H13X17296   6.513   1.640   8.178 -0.5675  1.1668 -0.4138
  155SAPE  H13Y17297   6.680   1.686   8.095  1.1403 -3.1266  0.8384
  155SAPE  C31417298   6.670   1.500   8.196  0.7491 -0.0371 -0.2764
  155SAPE  H14X17299   6.607   1.411   8.215 -1.0375  1.1403 -0.4208
  155SAPE  H14Y17300   6.703   1.537   8.296 -1.2344 -0.4590  0.5781
  155SAPE  C31517301   6.794   1.443   8.125  0.2347  0.5038 -0.1902
  155SAPE  H15X17302   6.870   1.524   8.121 -0.7348  1.4550  0.0099
  155SAPE  H15Y17303   6.776   1.403   8.023  0.6587  3.1136 -1.3835
  155SAPE  C31617304   6.849   1.332   8.214 -0.3413  0.3637  0.0735
  155SAPE  H16X17305   6.847   1.358   8.322  0.9352 -1.4664  0.5871
  155SAPE  H16Y17306   6.959   1.319   8.203 -0.6782 -2.4415 -0.6636
  155SAPE  C31717307   6.777   1.206   8.190 -0.6477 -0.1976 -0.0786
  155SAPE  H17X17308   6.796   1.182   8.083  2.4776  2.5266 -0.2930
  155SAPE  H17Y17309   6.669   1.221   8.213 -0.0291  0.0227  3.2595
  155SAPE  C31817310   6.831   1.103   8.287  0.1100  0.0159  0.3535
  155SAPE  H18X17311   6.829   1.137   8.393 -1.4308 -1.3430  0.7903
  155SAPE  H18Y17312   6.937   1.081   8.262  0.5141 -0.6197  2.4487
  155SAPE  H18Z17313   6.767   1.012   8.280  1.0174 -0.8005  2.0073
  156SAPE     N17314   2.590   2.248   6.309  0.1314  0.3690 -0.0637
  156SAPE   HN117315   2.662   2.316   6.276 -0.2561  1.0034  0.3750
  156SAPE   HN217316   2.498   2.296   6.300  0.1026  0.2436 -0.4383
  156SAPE   HN317317   2.624   2.233   6.406 -0.3073  0.2345  0.0690
  156SAPE   C1217318   2.599   2.122   6.235 -0.5873 -0.3276  0.8068
  156SAPE  H12A17319   2.680   2.139   6.161  0.3663  0.6914  2.0339
  156SAPE  H12B17320   2.504   2.106   6.181  0.5185 -3.5107 -0.4018
  156SAPE   C1117321   2.639   1.996   6.322 -0.6936 -0.1634 -0.7162
  156SAPE  H11A17322   2.644   1.900   6.267 -0.0442 -0.4420 -0.1709
  156SAPE  H11B17323   2.560   1.989   6.399 -0.9058 -0.7586 -0.9808
  156SAPE     P17324   2.898   1.953   6.338 -0.2114 -0.2130 -0.0034
  156SAPE   O1317325   2.887   1.946   6.190  0.0571 -0.2468  0.0112
  156SAPE   O1417326   3.013   2.018   6.396 -0.0765 -0.1891  0.3158
  156SAPE   O1217327   2.766   2.027   6.388  0.2625 -0.3557 -0.6850
  156SAPE   O1117328   2.879   1.803   6.388 -0.3654  0.1335 -0.3337
  156SAPE    C117329   2.855   1.785   6.527 -0.5827  0.4507 -0.3701
  156SAPE    HA17330   2.918   1.856   6.585  0.5785  0.8403 -2.0267
  156SAPE    HB17331   2.749   1.796   6.557  0.0420 -0.1186  2.2770
  156SAPE    C217332   2.887   1.637   6.573  0.2425 -0.6543  0.6793
  156SAPE    HS17333   2.978   1.601   6.522  1.8276 -0.3510  3.1497
  156SAPE   O2117334   2.770   1.566   6.539 -0.2551 -0.1517  0.6871
  156SAPE   C2117335   2.799   1.434   6.551  0.3014  0.6979 -0.1783
  156SAPE   O2217336   2.908   1.378   6.558  0.0148 -0.1738  0.1245
  156SAPE   C2217337   2.665   1.358   6.542 -0.0892 -0.0338  0.0690
  156SAPE   H2R17338   2.581   1.430   6.558 -1.4923 -1.2222 -1.5215
  156SAPE   H2S17339   2.655   1.322   6.437  0.2274  0.0295  0.0180
  156SAPE    C317340   2.908   1.618   6.722  0.5749 -0.4982  0.1343
  156SAPE    HX17341   2.943   1.521   6.765 -1.3877 -0.3931  2.1280
  156SAPE    HY17342   2.810   1.634   6.771  1.0505 -0.7157  1.2083
  156SAPE   O3117343   2.990   1.731   6.765 -0.6307 -0.3440  0.0618
  156SAPE   C3117344   3.109   1.707   6.809  0.2702 -0.8192  0.2360
  156SAPE   O3217345   3.175   1.602   6.810 -0.3256  0.0751 -0.2405
  156SAPE   C3217346   3.181   1.838   6.856 -1.2730  0.2099 -0.0924
  156SAPE   H2X17347   3.115   1.928   6.858  1.6698  2.5168  0.0650
  156SAPE   H2Y17348   3.254   1.861   6.776  1.0165 -1.5026  1.4003
  156SAPE   C2317349   2.639   1.239   6.636  0.2786  0.9554  0.4295
  156SAPE   H3R17350   2.718   1.161   6.624  1.0793  1.2201  3.2060
  156SAPE   H3S17351   2.540   1.195   6.614 -0.4437  2.2942  0.9072
  156SAPE   C2417352   2.640   1.281   6.790 -0.3022  0.2770 -0.8043
  156SAPE   H4R17353   2.589   1.197   6.842  0.2959  0.0161 -0.6320
  156SAPE   H4S17354   2.572   1.368   6.801 -1.1715 -0.5299  0.4458
  156SAPE   C2517355   2.773   1.284   6.863  0.0737 -0.3690  0.3809
  156SAPE   H5R17356   2.833   1.196   6.837 -2.2269 -1.7974 -0.3625
  156SAPE   C2617357   2.808   1.381   6.958 -0.3768 -0.2141 -0.3958
  156SAPE   H6R17358   2.911   1.373   6.995  0.3485  2.4391 -1.5853
  156SAPE   C2717359   2.719   1.492   7.007 -0.0871  0.1793 -0.2184
  156SAPE   H7R17360   2.645   1.455   7.081  1.6411  0.2054  1.6160
  156SAPE   H7S17361   2.655   1.518   6.920  1.2683 -0.0710 -1.3145
  156SAPE   C2817362   2.802   1.612   7.053  0.3295 -0.1383 -0.7090
  156SAPE   H8R17363   2.848   1.682   6.982  0.3292  1.4861  0.8341
  156SAPE   C2917364   2.836   1.626   7.186 -0.2161 -0.0875 -0.0922
  156SAPE   H9R17365   2.884   1.720   7.218  0.5476 -0.1523 -1.0116
  156SAPE  C21017366   2.803   1.528   7.298  0.2111 -0.2332 -0.0142
  156SAPE  H10R17367   2.893   1.513   7.361  1.5610  1.9699 -1.2786
  156SAPE  H10S17368   2.796   1.429   7.249  1.5834  0.0901 -0.8992
  156SAPE  C21117369   2.666   1.541   7.364 -0.0648  0.2014  0.4311
  156SAPE  H11R17370   2.579   1.569   7.303 -1.1350 -2.8229  0.3711
  156SAPE  C21217371   2.652   1.526   7.495 -0.2702  0.7989 -0.4573
  156SAPE  H12R17372   2.553   1.524   7.542  0.1824 -1.3843  0.5127
  156SAPE  C21317373   2.769   1.489   7.587  0.5474  0.2840 -0.0503
  156SAPE  H13R17374   2.854   1.560   7.586 -0.5948  1.7457  1.0478
  156SAPE  H13S17375   2.812   1.391   7.560 -4.2805 -3.4891  3.8256
  156SAPE  C21417376   2.726   1.471   7.731 -0.2375 -0.2801 -0.1523
  156SAPE  H14R17377   2.616   1.464   7.730 -0.2550  0.0290 -1.1178
  156SAPE  C21517378   2.792   1.447   7.841  0.0455 -0.6655 -0.7884
  156SAPE  H15R17379   2.745   1.452   7.941 -0.5211  2.4741 -1.1125
  156SAPE  C21617380   2.946   1.432   7.842  0.2698 -0.0284  0.4588
  156SAPE  H16R17381   2.990   1.408   7.742 -0.9507  2.7418 -0.8271
  156SAPE  H16S17382   2.974   1.350   7.912  0.3791 -0.1971  0.2215
  156SAPE  C21717383   3.020   1.554   7.887 -0.4994 -0.3179 -0.1976
  156SAPE  H17R17384   3.013   1.641   7.819  1.1573  0.9334  1.1475
  156SAPE  H17S17385   3.127   1.525   7.892 -1.1537 -2.7400  0.9560
  156SAPE  C21817386   2.985   1.613   8.019 -0.3561  0.1169 -0.0817
  156SAPE  H18R17387   2.877   1.630   8.034 -0.1546 -0.6829  2.8334
  156SAPE  H18S17388   3.042   1.707   8.039  1.0531 -0.9215  1.0224
  156SAPE  C21917389   3.019   1.522   8.131  0.0085  0.1019 -0.0153
  156SAPE  H19R17390   3.129   1.510   8.146  0.2381 -0.9973 -2.2405
  156SAPE  H19S17391   2.992   1.417   8.107  2.0907 -0.6518  0.6878
  156SAPE  C22017392   2.974   1.555   8.267  0.2277 -0.0961 -0.2141
  156SAPE  H20R17393   2.999   1.473   8.338  2.3022 -0.6127 -1.4569
  156SAPE  H20S17394   2.867   1.585   8.277  0.2472  0.4202 -1.4251
  156SAPE  H20T17395   3.028   1.648   8.295  0.5333  0.1978 -1.6993
  156SAPE   C3317396   3.257   1.815   6.984 -0.9550 -0.5010  0.3842
  156SAPE   H3X17397   3.329   1.898   6.997  2.3409 -3.2613  1.1139
  156SAPE   H3Y17398   3.322   1.725   6.984 -0.5166 -0.1922  1.0721
  156SAPE   C3417399   3.158   1.816   7.105  0.0781  0.8216  0.0490
  156SAPE   H4X17400   3.101   1.721   7.101  0.9678  0.2423  0.7048
  156SAPE   H4Y17401   3.087   1.901   7.093  0.0725  0.7427 -0.5079
  156SAPE   C3517402   3.225   1.818   7.241 -0.8128 -0.4615  0.0985
  156SAPE   H5X17403   3.265   1.918   7.268 -0.3407 -0.4176 -0.7508
  156SAPE   H5Y17404   3.307   1.744   7.249 -1.7972 -1.4896  1.2094
  156SAPE   C3617405   3.132   1.778   7.352  0.8273  0.4741  1.0990
  156SAPE   H6X17406   3.082   1.682   7.325 -1.1471  1.5692  0.6173
  156SAPE   H6Y17407   3.055   1.857   7.362  0.5299  0.4250 -0.5478
  156SAPE   C3717408   3.193   1.744   7.485  0.4595 -0.0714  0.2634
  156SAPE   H7X17409   3.266   1.667   7.453  0.7275  0.1736  0.2787
  156SAPE   H7Y17410   3.108   1.691   7.534  1.0900  0.3444  1.8639
  156SAPE   C3817411   3.257   1.850   7.569  0.3536  0.0424  0.9199
  156SAPE   H8X17412   3.199   1.944   7.556 -1.6478 -1.4193 -1.7661
  156SAPE   H8Y17413   3.364   1.859   7.544  0.7477 -3.2346  0.9920
  156SAPE   C3917414   3.253   1.821   7.718  0.3771  0.5435  0.1410
  156SAPE   H9X17415   3.196   1.726   7.723 -0.0562  0.7597 -0.6801
  156SAPE   H9Y17416   3.197   1.896   7.777 -1.1296 -0.8170  0.5141
  156SAPE  C31017417   3.382   1.786   7.789  0.6910  0.4058 -0.2169
  156SAPE  H10X17418   3.438   1.881   7.798  0.9595  0.1744  0.6449
  156SAPE  H10Y17419   3.440   1.712   7.730  1.2901  1.2902 -0.7484
  156SAPE  C31117420   3.363   1.723   7.930 -0.4570 -0.5653  0.7308
  156SAPE  H11X17421   3.304   1.630   7.914  0.4070 -0.9978  0.0326
  156SAPE  H11Y17422   3.303   1.802   7.980  1.0997  1.6708 -0.7573
  156SAPE  C31217423   3.496   1.714   8.000 -0.4738 -0.7301 -0.3396
  156SAPE  H12X17424   3.556   1.808   7.995 -0.6039 -0.2839  3.6715
  156SAPE  H12Y17425   3.562   1.644   7.944  2.5998  1.6133  0.1044
  156SAPE  C31317426   3.481   1.685   8.143 -0.1803  0.3057  0.5963
  156SAPE  H13X17427   3.409   1.755   8.191 -0.1383  2.0638 -1.7298
  156SAPE  H13Y17428   3.576   1.691   8.201 -0.3619 -3.2739  1.5176
  156SAPE  C31417429   3.430   1.544   8.166 -0.5790  0.0105 -0.4088
  156SAPE  H14X17430   3.488   1.481   8.095  0.2515  0.9366 -0.5692
  156SAPE  H14Y17431   3.326   1.531   8.129 -1.2705  1.7868  0.7520
  156SAPE  C31517432   3.456   1.488   8.302  0.3988  0.2685 -0.2026
  156SAPE  H15X17433   3.547   1.522   8.357 -0.0810 -0.4828  1.1105
  156SAPE  H15Y17434   3.456   1.377   8.294  0.2687  0.4037 -3.4945
  156SAPE  C31617435   3.343   1.524   8.402 -0.6445 -0.6628 -0.0359
  156SAPE  H16X17436   3.337   1.441   8.477 -3.6910  0.5015  1.1573
  156SAPE  H16Y17437   3.244   1.514   8.353 -0.6547  0.3735 -0.2431
  156SAPE  C31717438   3.368   1.656   8.477 -0.0769  0.3239 -0.6998
  156SAPE  H17X17439   3.364   1.751   8.419 -4.1191  1.9241  1.7245
  156SAPE  H17Y17440   3.473   1.658   8.511 -0.0653  0.6222 -0.7441
  156SAPE  C31817441   3.275   1.676   8.593 -0.3204 -0.6355  0.3780
  156SAPE  H18X17442   3.167   1.673   8.569  0.0919  1.8340 -2.2361
  156SAPE  H18Y17443   3.293   1.783   8.616 -0.4604 -0.0437 -2.0963
  156SAPE  H18Z17444   3.301   1.605   8.675 -1.5500  1.0300  2.3196
  157SAPE     N17445   2.938   3.015   5.911  0.4718  0.0295  0.2747
  157SAPE   HN117446   2.913   3.049   5.816 -0.1910 -2.9833 -0.7097
  157SAPE   HN217447   3.039   3.031   5.930  0.8675 -0.1513 -1.5615
  157SAPE   HN317448   2.923   2.913   5.899  3.0687 -0.5930  1.4725
  157SAPE   C1217449   2.852   3.071   6.019 -0.1790 -0.3707  0.3748
  157SAPE  H12A17450   2.742   3.075   6.000 -0.2657 -0.9660  0.7305
  157SAPE  H12B17451   2.871   3.180   6.030 -1.7218 -0.0740  0.3724
  157SAPE   C1117452   2.854   2.993   6.158  0.9339  0.0604  0.2437
  157SAPE  H11A17453   2.953   2.992   6.208  2.2622 -1.3399 -2.2477
  157SAPE  H11B17454   2.830   2.886   6.138  0.9488  0.0244  0.4189
  157SAPE     P17455   2.633   2.975   6.308  0.2422 -0.1622 -0.3352
  157SAPE   O1317456   2.578   3.063   6.416 -0.1347  0.4431  0.4014
  157SAPE   O1417457   2.540   2.939   6.200 -0.0397  0.0065  0.0987
  157SAPE   O1217458   2.756   3.046   6.242  0.3060 -0.0285 -0.5258
  157SAPE   O1117459   2.696   2.842   6.370 -0.3436 -0.0657 -0.0057
  157SAPE    C117460   2.679   2.806   6.505 -0.2654  0.4834 -0.4832
  157SAPE    HA17461   2.621   2.880   6.564 -0.0368  0.2899 -0.0157
  157SAPE    HB17462   2.624   2.709   6.502 -1.1040  0.7405  2.6617
  157SAPE    C217463   2.823   2.788   6.563 -0.2342  0.0049  0.3689
  157SAPE    HS17464   2.888   2.735   6.490  1.8906 -1.2076  2.9558
  157SAPE   O2117465   2.812   2.698   6.675 -0.0397 -0.6558  0.2883
  157SAPE   C2117466   2.934   2.645   6.712  0.4763  1.0644 -0.3388
  157SAPE   O2217467   3.031   2.640   6.636  0.3449 -0.0587  0.0847
  157SAPE   C2217468   2.916   2.564   6.837 -0.1329  0.0185  0.0705
  157SAPE   H2R17469   2.889   2.461   6.807  2.1770 -0.2339 -1.4353
  157SAPE   H2S17470   3.011   2.564   6.894 -0.7262 -1.6367  1.1189
  157SAPE    C317471   2.897   2.921   6.591  0.2876 -0.6412  0.3794
  157SAPE    HX17472   2.898   2.981   6.498 -3.5063 -0.2606  0.4546
  157SAPE    HY17473   3.003   2.899   6.616  0.2977 -0.0417  0.8799
  157SAPE   O3117474   2.829   2.998   6.692  1.0191  0.5832  0.0309
  157SAPE   C3117475   2.882   2.998   6.813 -0.5877 -0.1628  0.3561
  157SAPE   O3217476   2.996   2.956   6.832  0.3333 -0.2329  0.2431
  157SAPE   C3217477   2.790   3.038   6.916 -0.2568 -0.0194  0.3987
  157SAPE   H2X17478   2.685   3.006   6.902 -0.0324 -0.9678  0.7962
  157SAPE   H2Y17479   2.778   3.148   6.904  1.1628  0.0760 -0.3725
  157SAPE   C2317480   2.788   2.615   6.912  0.2543  0.0991 -0.3704
  157SAPE   H3R17481   2.689   2.580   6.878  0.2035 -0.8104  0.7017
  157SAPE   H3S17482   2.800   2.726   6.906  2.0460 -0.0289  0.2862
  157SAPE   C2417483   2.795   2.589   7.064 -0.0647 -0.5792  0.3519
  157SAPE   H4R17484   2.782   2.480   7.079  1.2905 -0.7451  0.4721
  157SAPE   H4S17485   2.707   2.645   7.100 -1.5785 -1.6808 -1.4472
  157SAPE   C2517486   2.918   2.624   7.148  0.5694  0.2377 -0.0845
  157SAPE   H5R17487   3.012   2.641   7.093  0.1200 -0.1765 -1.0010
  157SAPE   C2617488   2.915   2.638   7.283 -0.3332  0.3158 -0.0305
  157SAPE   H6R17489   3.009   2.661   7.335 -0.1123 -0.3674 -0.1125
  157SAPE   C2717490   2.789   2.625   7.365 -0.4986 -0.3971 -0.6134
  157SAPE   H7R17491   2.774   2.515   7.361  2.8692 -1.0755  1.1400
  157SAPE   H7S17492   2.708   2.676   7.310 -0.1493 -2.0439 -2.7699
  157SAPE   C2817493   2.807   2.677   7.510 -0.4532 -0.7885 -0.9437
  157SAPE   H8R17494   2.809   2.787   7.522  1.6865 -0.4342 -3.4090
  157SAPE   C2917495   2.811   2.612   7.632 -1.4939 -0.5646  0.1652
  157SAPE   H9R17496   2.814   2.674   7.723 -3.1823 -0.1700 -0.0030
  157SAPE  C21017497   2.822   2.464   7.655 -0.9363  0.0016  0.0970
  157SAPE  H10R17498   2.922   2.427   7.623 -1.0459  0.7629 -1.1682
  157SAPE  H10S17499   2.747   2.411   7.592  0.4473 -0.8207 -0.9458
  157SAPE  C21117500   2.799   2.433   7.801  0.1718 -0.2999 -0.0187
  157SAPE  H11R17501   2.894   2.426   7.857  0.3953  3.3395  0.2767
  157SAPE  C21217502   2.692   2.397   7.867  0.4865 -1.2059  0.0669
  157SAPE  H12R17503   2.706   2.377   7.974 -0.5170  0.4411  0.5423
  157SAPE  C21317504   2.550   2.379   7.818  0.7600  0.2887  0.0483
  157SAPE  H13R17505   2.526   2.467   7.755 -0.9606  2.0679  2.9502
  157SAPE  H13S17506   2.483   2.384   7.906 -0.4333 -1.4995 -0.6988
  157SAPE  C21417507   2.524   2.250   7.738 -0.1238 -0.3681  0.0756
  157SAPE  H14R17508   2.565   2.158   7.782  0.0480  0.8347  2.5952
  157SAPE  C21517509   2.481   2.240   7.610 -0.1371 -0.1729  0.1732
  157SAPE  H15R17510   2.481   2.138   7.568  0.3309 -0.6122  1.2078
  157SAPE  C21617511   2.456   2.342   7.515 -0.1556  0.9362  0.6459
  157SAPE  H16R17512   2.545   2.400   7.483  0.1841  0.2770  0.3785
  157SAPE  H16S17513   2.381   2.418   7.549 -1.6810 -0.1321 -0.2117
  157SAPE  C21717514   2.387   2.298   7.390  0.1557  0.7135 -0.0893
  157SAPE  H17R17515   2.288   2.253   7.412  1.2681 -1.5248  0.7429
  157SAPE  H17S17516   2.446   2.220   7.337 -1.2644 -0.8077  0.4640
  157SAPE  C21817517   2.366   2.410   7.297  0.5394  0.4182  0.4620
  157SAPE  H18R17518   2.470   2.434   7.268  0.3738  1.8984  1.0191
  157SAPE  H18S17519   2.321   2.499   7.345  3.7926  1.8250  1.1735
  157SAPE  C21917520   2.276   2.372   7.177  0.3851  0.3801 -0.0052
  157SAPE  H19R17521   2.169   2.383   7.205  0.1360  0.1620 -0.8366
  157SAPE  H19S17522   2.285   2.262   7.163 -1.4935  0.2491 -0.4890
  157SAPE  C22017523   2.298   2.456   7.055  0.2120 -0.3577  0.2948
  157SAPE  H20R17524   2.269   2.560   7.080  1.2985 -0.0839  0.4452
  157SAPE  H20S17525   2.228   2.433   6.972  1.0721  1.0495 -0.8788
  157SAPE  H20T17526   2.405   2.458   7.025  0.8151  1.1206  2.3322
  157SAPE   C3317527   2.845   3.024   7.059  0.7361 -0.1126 -0.2221
  157SAPE   H3X17528   2.953   3.043   7.075  0.9195 -0.3562 -1.1268
  157SAPE   H3Y17529   2.829   2.919   7.091 -0.5615 -0.0984 -0.7477
  157SAPE   C3417530   2.767   3.112   7.158 -0.4159  0.4504  0.0843
  157SAPE   H4X17531   2.657   3.097   7.147 -0.3580 -0.0526  0.1518
  157SAPE   H4Y17532   2.783   3.216   7.125  2.1185 -0.6443 -2.6179
  157SAPE   C3517533   2.810   3.088   7.300 -0.2709  0.0878  0.2565
  157SAPE   H5X17534   2.910   3.132   7.318 -0.6354  1.2428 -0.4194
  157SAPE   H5Y17535   2.814   2.981   7.327 -0.9677 -0.0087 -0.0049
  157SAPE   C3617536   2.728   3.152   7.414  0.7784  0.0795  0.3453
  157SAPE   H6X17537   2.642   3.089   7.445 -1.1879  1.8298 -1.2268
  157SAPE   H6Y17538   2.694   3.250   7.375 -0.8056 -1.0673 -1.3304
  157SAPE   C3717539   2.809   3.172   7.546 -0.1885 -0.2555  0.5284
  157SAPE   H7X17540   2.885   3.252   7.533 -0.6885  0.1680  0.1672
  157SAPE   H7Y17541   2.853   3.077   7.583 -1.1849 -0.6797  0.6359
  157SAPE   C3817542   2.728   3.231   7.659  0.2395 -0.1215 -0.2823
  157SAPE   H8X17543   2.631   3.179   7.673  0.1310  0.1747  0.1027
  157SAPE   H8Y17544   2.687   3.333   7.642 -0.8689 -0.1920  1.6197
  157SAPE   C3917545   2.802   3.228   7.792 -0.4717 -0.0305 -0.0424
  157SAPE   H9X17546   2.883   3.304   7.779  0.2945 -0.6255  1.0384
  157SAPE   H9Y17547   2.839   3.127   7.820  0.3131 -0.9768 -3.8999
  157SAPE  C31017548   2.710   3.271   7.907  0.8387  0.3346 -0.8372
  157SAPE  H10X17549   2.616   3.216   7.927  0.2295  1.5994 -0.0490
  157SAPE  H10Y17550   2.683   3.375   7.878 -0.2320  0.2982 -0.0384
  157SAPE  C31117551   2.774   3.281   8.045 -0.8824 -0.8093  0.3017
  157SAPE  H11X17552   2.705   3.320   8.122  0.7796  2.4208  0.3080
  157SAPE  H11Y17553   2.859   3.353   8.048 -1.3013 -0.3331  1.0047
  157SAPE  C31217554   2.828   3.146   8.095  0.2796  0.3922 -0.2906
  157SAPE  H12X17555   2.900   3.169   8.177 -0.5840 -1.0281  0.9210
  157SAPE  H12Y17556   2.892   3.102   8.015  1.4171  0.5222  0.5301
  157SAPE  C31317557   2.728   3.050   8.162 -0.1005 -0.4701  0.4145
  157SAPE  H13X17558   2.787   2.955   8.160  3.0034  1.3391 -0.4739
  157SAPE  H13Y17559   2.637   3.039   8.100  1.1230 -0.8141 -1.3795
  157SAPE  C31417560   2.685   3.076   8.311 -0.4513  0.4749 -0.4784
  157SAPE  H14X17561   2.641   3.176   8.331 -1.4757 -0.1980  0.8027
  157SAPE  H14Y17562   2.774   3.065   8.377 -1.3426  3.2676  1.4157
  157SAPE  C31517563   2.594   2.965   8.370  0.7647 -0.5253  0.2375
  157SAPE  H15X17564   2.637   2.868   8.336  0.3920 -0.9171  0.8672
  157SAPE  H15Y17565   2.492   2.976   8.328  1.7777 -0.7562 -2.4889
  157SAPE  C31617566   2.570   2.970   8.521  0.8254  0.1053 -0.3454
  157SAPE  H16X17567   2.537   3.075   8.537  0.6739 -0.2382  2.0825
  157SAPE  H16Y17568   2.663   2.957   8.581  3.0314  0.9497 -3.3606
  157SAPE  C31717569   2.459   2.876   8.565  0.2832 -0.0558  0.6505
  157SAPE  H17X17570   2.487   2.770   8.545 -0.6154  0.0322 -1.2293
  157SAPE  H17Y17571   2.376   2.900   8.495  0.5440 -0.9886 -0.0061
  157SAPE  C31817572   2.412   2.895   8.708  0.2834  0.8305 -0.6012
  157SAPE  H18X17573   2.397   3.003   8.731  0.2948  0.7135 -0.0467
  157SAPE  H18Y17574   2.501   2.870   8.769  0.8239 -1.5395 -2.2241
  157SAPE  H18Z17575   2.328   2.826   8.734 -0.6802  1.3755 -2.1239
  158SAPE     N17576   3.330   0.253   6.311  0.4025  0.6380 -0.1570
  158SAPE   HN117577   3.415   0.208   6.272  0.7991 -0.6734  2.0352
  158SAPE   HN217578   3.313   0.343   6.262 -0.9173  1.0815  1.0487
  158SAPE   HN317579   3.359   0.270   6.409 -1.6124 -0.2850  0.6577
  158SAPE   C1217580   3.202   0.165   6.312 -0.3754  0.2430  0.8279
  158SAPE  H12A17581   3.211   0.068   6.365 -2.0655  0.8155  2.2739
  158SAPE  H12B17582   3.195   0.143   6.203  3.2990  0.4136  0.4584
  158SAPE   C1117583   3.088   0.243   6.381 -0.7531 -0.3545  0.2059
  158SAPE  H11A17584   3.128   0.265   6.483  0.1292 -0.5035 -0.0994
  158SAPE  H11B17585   3.000   0.176   6.386 -0.6130 -0.7987 -2.2308
  158SAPE     P17586   2.959   0.389   6.202 -0.0792 -0.1021 -0.1349
  158SAPE   O1317587   2.960   0.534   6.167  0.3331  0.8179  0.0352
  158SAPE   O1417588   2.980   0.289   6.096  0.5931 -0.1498  0.0763
  158SAPE   O1217589   3.068   0.362   6.312  0.5372  0.2443 -0.1239
  158SAPE   O1117590   2.817   0.356   6.263  0.2191  0.4191 -0.3554
  158SAPE    C117591   2.774   0.409   6.389 -0.4258  0.2395  0.2844
  158SAPE    HA17592   2.692   0.342   6.424 -0.8411 -0.0610 -1.1820
  158SAPE    HB17593   2.857   0.414   6.462  0.2528  1.0648 -0.5253
  158SAPE    C217594   2.718   0.552   6.367  0.8303  0.3065  1.0842
  158SAPE    HS17595   2.761   0.582   6.269  0.4425 -0.6270  0.6132
  158SAPE   O2117596   2.760   0.635   6.478  0.0298 -0.0496 -0.3351
  158SAPE   C2117597   2.735   0.764   6.452  0.7463 -0.0367 -0.0031
  158SAPE   O2217598   2.700   0.803   6.339  0.1194 -0.0195  0.1281
  158SAPE   C2217599   2.751   0.849   6.575 -0.1176  0.2322 -0.8848
  158SAPE   H2R17600   2.813   0.938   6.551  1.6277 -0.4937  0.7239
  158SAPE   H2S17601   2.651   0.886   6.604 -0.0884 -1.7352  2.2051
  158SAPE    C317602   2.560   0.543   6.351 -0.2524  0.2601 -0.4746
  158SAPE    HX17603   2.531   0.449   6.300  2.4865 -1.0683  0.2345
  158SAPE    HY17604   2.539   0.629   6.284  1.2011  1.6713  0.8070
  158SAPE   O3117605   2.500   0.551   6.490  0.0793 -0.5589  0.5003
  158SAPE   C3117606   2.388   0.610   6.494  0.1188 -0.1927  0.1213
  158SAPE   O3217607   2.339   0.689   6.413  0.2249 -0.1840  0.7549
  158SAPE   C3217608   2.332   0.579   6.633  0.2247 -0.7004  0.1654
  158SAPE   H2X17609   2.354   0.472   6.652  0.9215 -1.0216 -2.1697
  158SAPE   H2Y17610   2.226   0.612   6.630  0.2665 -0.6249 -2.4828
  158SAPE   C2317611   2.810   0.777   6.697 -0.5399  0.5537 -0.1029
  158SAPE   H3R17612   2.902   0.727   6.662  1.5316  3.2475  1.1075
  158SAPE   H3S17613   2.745   0.696   6.735  0.4708  0.6699  2.0483
  158SAPE   C2417614   2.863   0.863   6.821 -0.4954  0.3695 -0.0965
  158SAPE   H4R17615   2.916   0.953   6.783 -1.3279  1.2902  0.8585
  158SAPE   H4S17616   2.941   0.801   6.870  0.3557  0.7543 -0.9210
  158SAPE   C2517617   2.746   0.909   6.912  0.2779 -0.1027 -0.2337
  158SAPE   H5R17618   2.649   0.923   6.863  1.1631  0.6995 -1.8478
  158SAPE   C2617619   2.759   0.931   7.046  0.2157 -0.5170 -0.4769
  158SAPE   H6R17620   2.663   0.939   7.100  0.8274  1.1504  0.4330
  158SAPE   C2717621   2.879   0.922   7.133  0.2253 -0.2361  0.7113
  158SAPE   H7R17622   2.974   0.899   7.081 -0.7755 -1.5440 -0.6097
  158SAPE   H7S17623   2.872   0.847   7.214  0.8976 -0.3627  0.6609
  158SAPE   C2817624   2.903   1.056   7.193  0.2006  0.5834  0.7388
  158SAPE   H8R17625   2.928   1.140   7.127  3.6062 -0.2774  0.7682
  158SAPE   C2917626   2.904   1.077   7.322  0.3135 -0.2935 -0.2288
  158SAPE   H9R17627   2.905   1.183   7.354 -1.7129 -0.0747 -0.7762
  158SAPE  C21017628   2.884   0.978   7.434  0.2456 -0.9615  0.1020
  158SAPE  H10R17629   2.868   0.875   7.395  0.1841 -0.4850 -1.1599
  158SAPE  H10S17630   2.784   1.006   7.474  0.0373 -0.8488 -0.4791
  158SAPE  C21117631   2.982   0.962   7.544 -0.4657  0.2058 -0.2887
  158SAPE  H11R17632   3.074   0.903   7.533 -0.1594  0.7348 -0.6325
  158SAPE  C21217633   2.949   1.011   7.670  0.8459  0.2797  0.6966
  158SAPE  H12R17634   3.021   0.979   7.746  1.2834 -2.4741 -0.7688
  158SAPE  C21317635   2.822   1.080   7.709  0.5342 -0.6527 -0.6378
  158SAPE  H13R17636   2.743   1.097   7.634  1.3143  3.2416 -0.7606
  158SAPE  H13S17637   2.848   1.182   7.745  1.3504 -1.7429  2.1083
  158SAPE  C21417638   2.745   1.024   7.832  0.5415 -0.0926 -0.2404
  158SAPE  H14R17639   2.650   0.977   7.803  0.3906  0.2002 -0.2220
  158SAPE  C21517640   2.762   1.017   7.964 -0.3821 -0.0094 -0.1345
  158SAPE  H15R17641   2.678   0.980   8.025  0.3619  0.1250  1.0007
  158SAPE  C21617642   2.879   1.059   8.052  0.4067  0.7200  0.6274
  158SAPE  H16R17643   2.947   1.136   8.010  0.3870 -0.1664 -1.1563
  158SAPE  H16S17644   2.947   0.971   8.056 -2.1451 -1.5809 -1.8621
  158SAPE  C21717645   2.834   1.077   8.198 -0.5776  0.4805  0.5297
  158SAPE  H17R17646   2.797   0.983   8.244 -0.5542  0.7635  1.1344
  158SAPE  H17S17647   2.756   1.156   8.189 -1.1120 -0.0291  0.6010
  158SAPE  C21817648   2.950   1.138   8.288  0.8335  0.5059 -0.0782
  158SAPE  H18R17649   2.980   1.237   8.247  0.9202  1.0515  1.2433
  158SAPE  H18S17650   3.034   1.065   8.295 -2.0628 -3.0321  1.0371
  158SAPE  C21917651   2.903   1.165   8.430 -0.0259 -0.0019 -0.0027
  158SAPE  H19R17652   2.854   1.082   8.484  0.9188 -0.4505  0.1674
  158SAPE  H19S17653   2.822   1.238   8.408 -1.2179 -1.4862 -0.7372
  158SAPE  C22017654   3.007   1.232   8.525  0.1390 -0.3671 -0.4619
  158SAPE  H20R17655   3.089   1.159   8.546  0.0773 -0.4104 -0.3723
  158SAPE  H20S17656   2.960   1.260   8.621  0.6279  0.3060 -0.4153
  158SAPE  H20T17657   3.059   1.316   8.474 -0.7050  0.8960  0.6841
  158SAPE   C3317658   2.400   0.670   6.738  0.2852  0.1725  0.3587
  158SAPE   H3X17659   2.393   0.776   6.705  0.7882  0.2574  0.5132
  158SAPE   H3Y17660   2.507   0.647   6.754  0.1122  0.8921  2.8994
  158SAPE   C3417661   2.339   0.653   6.879  0.0244  0.2514  0.9757
  158SAPE   H4X17662   2.259   0.576   6.880 -2.3665  2.5293  4.3076
  158SAPE   H4Y17663   2.285   0.746   6.906  0.0049  0.5071  0.1029
  158SAPE   C3517664   2.450   0.649   6.993 -0.0768  0.6706 -0.4894
  158SAPE   H5X17665   2.513   0.733   6.957 -0.5891  0.1301 -2.8266
  158SAPE   H5Y17666   2.511   0.557   6.979  1.5129  1.9532 -2.5466
  158SAPE   C3617667   2.411   0.663   7.142  0.3591 -0.2711  0.2363
  158SAPE   H6X17668   2.350   0.573   7.164 -0.6242  0.2056 -0.4521
  158SAPE   H6Y17669   2.349   0.752   7.162  2.9446  1.4597  1.0548
  158SAPE   C3717670   2.535   0.666   7.234 -0.0240  0.7873  0.7584
  158SAPE   H7X17671   2.600   0.578   7.212  0.1490  1.3309 -1.0245
  158SAPE   H7Y17672   2.588   0.760   7.208 -1.1217  1.2262  0.0329
  158SAPE   C3817673   2.504   0.662   7.382 -0.7222 -0.5650  0.2845
  158SAPE   H8X17674   2.429   0.583   7.404 -0.0008 -0.8355  1.9360
  158SAPE   H8Y17675   2.463   0.758   7.420  0.5904 -0.3441  1.2048
  158SAPE   C3917676   2.622   0.623   7.470  0.3351 -0.2487  0.8435
  158SAPE   H9X17677   2.696   0.706   7.474  2.2466 -1.8638  0.6649
  158SAPE   H9Y17678   2.683   0.536   7.437  0.8321 -0.0338  1.1859
  158SAPE  C31017679   2.579   0.596   7.613  0.4631  0.2080  0.5255
  158SAPE  H10X17680   2.538   0.493   7.614 -1.6452  0.9966  1.2646
  158SAPE  H10Y17681   2.489   0.656   7.637 -1.6347 -1.5923 -2.1821
  158SAPE  C31117682   2.688   0.612   7.715  0.6842  0.3315 -0.1107
  158SAPE  H11X17683   2.751   0.697   7.684  0.5846  0.8382  1.0452
  158SAPE  H11Y17684   2.755   0.524   7.704 -0.4341 -0.6399  0.4995
  158SAPE  C31217685   2.623   0.616   7.859  0.1144  0.5001  0.1081
  158SAPE  H12X17686   2.551   0.532   7.858 -0.4829  1.0077 -0.9498
  158SAPE  H12Y17687   2.561   0.708   7.871  2.6684  2.2158  1.1513
  158SAPE  C31317688   2.713   0.616   7.982 -0.1674  0.0297 -0.3337
  158SAPE  H13X17689   2.772   0.707   8.005 -1.6056  0.6020  1.2782
  158SAPE  H13Y17690   2.774   0.526   7.959 -1.6722 -0.6929 -1.7219
  158SAPE  C31417691   2.634   0.594   8.112  0.0489  0.4031 -0.0367
  158SAPE  H14X17692   2.554   0.518   8.103 -0.7668  1.2072  0.2279
  158SAPE  H14Y17693   2.585   0.692   8.135  0.8024  0.9758 -0.7947
  158SAPE  C31517694   2.720   0.554   8.230  0.2358 -0.0078  0.0230
  158SAPE  H15X17695   2.782   0.643   8.257  0.1410  0.6942 -1.8995
  158SAPE  H15Y17696   2.782   0.464   8.213 -0.2914 -0.6116  1.2197
  158SAPE  C31617697   2.634   0.539   8.347  0.5876 -0.3515  0.2104
  158SAPE  H16X17698   2.554   0.466   8.321 -0.0209  0.0176  0.9700
  158SAPE  H16Y17699   2.578   0.634   8.361 -1.2731 -1.2943 -0.4686
  158SAPE  C31717700   2.703   0.500   8.476 -0.5200 -0.6899 -0.0995
  158SAPE  H17X17701   2.642   0.503   8.569 -1.1084  0.3095 -0.5010
  158SAPE  H17Y17702   2.787   0.574   8.484 -0.3929 -0.5367 -2.2335
  158SAPE  C31817703   2.771   0.361   8.470  0.5157  0.2918  0.4598
  158SAPE  H18X17704   2.711   0.291   8.409 -0.9755  3.8281 -2.4744
  158SAPE  H18Y17705   2.787   0.322   8.573 -1.6028  0.0359  0.7377
  158SAPE  H18Z17706   2.867   0.368   8.414  1.5740  0.8526  2.2625
  159SAPE     N17707   0.583   4.803   6.418  0.0302  0.5849 -0.4185
  159SAPE   HN117708   0.564   4.851   6.508  0.4096 -2.3393  1.3609
  159SAPE   HN217709   0.686   4.787   6.424  0.3351  2.8322  2.2318
  159SAPE   HN317710   0.568   4.867   6.337  2.6771  1.1131 -0.5852
  159SAPE   C1217711   0.510   4.673   6.419  0.9854 -0.1535  0.1670
  159SAPE  H12A17712   0.520   4.628   6.317  0.8495 -1.8645  0.8705
  159SAPE  H12B17713   0.403   4.696   6.434  0.9699  0.6407 -1.0468
  159SAPE   C1117714   0.557   4.589   6.537  0.2396 -0.3552  0.2979
  159SAPE  H11A17715   0.502   4.494   6.554 -0.4385  0.1789  1.1588
  159SAPE  H11B17716   0.540   4.639   6.634 -1.4390 -1.2928  0.5246
  159SAPE     P17717   0.746   4.454   6.436  0.2492 -0.4019  0.2759
  159SAPE   O1317718   0.641   4.425   6.333  0.0377 -0.6749 -0.2476
  159SAPE   O1417719   0.881   4.508   6.393  0.2584  0.1537 -0.1540
  159SAPE   O1217720   0.697   4.570   6.527 -0.4438 -0.0963 -0.4166
  159SAPE   O1117721   0.760   4.332   6.532  0.2277 -0.1446 -0.0390
  159SAPE    C117722   0.809   4.346   6.667 -0.2795 -0.3246 -0.3203
  159SAPE    HA17723   0.877   4.261   6.692 -0.2587  0.2886  1.9753
  159SAPE    HB17724   0.863   4.442   6.683  1.2764 -1.3216  0.7493
  159SAPE    C217725   0.679   4.346   6.758  0.6979  0.3881  0.1358
  159SAPE    HS17726   0.628   4.444   6.758  1.8521  1.0008  0.8485
  159SAPE   O2117727   0.706   4.308   6.894 -0.1587 -0.4203  0.6817
  159SAPE   C2117728   0.765   4.404   6.969 -0.0639 -0.1063  0.6389
  159SAPE   O2217729   0.798   4.515   6.929 -0.0792  1.3306  0.3621
  159SAPE   C2217730   0.764   4.365   7.114  0.3405 -0.5362  0.0515
  159SAPE   H2R17731   0.664   4.317   7.127 -0.5185  1.5738  1.9333
  159SAPE   H2S17732   0.844   4.292   7.139  0.8966  0.2989  0.7747
  159SAPE    C317733   0.571   4.241   6.704 -0.2759 -0.6666  0.4263
  159SAPE    HX17734   0.631   4.147   6.700 -0.9279 -1.3495  3.5023
  159SAPE    HY17735   0.518   4.267   6.610 -1.4149 -1.6131  0.7741
  159SAPE   O3117736   0.470   4.211   6.802 -0.5040  0.4746 -0.5186
  159SAPE   C3117737   0.360   4.278   6.805  0.6547  0.1406 -0.7431
  159SAPE   O3217738   0.317   4.358   6.723  0.5429  0.0645  0.4423
  159SAPE   C3217739   0.289   4.253   6.938 -0.0993 -0.0015  0.0901
  159SAPE   H2X17740   0.330   4.155   6.969  0.1673 -0.2619 -1.0227
  159SAPE   H2Y17741   0.179   4.236   6.933  0.1554 -1.4103 -2.4652
  159SAPE   C2317742   0.774   4.490   7.212  0.3835 -0.0366  0.2289
  159SAPE   H3R17743   0.697   4.564   7.182  0.4465 -0.3088 -0.6132
  159SAPE   H3S17744   0.875   4.537   7.203  0.6012 -0.7644 -1.5418
  159SAPE   C2417745   0.733   4.458   7.355 -0.3536 -0.1549  0.2707
  159SAPE   H4R17746   0.638   4.402   7.349 -0.5728  0.1192  1.0187
  159SAPE   H4S17747   0.721   4.540   7.430  1.3543 -1.2202  1.8054
  159SAPE   C2517748   0.827   4.356   7.408  0.0542  0.1023 -0.2713
  159SAPE   H5R17749   0.901   4.312   7.340 -0.2397 -1.2762  0.2712
  159SAPE   C2617750   0.853   4.329   7.537  0.5827  0.5750  0.4114
  159SAPE   H6R17751   0.919   4.245   7.564  1.1438  1.8467  3.3234
  159SAPE   C2717752   0.791   4.377   7.667 -0.1070  0.3931 -0.2020
  159SAPE   H7R17753   0.723   4.464   7.653 -1.5928 -0.9851 -2.2126
  159SAPE   H7S17754   0.874   4.422   7.726  0.9800  0.3964 -1.6791
  159SAPE   C2817755   0.719   4.261   7.737  0.2011 -0.3972 -0.1403
  159SAPE   H8R17756   0.638   4.232   7.668  0.2010  1.9289 -1.2315
  159SAPE   C2917757   0.741   4.193   7.849  0.2407 -0.6977  0.2929
  159SAPE   H9R17758   0.669   4.117   7.880  0.0237 -1.8801 -2.7578
  159SAPE  C21017759   0.862   4.214   7.942  0.4333  0.1892  0.0303
  159SAPE  H10R17760   0.948   4.195   7.874 -1.5989  0.5427 -2.8374
  159SAPE  H10S17761   0.865   4.129   8.014  0.2149 -0.4911 -0.7394
  159SAPE  C21117762   0.883   4.349   8.013 -0.8869 -0.1868 -0.1199
  159SAPE  H11R17763   0.842   4.429   7.950  0.2639  1.6925  1.3885
  159SAPE  C21217764   0.930   4.367   8.143  0.5538  0.1274  0.2992
  159SAPE  H12R17765   0.936   4.469   8.184  1.5393 -0.0648  0.6571
  159SAPE  C21317766   0.977   4.256   8.230 -0.0450  0.3231  0.7913
  159SAPE  H13R17767   0.899   4.179   8.253 -0.2153  0.4588  0.6708
  159SAPE  H13S17768   1.005   4.304   8.326  0.4794 -0.8892  1.2682
  159SAPE  C21417769   1.111   4.188   8.195  0.0823 -0.7377 -0.1638
  159SAPE  H14R17770   1.175   4.238   8.121  0.0982 -2.2941 -1.2431
  159SAPE  C21517771   1.150   4.077   8.247 -0.3550 -0.4575 -0.3815
  159SAPE  H15R17772   1.245   4.037   8.208  0.1598  0.4666 -0.1226
  159SAPE  C21617773   1.084   4.001   8.362 -0.4198  0.3808  0.5940
  159SAPE  H16R17774   0.991   3.948   8.332  0.3744 -0.3940 -0.5884
  159SAPE  H16S17775   1.050   4.060   8.450 -0.6503 -0.5782  1.1591
  159SAPE  C21717776   1.175   3.888   8.409 -0.7612  0.6097 -0.2843
  159SAPE  H17R17777   1.266   3.937   8.451 -0.4195 -0.2512  0.0062
  159SAPE  H17S17778   1.211   3.819   8.330 -0.5337  0.5684 -0.1463
  159SAPE  C21817779   1.110   3.800   8.524  0.2961 -0.1084 -0.8253
  159SAPE  H18R17780   1.009   3.770   8.489  0.6202  0.1345 -2.0087
  159SAPE  H18S17781   1.101   3.866   8.613  1.2042  0.6285 -1.2569
  159SAPE  C21917782   1.183   3.671   8.563  0.0693 -0.1012 -1.0666
  159SAPE  H19R17783   1.246   3.705   8.649  0.0797  1.5506 -1.6962
  159SAPE  H19S17784   1.253   3.648   8.479  0.7235 -1.9506 -0.0784
  159SAPE  C22017785   1.107   3.545   8.599  0.2590 -0.2529  0.0023
  159SAPE  H20R17786   1.168   3.488   8.672  0.1656  2.4094  2.3232
  159SAPE  H20S17787   1.081   3.492   8.505 -0.3767  1.3999 -0.8073
  159SAPE  H20T17788   1.009   3.580   8.639  0.3457 -0.2719  0.2331
  159SAPE   C3317789   0.323   4.367   7.037 -0.4152  0.3856  0.5294
  159SAPE   H3X17790   0.264   4.457   7.008 -1.3058 -0.3707 -0.0850
  159SAPE   H3Y17791   0.432   4.387   7.030 -0.7461  1.5848 -2.2088
  159SAPE   C3417792   0.285   4.330   7.180 -0.6640 -0.2288 -0.4581
  159SAPE   H4X17793   0.320   4.226   7.194 -2.6432 -0.9597 -0.6303
  159SAPE   H4Y17794   0.174   4.320   7.186 -0.5114 -1.2997  2.3596
  159SAPE   C3517795   0.325   4.425   7.291  0.1928  1.1332  0.0191
  159SAPE   H5X17796   0.272   4.521   7.280 -2.0121  0.3495  2.7735
  159SAPE   H5Y17797   0.435   4.443   7.298  0.5278 -0.4955 -0.4908
  159SAPE   C3617798   0.287   4.363   7.429 -0.1029 -0.3718 -0.9124
  159SAPE   H6X17799   0.289   4.253   7.416  0.0702 -0.5914  0.7214
  159SAPE   H6Y17800   0.180   4.385   7.450 -0.8223 -3.0473 -1.3550
  159SAPE   C3717801   0.380   4.398   7.548 -0.1965  0.4464  0.0995
  159SAPE   H7X17802   0.488   4.376   7.532 -0.2176 -0.0422  0.6048
  159SAPE   H7Y17803   0.361   4.335   7.637  0.3896  0.1559  0.0274
  159SAPE   C3817804   0.372   4.557   7.575 -1.2194 -0.1640 -0.6998
  159SAPE   H8X17805   0.267   4.586   7.597 -0.5468  0.8500  1.4916
  159SAPE   H8Y17806   0.410   4.614   7.488  2.7284  2.0991  2.1632
  159SAPE   C3917807   0.447   4.604   7.703  0.1964 -0.1792 -0.0303
  159SAPE   H9X17808   0.436   4.714   7.712  1.0047 -0.1004  0.0747
  159SAPE   H9Y17809   0.556   4.584   7.697 -0.0527 -1.4115 -0.7306
  159SAPE  C31017810   0.399   4.555   7.846 -0.0120  0.4227 -0.6124
  159SAPE  H10X17811   0.383   4.446   7.837 -2.0921  0.6960 -0.7400
  159SAPE  H10Y17812   0.303   4.606   7.871  0.7507  2.4480 -1.6309
  159SAPE  C31117813   0.503   4.579   7.953  0.5964 -0.5043  1.0798
  159SAPE  H11X17814   0.580   4.654   7.924 -1.0868  1.0397  0.4077
  159SAPE  H11Y17815   0.563   4.486   7.962  1.9173 -0.0444 -1.6714
  159SAPE  C31217816   0.450   4.634   8.084 -0.2228  0.0722  0.0228
  159SAPE  H12X17817   0.371   4.565   8.121 -1.1154  0.4893 -1.0571
  159SAPE  H12Y17818   0.410   4.732   8.054 -0.9295 -0.5847 -1.2394
  159SAPE  C31317819   0.551   4.649   8.196 -0.0989  0.6490  0.5604
  159SAPE  H13X17820   0.628   4.725   8.173  0.8395 -0.7726 -1.3084
  159SAPE  H13Y17821   0.612   4.556   8.200  0.6758  1.0730 -0.8554
  159SAPE  C31417822   0.475   4.688   8.325 -0.2346 -0.5390 -0.2028
  159SAPE  H14X17823   0.398   4.615   8.359 -1.4822  0.7113 -0.2557
  159SAPE  H14Y17824   0.411   4.771   8.290  0.7407 -0.0287 -0.8041
  159SAPE  C31517825   0.565   4.722   8.434  0.2088 -0.0562 -0.0447
  159SAPE  H15X17826   0.645   4.645   8.446  0.8417  0.9473  3.3166
  159SAPE  H15Y17827   0.513   4.719   8.532 -0.9848  0.7034 -0.6320
  159SAPE  C31617828   0.609   4.872   8.410 -0.9165 -1.0504 -0.6884
  159SAPE  H16X17829   0.521   4.937   8.389 -1.5783 -1.5430  0.4669
  159SAPE  H16Y17830   0.678   4.880   8.323 -0.6424  3.3716 -0.2614
  159SAPE  C31717831   0.681   4.928   8.536  0.2433 -0.0386 -0.0425
  159SAPE  H17X17832   0.782   4.883   8.549  0.3829 -0.0661 -1.1457
  159SAPE  H17Y17833   0.623   4.884   8.620  1.0505 -0.5103  0.2852
  159SAPE  C31817834   0.692   5.077   8.543  0.4543 -0.0861  0.3393
  159SAPE  H18X17835   0.591   5.124   8.545  0.6814  0.4469 -0.5643
  159SAPE  H18Y17836   0.758   5.108   8.460 -0.7916  1.3243 -0.1825
  159SAPE  H18Z17837   0.753   5.108   8.631  1.5986  1.7797 -1.0373
  160SAPE     N17838   1.670   1.891   6.278  0.3653 -0.1956 -0.6493
  160SAPE   HN117839   1.630   1.982   6.248  1.5974  0.5280 -0.1940
  160SAPE   HN217840   1.774   1.889   6.285  0.3155 -3.2032  0.9626
  160SAPE   HN317841   1.648   1.812   6.215  0.7188 -1.2266  0.4856
  160SAPE   C1217842   1.612   1.860   6.413  0.8760  0.5457 -0.4566
  160SAPE  H12A17843   1.629   1.953   6.471  1.0699  1.0218 -1.2539
  160SAPE  H12B17844   1.678   1.784   6.459 -2.1822 -0.7170  2.2198
  160SAPE   C1117845   1.471   1.792   6.397 -0.5326 -0.1596  0.8046
  160SAPE  H11A17846   1.400   1.862   6.350 -0.1718 -0.9758 -1.0372
  160SAPE  H11B17847   1.444   1.759   6.500  0.7567  0.0523  1.2363
  160SAPE     P17848   1.359   1.569   6.278  0.0646  0.1522 -0.2021
  160SAPE   O1317849   1.247   1.644   6.217  0.1363 -0.1121 -0.3804
  160SAPE   O1417850   1.422   1.463   6.192 -0.1309 -0.6604 -0.3831
  160SAPE   O1217851   1.480   1.669   6.314 -0.1246  0.1746  0.9219
  160SAPE   O1117852   1.323   1.523   6.422  1.0314 -0.2764  0.5670
  160SAPE    C117853   1.391   1.415   6.488 -0.1311 -0.2188 -0.7463
  160SAPE    HA17854   1.500   1.425   6.475  0.1750 -0.8189  1.1118
  160SAPE    HB17855   1.377   1.398   6.597 -0.0532 -3.0390 -1.0947
  160SAPE    C217856   1.351   1.269   6.441  0.4324 -0.1198  0.3582
  160SAPE    HS17857   1.354   1.262   6.330 -2.9665 -1.5220  0.2549
  160SAPE   O2117858   1.213   1.248   6.480  0.2135 -0.4163  0.3949
  160SAPE   C2117859   1.114   1.274   6.391 -0.1745  0.5697  0.0485
  160SAPE   O2217860   1.132   1.295   6.275  0.0321  0.0811  0.4678
  160SAPE   C2217861   0.972   1.279   6.453  0.3508  0.2479  0.3477
  160SAPE   H2R17862   0.935   1.175   6.469 -1.9687  1.1136  0.9509
  160SAPE   H2S17863   0.976   1.311   6.559  0.2306 -1.2803  0.8515
  160SAPE    C317864   1.445   1.160   6.499 -0.0119  0.0317 -0.4910
  160SAPE    HX17865   1.541   1.161   6.443 -0.4237  1.9735 -1.2301
  160SAPE    HY17866   1.410   1.059   6.469 -1.2357 -0.0617  1.1143
  160SAPE   O3117867   1.468   1.169   6.642  0.1595  0.1360  0.1016
  160SAPE   C3117868   1.593   1.168   6.686  0.3782  0.6231  0.3685
  160SAPE   O3217869   1.693   1.172   6.616 -0.0925 -0.1873 -0.3827
  160SAPE   C3217870   1.601   1.165   6.838  0.7012  0.0587  0.7108
  160SAPE   H2X17871   1.519   1.101   6.877  1.3871 -0.5714  1.1463
  160SAPE   H2Y17872   1.580   1.265   6.882 -0.4291  0.4687 -0.6979
  160SAPE   C2317873   0.866   1.361   6.374 -0.0372  0.3029 -0.2488
  160SAPE   H3R17874   0.876   1.330   6.268  2.0192 -3.3565  0.8122
  160SAPE   H3S17875   0.888   1.463   6.410  0.8211  0.7295 -1.9310
  160SAPE   C2417876   0.728   1.325   6.424 -0.0148  0.3763  0.2483
  160SAPE   H4R17877   0.736   1.340   6.534 -0.7610 -1.7728  0.6357
  160SAPE   H4S17878   0.704   1.217   6.417 -2.8213  0.6634  2.9663
  160SAPE   C2517879   0.615   1.403   6.368 -0.2451  0.5195  0.0540
  160SAPE   H5R17880   0.578   1.373   6.268 -0.4338  0.1103  0.2423
  160SAPE   C2617881   0.555   1.506   6.432  0.0887 -0.2058  0.8148
  160SAPE   H6R17882   0.470   1.552   6.379 -0.3009 -0.5730  1.1136
  160SAPE   C2717883   0.588   1.564   6.570  0.3042  0.1583 -0.3682
  160SAPE   H7R17884   0.521   1.653   6.569  0.0637 -0.0171 -1.8318
  160SAPE   H7S17885   0.693   1.601   6.576  0.2898  0.0100  1.2360
  160SAPE   C2817886   0.564   1.479   6.695  0.0777  0.1060 -0.1003
  160SAPE   H8R17887   0.600   1.376   6.682 -0.8496 -0.5095  1.8250
  160SAPE   C2917888   0.511   1.513   6.813 -0.0918  0.0919  0.0923
  160SAPE   H9R17889   0.512   1.447   6.901  0.7338 -1.1174 -0.7856
  160SAPE  C21017890   0.445   1.647   6.851 -0.0224  0.1409 -0.5459
  160SAPE  H10R17891   0.375   1.625   6.935  2.9654  0.7258  2.2762
  160SAPE  H10S17892   0.382   1.692   6.770 -1.1156 -0.5221 -0.0915
  160SAPE  C21117893   0.547   1.745   6.898  0.6219 -0.5094 -0.7852
  160SAPE  H11R17894   0.594   1.797   6.814 -0.0077  2.1747  0.4420
  160SAPE  C21217895   0.586   1.768   7.024  0.1401 -0.3605  0.0073
  160SAPE  H12R17896   0.668   1.840   7.037 -0.4072  0.4109 -0.7069
  160SAPE  C21317897   0.535   1.700   7.148 -0.3253 -0.2117 -0.7163
  160SAPE  H13R17898   0.535   1.589   7.140 -1.5789 -0.3511  0.7622
  160SAPE  H13S17899   0.429   1.730   7.168 -0.8096  0.2965 -3.5935
  160SAPE  C21417900   0.613   1.735   7.274  0.8062 -0.4397  1.4853
  160SAPE  H14R17901   0.573   1.826   7.322  0.8410  0.0939  0.5278
  160SAPE  C21517902   0.705   1.659   7.338 -0.2409 -0.2602  0.1760
  160SAPE  H15R17903   0.749   1.703   7.429 -1.2860 -2.2021  1.6988
  160SAPE  C21617904   0.756   1.521   7.293  0.1736 -0.8596 -0.1133
  160SAPE  H16R17905   0.677   1.466   7.237 -0.7459 -0.9334  1.2102
  160SAPE  H16S17906   0.777   1.460   7.383 -0.7186  0.8647  1.3291
  160SAPE  C21717907   0.881   1.532   7.208 -0.9269 -0.0946  0.4660
  160SAPE  H17R17908   0.863   1.595   7.118 -1.6927  1.4439  1.6641
  160SAPE  H17S17909   0.907   1.429   7.173  0.0190  0.1630  0.3736
  160SAPE  C21817910   1.005   1.598   7.273  0.0531 -0.0195 -0.3404
  160SAPE  H18R17911   0.980   1.697   7.317 -2.5897 -0.1084 -1.4414
  160SAPE  H18S17912   1.073   1.609   7.187 -1.6559  0.0767 -1.7343
  160SAPE  C21917913   1.076   1.503   7.383 -0.1370 -0.5677  0.0781
  160SAPE  H19R17914   1.092   1.403   7.339  0.3110  0.4692 -2.2838
  160SAPE  H19S17915   1.011   1.493   7.472 -1.5496 -2.7647 -1.1162
  160SAPE  C22017916   1.208   1.565   7.431 -0.1008 -0.8177 -0.6300
  160SAPE  H20R17917   1.257   1.482   7.487  2.2067  1.5520  1.1318
  160SAPE  H20S17918   1.208   1.650   7.503  2.4736 -1.0427 -0.2591
  160SAPE  H20T17919   1.285   1.593   7.356 -0.4442  0.2255 -0.6005
  160SAPE   C3317920   1.743   1.137   6.889  0.1130  0.2459  0.7850
  160SAPE   H3X17921   1.810   1.211   6.842 -0.8028 -0.1021 -1.1637
  160SAPE   H3Y17922   1.769   1.033   6.862 -1.3936  0.0451 -0.0234
  160SAPE   C3417923   1.763   1.167   7.039 -0.0888  0.5306 -0.0004
  160SAPE   H4X17924   1.696   1.093   7.087  0.6750 -1.6564 -2.0875
  160SAPE   H4Y17925   1.729   1.271   7.055  0.4481  0.3313  2.9372
  160SAPE   C3517926   1.912   1.148   7.085 -0.3263  0.0367  0.3696
  160SAPE   H5X17927   1.966   1.244   7.069 -1.1133  0.7445  1.8122
  160SAPE   H5Y17928   1.961   1.080   7.012 -0.0546  1.1737 -0.5366
  160SAPE   C3617929   1.925   1.112   7.230  0.0593  0.3390  1.3274
  160SAPE   H6X17930   2.029   1.078   7.250  1.2234  2.7174 -0.2455
  160SAPE   H6Y17931   1.861   1.027   7.262 -0.0344  0.7839  2.3582
  160SAPE   C3717932   1.899   1.232   7.329 -0.0695  0.4095  0.9990
  160SAPE   H7X17933   1.807   1.287   7.299  0.0201 -0.3651 -0.8848
  160SAPE   H7Y17934   1.980   1.308   7.323 -2.0437  2.5184 -2.1775
  160SAPE   C3817935   1.885   1.196   7.478  0.2108 -0.2872 -0.5886
  160SAPE   H8X17936   1.986   1.158   7.504 -0.4157 -0.8648  1.2182
  160SAPE   H8Y17937   1.816   1.112   7.502  2.6105 -2.1271  0.1836
  160SAPE   C3917938   1.858   1.307   7.579 -0.5439 -0.4965 -0.3857
  160SAPE   H9X17939   1.753   1.342   7.588 -0.4309  0.1872 -1.5011
  160SAPE   H9Y17940   1.927   1.388   7.546  0.4174 -1.3468 -0.5090
  160SAPE  C31017941   1.884   1.277   7.724 -0.0540 -0.0722  0.3310
  160SAPE  H10X17942   1.889   1.381   7.762  2.3564  0.2759 -0.7141
  160SAPE  H10Y17943   1.991   1.253   7.741  0.9209  2.5080 -1.4349
  160SAPE  C31117944   1.796   1.178   7.797 -0.0031 -0.0168 -0.1907
  160SAPE  H11X17945   1.784   1.080   7.746 -0.9313  0.7684 -1.5347
  160SAPE  H11Y17946   1.693   1.220   7.799  0.3101  0.7925 -0.6195
  160SAPE  C31217947   1.843   1.152   7.939 -0.6067 -0.4963  0.2939
  160SAPE  H12X17948   1.841   1.236   8.011  1.8217 -0.1240  0.0218
  160SAPE  H12Y17949   1.952   1.128   7.935 -0.5953 -0.5496  0.8356
  160SAPE  C31317950   1.767   1.036   8.007  0.4598 -0.2300 -0.0598
  160SAPE  H13X17951   1.667   1.026   7.960 -0.0645 -1.0511  1.1807
  160SAPE  H13Y17952   1.735   1.067   8.108 -0.0951  0.9331 -0.5690
  160SAPE  C31417953   1.832   0.902   8.011 -0.0553  0.4269  0.0920
  160SAPE  H14X17954   1.940   0.910   8.038  0.2204 -2.1517 -0.0266
  160SAPE  H14Y17955   1.819   0.848   7.915 -2.4339 -0.2049  0.7023
  160SAPE  C31517956   1.761   0.813   8.124  0.5474 -0.1651 -0.1113
  160SAPE  H15X17957   1.652   0.795   8.111  0.1106  0.4071  2.2147
  160SAPE  H15Y17958   1.774   0.871   8.218 -3.0600  2.1825 -0.8500
  160SAPE  C31617959   1.818   0.670   8.126 -0.3903  0.2695  0.2012
  160SAPE  H16X17960   1.924   0.668   8.159  0.2090 -0.5521 -1.6613
  160SAPE  H16Y17961   1.813   0.637   8.020 -0.1054 -1.0588  0.5819
  160SAPE  C31717962   1.738   0.570   8.209  0.3052 -0.0849 -0.3973
  160SAPE  H17X17963   1.633   0.604   8.199  0.4434  0.1083 -1.2601
  160SAPE  H17Y17964   1.759   0.571   8.319  1.5364  2.0833 -0.5793
  160SAPE  C31817965   1.749   0.420   8.165  0.3390  0.0200 -0.1028
  160SAPE  H18X17966   1.710   0.410   8.062  3.5288 -0.4668 -1.3733
  160SAPE  H18Y17967   1.695   0.355   8.237  0.9435  0.6763  0.9658
  160SAPE  H18Z17968   1.858   0.403   8.175  0.5181  0.2816 -1.4046
  161SOPE     N17969   5.545   5.624  10.592 -0.1130 -0.0919 -0.0531
  161SOPE   HN117970   5.635   5.602  10.639 -0.4043  1.0759  1.1156
  161SOPE   HN217971   5.526   5.558  10.514  1.9785 -1.3076  0.3746
  161SOPE   HN317972   5.556   5.715  10.543 -2.1350 -0.1162 -0.6164
  161SOPE   C1217973   5.436   5.629  10.697  0.0742 -0.2514  0.2747
  161SOPE  H12A17974   5.443   5.723  10.755  1.1645  0.7542 -1.4264
  161SOPE  H12B17975   5.470   5.552  10.769  1.2661 -1.4104 -1.4428
  161SOPE   C1117976   5.299   5.581  10.639 -0.1834  0.4353 -0.4861
  161SOPE  H11A17977   5.230   5.555  10.722  1.0320  1.4099  0.8833
  161SOPE  H11B17978   5.319   5.484  10.590 -2.4069 -0.7172  0.7517
  161SOPE     P17979   5.174   5.810  10.614  0.3963 -0.1532 -0.2278
  161SOPE   O1317980   5.232   5.846  10.742 -0.1793  0.0928  0.3400
  161SOPE   O1417981   5.031   5.777  10.620 -0.5655  0.4524 -0.4387
  161SOPE   O1217982   5.249   5.681  10.556  0.1432 -0.6439  0.3902
  161SOPE   O1117983   5.207   5.926  10.511  0.0390  0.2901 -0.4988
  161SOPE    C117984   5.197   5.903  10.374 -0.8821  0.1165  1.0441
  161SOPE    HA17985   5.093   5.910  10.336 -1.0348 -3.4629  0.4788
  161SOPE    HB17986   5.249   5.808  10.346 -1.3568 -0.1625  1.1027
  161SOPE    C217987   5.275   6.007  10.285  0.0330 -0.3373  0.3500
  161SOPE    HS17988   5.222   6.101  10.308  1.2112  0.1600  1.1208
  161SOPE   O2117989   5.275   5.973  10.148 -0.1520 -0.5718  0.1280
  161SOPE   C2117990   5.269   6.068  10.058 -0.1482  0.8669  0.4951
  161SOPE   O2217991   5.270   6.188  10.082  0.4521 -0.0573  0.0860
  161SOPE   C2217992   5.257   6.001   9.916 -0.6710  0.4234 -0.0177
  161SOPE   H2R17993   5.152   5.965   9.916 -0.6887  0.4175  1.6774
  161SOPE   H2S17994   5.330   5.918   9.910 -0.2371  0.7523  0.5579
  161SOPE    C317995   5.429   6.015  10.333 -0.1316  0.9727 -0.7346
  161SOPE    HX17996   5.457   5.908  10.330 -0.7515  0.8287 -1.8669
  161SOPE    HY17997   5.433   6.043  10.440  2.8233 -2.5393  0.2530
  161SOPE   O3117998   5.512   6.075  10.237  0.7998 -0.1014  0.2622
  161SOPE   C3117999   5.588   6.178  10.287  0.1462  0.5578  0.5837
  161SOPE   O3218000   5.598   6.216  10.401 -0.4497  0.0303  0.8567
  161SOPE   C3218001   5.688   6.216  10.180 -0.2706 -0.7349 -0.4356
  161SOPE   H2X18002   5.782   6.160  10.195  0.0957 -0.1814 -0.6615
  161SOPE   H2Y18003   5.702   6.326  10.187  3.9727 -1.1395 -0.2345
  161SOPE   C2318004   5.278   6.110   9.806 -0.2988 -0.2361  0.4422
  161SOPE   H3R18005   5.381   6.150   9.821 -1.5897  2.9000  1.7721
  161SOPE   H3S18006   5.213   6.198   9.819 -0.1251 -0.1108  0.4673
  161SOPE   C2418007   5.258   6.071   9.657 -0.0933 -0.0256  0.5511
  161SOPE   H4R18008   5.331   5.993   9.626 -0.2088 -0.7570  2.0384
  161SOPE   H4S18009   5.158   6.026   9.643 -0.5237  0.8653  0.6770
  161SOPE   C2518010   5.301   6.175   9.558  0.4914 -0.3116 -0.3175
  161SOPE   H5R18011   5.246   6.265   9.593  0.9771 -0.7253  1.6719
  161SOPE   H5S18012   5.409   6.200   9.566  0.1235  2.2413 -2.1084
  161SOPE   C2618013   5.269   6.144   9.408  0.6388  0.9028  0.7239
  161SOPE   H6R18014   5.263   6.033   9.403  0.7574  0.8950  0.7468
  161SOPE   H6S18015   5.164   6.175   9.389  0.1937 -1.7675 -1.9082
  161SOPE   C2718016   5.369   6.200   9.309  0.7162  0.0403 -0.1159
  161SOPE   H7R18017   5.367   6.311   9.317  1.5654 -0.0630  1.9973
  161SOPE   H7S18018   5.473   6.172   9.336  0.2908 -3.5719 -1.6578
  161SOPE   C2818019   5.359   6.152   9.156 -0.5089  0.3081  0.2459
  161SOPE   H8R18020   5.428   6.211   9.092  0.3007  1.6809  2.2728
  161SOPE   H8S18021   5.391   6.046   9.158 -0.1029  0.2820 -2.9491
  161SOPE   C2918022   5.222   6.178   9.099 -0.1994  0.5585 -0.4421
  161SOPE   H9118023   5.143   6.156   9.171  0.0521  1.8719  0.2666
  161SOPE  C21018024   5.193   6.229   8.977 -0.0489  0.5256  0.4005
  161SOPE  H10118025   5.088   6.251   8.953  1.1231  3.8201 -2.3432
  161SOPE  C21118026   5.280   6.259   8.860 -0.1456  0.1811 -0.2093
  161SOPE  H11R18027   5.388   6.271   8.884 -0.4139  0.1244  1.0997
  161SOPE  H11S18028   5.246   6.361   8.832 -4.6063 -1.1778 -0.5331
  161SOPE  C21218029   5.260   6.165   8.731 -0.1337  1.0126 -0.5875
  161SOPE  H12R18030   5.225   6.073   8.783  0.9099  1.5876  1.2180
  161SOPE  H12S18031   5.354   6.149   8.673 -1.1260 -0.8894 -1.7778
  161SOPE  C21318032   5.165   6.199   8.621 -0.2627 -0.8581  0.3530
  161SOPE  H13R18033   5.065   6.212   8.669  0.1348 -1.4292  1.3664
  161SOPE  H13S18034   5.158   6.108   8.558 -1.1225 -1.2262  0.9486
  161SOPE  C21418035   5.209   6.330   8.549  0.5287  0.3690  0.1177
  161SOPE  H14R18036   5.318   6.332   8.528  0.9113  0.9663  1.9748
  161SOPE  H14S18037   5.194   6.409   8.626  0.9289 -1.9906  2.7416
  161SOPE  C21518038   5.124   6.345   8.416  0.1532 -0.0967  0.2227
  161SOPE  H15R18039   5.015   6.355   8.435  0.2168  2.4175 -0.4990
  161SOPE  H15S18040   5.142   6.250   8.361 -1.9114 -0.1238 -0.4631
  161SOPE  C21618041   5.158   6.462   8.323 -0.1061  0.0514  0.0585
  161SOPE  H16R18042   5.259   6.438   8.281  0.1020  0.2596  0.4382
  161SOPE  H16S18043   5.165   6.553   8.385  1.8070  0.6355 -0.9365
  161SOPE  C21718044   5.063   6.496   8.214  0.0521  0.4920 -0.1521
  161SOPE  H17R18045   4.960   6.475   8.248  0.5153 -1.2790  0.2810
  161SOPE  H17S18046   5.083   6.424   8.132 -0.4655 -0.4918  0.5581
  161SOPE  C21818047   5.075   6.636   8.167 -0.2460 -0.9667  0.1636
  161SOPE  H18R18048   5.028   6.642   8.067  0.6780 -1.1912 -0.2979
  161SOPE  H18S18049   5.182   6.665   8.151 -0.5103 -0.5880 -1.0510
  161SOPE  H18T18050   5.022   6.703   8.238 -1.4657 -0.6431 -1.0149
  161SOPE   C3318051   5.638   6.197  10.032 -0.3392 -0.2893 -0.1845
  161SOPE   H3X18052   5.540   6.249  10.024 -0.9190 -1.4885 -1.0379
  161SOPE   H3Y18053   5.617   6.090  10.013  2.2350 -0.6465 -1.3866
  161SOPE   C3418054   5.736   6.258   9.936  1.0382  0.0106  0.7327
  161SOPE   H4X18055   5.840   6.227   9.959  1.0599 -1.5633 -1.2243
  161SOPE   H4Y18056   5.734   6.366   9.960 -0.2325  0.1884 -0.0777
  161SOPE   C3518057   5.689   6.223   9.787  0.5894 -0.1872 -0.8967
  161SOPE   H5X18058   5.610   6.295   9.755 -0.7491 -1.5063 -0.7034
  161SOPE   H5Y18059   5.647   6.120   9.793 -0.6332  0.3592  1.0151
  161SOPE   C3618060   5.796   6.222   9.679 -0.2718 -0.3668 -0.0849
  161SOPE   H6X18061   5.835   6.119   9.691 -0.8715 -0.4569  1.2638
  161SOPE   H6Y18062   5.872   6.302   9.687 -1.6140  0.9137  0.1693
  161SOPE   C3718063   5.726   6.235   9.540  0.3779 -0.3194 -0.7770
  161SOPE   H7X18064   5.681   6.335   9.521 -2.2117 -1.2621 -0.0730
  161SOPE   H7Y18065   5.635   6.171   9.539  0.8355 -0.9649 -1.5334
  161SOPE   C3818066   5.824   6.223   9.425  0.3416  0.2787  0.7215
  161SOPE   H8X18067   5.843   6.114   9.419  0.6082  0.3999 -1.2489
  161SOPE   H8Y18068   5.917   6.277   9.451 -0.6412  2.2707  0.2776
  161SOPE   C3918069   5.779   6.280   9.287  0.6185  0.3460 -0.0950
  161SOPE   H9X18070   5.737   6.382   9.305 -0.7384 -0.3875  1.0828
  161SOPE   H9Y18071   5.685   6.224   9.268  0.9291 -0.3456  0.3834
  161SOPE  C31018072   5.868   6.251   9.169 -0.3097 -0.5477  0.2068
  161SOPE  H10X18073   5.868   6.141   9.152 -0.9077 -0.5749  0.3635
  161SOPE  H10Y18074   5.971   6.288   9.193 -1.1407  1.8095  0.4499
  161SOPE  C31118075   5.822   6.323   9.039  0.1906 -0.2250 -0.8651
  161SOPE  H11X18076   5.908   6.334   8.970 -0.1876  0.1372 -1.2918
  161SOPE  H11Y18077   5.793   6.430   9.053 -2.6160 -0.9954 -0.1649
  161SOPE  C31218078   5.710   6.251   8.963  0.3888  0.5977 -0.1337
  161SOPE  H12X18079   5.616   6.259   9.022 -0.6572  2.5620 -1.9389
  161SOPE  H12Y18080   5.748   6.148   8.948  2.1943  1.2341 -0.2105
  161SOPE  C31318081   5.672   6.295   8.821 -0.3636 -0.6333  0.4478
  161SOPE  H13X18082   5.589   6.230   8.787 -1.2281  0.5725  0.2071
  161SOPE  H13Y18083   5.752   6.275   8.746 -0.0960 -1.0098  0.8261
  161SOPE  C31418084   5.649   6.450   8.808  0.2196  0.4166  0.4206
  161SOPE  H14X18085   5.722   6.509   8.867  0.2389  0.8871 -0.0644
  161SOPE  H14Y18086   5.548   6.469   8.852  0.1306  1.5664 -0.2507
  161SOPE  C31518087   5.629   6.504   8.666  0.1731  0.0128 -0.0594
  161SOPE  H15X18088   5.561   6.437   8.610 -0.8156  0.0505  1.0481
  161SOPE  H15Y18089   5.727   6.506   8.614  0.6262 -1.1068  0.6878
  161SOPE  C31618090   5.576   6.649   8.662 -0.2539 -0.0832  0.7102
  161SOPE  H16X18091   5.653   6.713   8.711 -0.8426  1.4401 -0.2760
  161SOPE  H16Y18092   5.480   6.649   8.719 -0.4802  0.6833  0.3480
  161SOPE  C31718093   5.547   6.691   8.516  0.7947  0.2843  0.2552
  161SOPE  H17X18094   5.646   6.690   8.464  0.8465 -0.5407  0.3543
  161SOPE  H17Y18095   5.519   6.798   8.511  0.5281  0.2072  0.0563
  161SOPE  C31818096   5.442   6.595   8.441 -0.3518 -0.4564 -0.0196
  161SOPE  H18X18097   5.416   6.636   8.340 -0.5946 -0.8833 -0.1331
  161SOPE  H18Y18098   5.344   6.598   8.494 -1.3062  0.4459 -1.7180
  161SOPE  H18Z18099   5.480   6.492   8.429  4.3863  0.8158  2.0241
  162SOPE     N18100   5.901   6.467  11.009 -0.3183 -0.5225  0.6791
  162SOPE   HN118101   5.814   6.467  11.066 -2.3900 -5.3204 -1.8456
  162SOPE   HN218102   5.959   6.385  11.036 -1.0967 -1.7050 -1.1119
  162SOPE   HN318103   5.959   6.547  11.043  0.1621 -0.5638 -0.0140
  162SOPE   C1218104   5.857   6.463  10.868  0.1933  0.7070 -0.3137
  162SOPE  H12A18105   5.759   6.514  10.855 -0.2186 -0.6165 -3.1616
  162SOPE  H12B18106   5.838   6.356  10.844  2.6523  0.5341 -1.8229
  162SOPE   C1118107   5.974   6.519  10.780 -0.0310 -0.1023 -0.2711
  162SOPE  H11A18108   5.942   6.504  10.675  0.0802  0.2409 -0.3558
  162SOPE  H11B18109   6.069   6.462  10.790  0.1694  0.3047  0.1901
  162SOPE     P18110   5.907   6.783  10.808 -0.5037 -0.0203 -0.6406
  162SOPE   O1318111   5.985   6.910  10.834 -0.5659  0.5393 -0.0551
  162SOPE   O1418112   5.798   6.756  10.906  0.0927  0.1314  0.4622
  162SOPE   O1218113   6.006   6.656  10.807 -0.1974 -0.3629 -0.3975
  162SOPE   O1118114   5.852   6.788  10.659  0.7936 -0.2226 -0.2514
  162SOPE    C118115   5.756   6.690  10.610  0.3363 -0.6851  0.1524
  162SOPE    HA18116   5.690   6.651  10.692  0.0845 -1.6206 -0.4752
  162SOPE    HB18117   5.802   6.598  10.569 -1.2991 -1.1335 -0.7868
  162SOPE    C218118   5.646   6.761  10.517 -0.0562  0.5055  0.2089
  162SOPE    HS18119   5.570   6.683  10.498 -0.6616  0.8492  1.1174
  162SOPE   O2118120   5.711   6.809  10.398  0.4300 -0.8283  0.7467
  162SOPE   C2118121   5.757   6.714  10.314  0.3543 -0.0899 -0.7037
  162SOPE   O2218122   5.740   6.597  10.332 -0.7186  0.1753 -0.0491
  162SOPE   C2218123   5.816   6.779  10.189  0.8379  0.1365 -0.1959
  162SOPE   H2R18124   5.917   6.824  10.199  0.5921  1.4429 -2.8797
  162SOPE   H2S18125   5.737   6.854  10.168  0.5347 -0.1278 -0.0087
  162SOPE    C318126   5.567   6.884  10.584  0.0885  0.3354 -1.0273
  162SOPE    HX18127   5.648   6.957  10.606 -0.0751  0.2009  0.0771
  162SOPE    HY18128   5.535   6.831  10.676  3.7997 -0.9514 -0.3087
  162SOPE   O3118129   5.462   6.939  10.502  0.2589  0.5060  0.1416
  162SOPE   C3118130   5.492   7.048  10.431 -0.1921 -0.5439  0.6412
  162SOPE   O3218131   5.600   7.105  10.443 -0.2990  0.6086 -0.3339
  162SOPE   C3218132   5.369   7.087  10.355 -0.5810 -0.1087  0.0837
  162SOPE   H2X18133   5.372   7.190  10.313 -1.1945 -0.3189 -0.4982
  162SOPE   H2Y18134   5.281   7.086  10.423  0.2898 -0.5532  1.2312
  162SOPE   C2318135   5.812   6.666  10.080 -0.0671 -0.1270  0.2746
  162SOPE   H3R18136   5.716   6.612  10.080  0.1216 -0.4737  1.0464
  162SOPE   H3S18137   5.896   6.599  10.107  1.9576  2.2002  0.2048
  162SOPE   C2418138   5.827   6.723   9.936 -0.6338 -0.3603  0.2074
  162SOPE   H4R18139   5.746   6.800   9.933  0.2171  0.7555  2.8780
  162SOPE   H4S18140   5.923   6.776   9.924  0.6875 -2.5129  0.7303
  162SOPE   C2518141   5.811   6.622   9.820 -0.3224  0.7043 -0.6709
  162SOPE   H5R18142   5.891   6.546   9.835 -0.3978  1.0498  2.2152
  162SOPE   H5S18143   5.712   6.574   9.827 -0.2814  0.6818 -0.1940
  162SOPE   C2618144   5.831   6.698   9.682  0.0279 -0.4059 -0.1940
  162SOPE   H6R18145   5.753   6.777   9.682 -0.0150 -0.4017  1.7920
  162SOPE   H6S18146   5.926   6.755   9.689 -0.4430  0.1889  2.6246
  162SOPE   C2718147   5.817   6.596   9.566 -0.1384  0.1237  0.0237
  162SOPE   H7R18148   5.882   6.508   9.585 -1.3156 -0.9135 -0.6406
  162SOPE   H7S18149   5.716   6.551   9.570 -1.1679  2.2549 -0.3849
  162SOPE   C2818150   5.866   6.655   9.433  0.3709 -0.1919 -0.2080
  162SOPE   H8R18151   5.945   6.730   9.457 -0.3155  0.5600 -0.2339
  162SOPE   H8S18152   5.913   6.578   9.368  0.2492  0.9339 -1.7030
  162SOPE   C2918153   5.747   6.726   9.368 -0.4448 -0.0396  0.1333
  162SOPE   H9118154   5.658   6.730   9.432 -0.3043  1.2661  0.2614
  162SOPE  C21018155   5.746   6.775   9.242  0.5667  0.3269 -0.4785
  162SOPE  H10118156   5.651   6.818   9.206  0.3310  1.4094  1.3022
  162SOPE  C21118157   5.862   6.759   9.146  0.4824  0.0742  0.4682
  162SOPE  H11R18158   5.859   6.659   9.098  2.0464 -0.1560  0.8103
  162SOPE  H11S18159   5.960   6.771   9.195  0.3115 -0.1417  0.8697
  162SOPE  C21218160   5.850   6.873   9.041 -0.5364 -0.1793  0.4227
  162SOPE  H12R18161   5.948   6.889   8.991 -0.3256 -0.9887  0.5638
  162SOPE  H12S18162   5.841   6.964   9.105 -2.1517  0.1026 -0.1604
  162SOPE  C21318163   5.741   6.853   8.935  0.0031 -0.3354  0.2281
  162SOPE  H13R18164   5.638   6.863   8.976  0.2223  1.4993  0.3909
  162SOPE  H13S18165   5.764   6.751   8.897  1.1929 -0.2061  0.5581
  162SOPE  C21418166   5.747   6.959   8.811 -0.0144  0.5533  0.1728
  162SOPE  H14R18167   5.721   7.057   8.856  2.6571  1.2337  0.3781
  162SOPE  H14S18168   5.665   6.936   8.739 -0.0085 -1.0332  0.6381
  162SOPE  C21518169   5.880   6.974   8.732 -0.5805  0.4894  0.6687
  162SOPE  H15R18170   5.847   6.994   8.628 -0.9277  0.1771  0.7167
  162SOPE  H15S18171   5.936   6.879   8.737  1.4387  1.5599 -0.3873
  162SOPE  C21618172   5.971   7.088   8.782  0.0268 -1.4913  0.5447
  162SOPE  H16R18173   6.042   7.054   8.860  2.3284 -0.9616 -1.2221
  162SOPE  H16S18174   5.907   7.174   8.813 -0.5264 -0.5199 -2.8729
  162SOPE  C21718175   6.065   7.144   8.677 -0.1901  0.1516  0.7046
  162SOPE  H17R18176   6.122   7.218   8.738 -1.9231  0.5109  1.9843
  162SOPE  H17S18177   6.012   7.197   8.595 -0.7323 -2.8444 -1.0299
  162SOPE  C21818178   6.154   7.033   8.611  0.5133  0.3961 -0.1281
  162SOPE  H18R18179   6.202   6.968   8.688  0.7530  0.8814  0.1317
  162SOPE  H18S18180   6.237   7.067   8.546 -0.1343  0.5273 -0.8926
  162SOPE  H18T18181   6.082   6.975   8.550  1.9030  0.7532 -2.1952
  162SOPE   C3318182   5.318   6.995  10.240 -0.2280  0.6387  0.2804
  162SOPE   H3X18183   5.215   7.035  10.232 -0.0192  1.5783  1.8358
  162SOPE   H3Y18184   5.299   6.891  10.275 -0.7032  0.7026  0.2170
  162SOPE   C3418185   5.397   6.995  10.107  0.2020 -0.4701  0.1465
  162SOPE   H4X18186   5.491   6.935  10.108 -0.3773 -1.4192  1.9542
  162SOPE   H4Y18187   5.439   7.098  10.105 -1.0864  0.0637  0.0698
  162SOPE   C3518188   5.312   6.965   9.980  0.4737 -0.1475  1.2125
  162SOPE   H5X18189   5.216   7.018   9.997 -0.9747 -2.3919  0.4038
  162SOPE   H5Y18190   5.293   6.856   9.983  0.6465 -0.1582  2.2110
  162SOPE   C3618191   5.380   7.013   9.850  0.1965 -0.5697  0.2862
  162SOPE   H6X18192   5.466   6.950   9.821 -1.0921 -0.9898 -3.0957
  162SOPE   H6Y18193   5.407   7.121   9.855 -2.4822  0.2227 -0.3867
  162SOPE   C3718194   5.281   6.998   9.738 -0.1734 -0.0450  0.0128
  162SOPE   H7X18195   5.202   7.072   9.762 -0.2296  0.7063 -2.3101
  162SOPE   H7Y18196   5.224   6.904   9.723 -0.4603  0.3370 -1.4270
  162SOPE   C3818197   5.339   7.036   9.604  0.1257 -0.0209 -0.2236
  162SOPE   H8X18198   5.424   6.969   9.580 -1.1286 -1.4401 -0.9289
  162SOPE   H8Y18199   5.381   7.137   9.624 -0.4568 -0.1429  1.8490
  162SOPE   C3918200   5.249   7.027   9.483  0.5627 -0.1398  0.0109
  162SOPE   H9X18201   5.165   7.098   9.500 -0.2381 -0.9731 -0.4051
  162SOPE   H9Y18202   5.217   6.923   9.461 -0.0587  0.5336 -2.6529
  162SOPE  C31018203   5.317   7.068   9.353  0.0502  0.2697 -0.6865
  162SOPE  H10X18204   5.427   7.047   9.354  0.5178  1.7176 -4.4271
  162SOPE  H10Y18205   5.318   7.179   9.348  1.9544  0.2474 -2.0945
  162SOPE  C31118206   5.247   7.025   9.227  0.1144  0.5013  0.3963
  162SOPE  H11X18207   5.136   7.033   9.225 -0.0277 -0.8845  1.4494
  162SOPE  H11Y18208   5.267   6.915   9.227  0.5776  0.5420  2.3915
  162SOPE  C31218209   5.304   7.089   9.095 -0.3639  0.2945 -0.0433
  162SOPE  H12X18210   5.243   7.040   9.016 -2.1407 -2.6156  2.8976
  162SOPE  H12Y18211   5.413   7.071   9.081  0.0092  1.8155  0.5963
  162SOPE  C31318212   5.266   7.239   9.081 -0.8882  0.4433 -0.0527
  162SOPE  H13X18213   5.350   7.303   9.116  1.4179 -2.3603 -0.0265
  162SOPE  H13Y18214   5.175   7.265   9.139 -1.0829  3.4607 -1.5273
  162SOPE  C31418215   5.229   7.283   8.941  0.0459  0.4799  0.2309
  162SOPE  H14X18216   5.203   7.390   8.957 -2.4278 -0.2462  1.5643
  162SOPE  H14Y18217   5.133   7.239   8.906  0.8870 -0.7224 -0.6409
  162SOPE  C31518218   5.330   7.282   8.830 -0.6303  0.7499 -0.2626
  162SOPE  H15X18219   5.435   7.261   8.858 -0.5757 -1.3792 -1.7434
  162SOPE  H15Y18220   5.328   7.381   8.781  0.4351  1.1665  0.5094
  162SOPE  C31618221   5.280   7.176   8.724  0.5346  0.4452 -0.1882
  162SOPE  H16X18222   5.181   7.216   8.694 -0.7331 -2.0138  0.4277
  162SOPE  H16Y18223   5.254   7.085   8.783 -0.9440  2.1094  1.8944
  162SOPE  C31718224   5.389   7.162   8.611 -0.7968  0.1749 -0.5844
  162SOPE  H17X18225   5.491   7.140   8.647 -0.7370 -1.1854 -1.5096
  162SOPE  H17Y18226   5.397   7.260   8.559 -0.5138  0.0108 -0.8565
  162SOPE  C31818227   5.360   7.053   8.512  0.4682 -0.2762 -1.0334
  162SOPE  H18X18228   5.378   6.950   8.550  0.3867 -0.8905 -2.5583
  162SOPE  H18Y18229   5.429   7.055   8.425 -0.7022 -0.1005 -1.9843
  162SOPE  H18Z18230   5.260   7.067   8.464 -0.0255 -0.3636 -0.0584
  163SOPE     N18231   4.702   5.077  10.531  0.2620 -0.5229  0.2566
  163SOPE   HN118232   4.738   4.999  10.590  0.5315  1.7443  3.4044
  163SOPE   HN218233   4.646   5.133  10.599 -1.0013  1.5069 -2.2944
  163SOPE   HN318234   4.639   5.037  10.459  0.6296  0.2010 -0.4901
  163SOPE   C1218235   4.800   5.175  10.479  0.0504  0.0960  0.3305
  163SOPE  H12A18236   4.752   5.269  10.442  0.9502  0.2947 -0.3893
  163SOPE  H12B18237   4.858   5.130  10.395 -0.0031  0.4631  0.0924
  163SOPE   C1118238   4.897   5.225  10.587 -0.4752 -0.6650 -0.3436
  163SOPE  H11A18239   4.833   5.299  10.639 -1.6336 -0.8011 -1.5348
  163SOPE  H11B18240   4.984   5.272  10.537 -1.1260 -0.4188 -1.2452
  163SOPE     P18241   5.032   4.999  10.622  0.3047 -0.3189  0.0294
  163SOPE   O1318242   4.929   4.902  10.565 -0.6466 -0.1973  0.0651
  163SOPE   O1418243   5.126   4.952  10.725  0.0643 -0.1467  0.6529
  163SOPE   O1218244   4.947   5.120  10.669 -0.2263 -0.2264  0.3380
  163SOPE   O1118245   5.114   5.064  10.502 -0.3658 -0.0602 -0.2884
  163SOPE    C118246   5.162   4.985  10.401  0.2626  0.2862  0.0562
  163SOPE    HA18247   5.079   4.927  10.358 -1.4459  1.4989  1.5517
  163SOPE    HB18248   5.233   4.910  10.443  1.8744  1.2222 -0.8604
  163SOPE    C218249   5.227   5.070  10.284 -0.0778 -0.4063  0.1110
  163SOPE    HS18250   5.317   5.119  10.328 -0.3393  0.9589 -0.8297
  163SOPE   O2118251   5.125   5.164  10.241  0.2720 -0.5428  0.1446
  163SOPE   C2118252   5.176   5.279  10.212  0.1229  0.0137 -0.2104
  163SOPE   O2218253   5.286   5.328  10.249 -0.0030 -0.1010 -0.5795
  163SOPE   C2218254   5.068   5.359  10.142  0.3243  0.8706  0.4661
  163SOPE   H2R18255   5.110   5.457  10.109 -3.0844  2.1317 -0.5787
  163SOPE   H2S18256   4.996   5.379  10.224  0.4407  2.1163  0.2945
  163SOPE    C318257   5.276   4.975  10.164 -0.7665  0.1874  0.8195
  163SOPE    HX18258   5.199   4.904  10.126  2.0604 -2.7954  0.2225
  163SOPE    HY18259   5.357   4.909  10.202  0.3576  0.5981 -0.7916
  163SOPE   O3118260   5.323   5.062  10.053 -0.5148  0.3686  0.7118
  163SOPE   C3118261   5.454   5.094  10.058  0.5714  0.5718  0.0769
  163SOPE   O3218262   5.531   5.052  10.142  0.5954 -0.2525 -0.3169
  163SOPE   C3218263   5.486   5.188   9.935 -0.4152 -0.8370  0.2785
  163SOPE   H2X18264   5.456   5.291   9.964 -2.8715 -1.6266  0.7563
  163SOPE   H2Y18265   5.429   5.147   9.849 -1.7768  0.8221  0.3231
  163SOPE   C2318266   5.010   5.281  10.020  0.4779 -0.6727 -0.2917
  163SOPE   H3R18267   4.904   5.305   9.998  0.8278  1.7893  0.4300
  163SOPE   H3S18268   5.027   5.171  10.027 -1.4933 -1.0845 -1.3135
  163SOPE   C2418269   5.089   5.330   9.895  0.0543  0.2583 -0.3684
  163SOPE   H4R18270   5.103   5.437   9.871  3.4146 -0.1711 -0.7888
  163SOPE   H4S18271   5.192   5.292   9.912 -1.1988 -3.2603  0.2994
  163SOPE   C2518272   5.036   5.255   9.772  0.4379  0.0547 -0.5928
  163SOPE   H5R18273   5.024   5.146   9.790 -0.7432  0.2784  0.1049
  163SOPE   H5S18274   4.931   5.289   9.756 -0.2187 -1.0683  1.0666
  163SOPE   C2618275   5.124   5.260   9.656 -0.3786  0.2262 -0.0796
  163SOPE   H6R18276   5.127   5.367   9.627  2.0110  0.3841  0.6195
  163SOPE   H6S18277   5.221   5.217   9.689 -0.2325  1.7155  1.5216
  163SOPE   C2718278   5.071   5.182   9.530  0.6346  0.8794 -0.5422
  163SOPE   H7R18279   5.148   5.183   9.451  1.4808  0.0832  0.2489
  163SOPE   H7S18280   5.056   5.078   9.566  3.0836  1.5979  3.1529
  163SOPE   C2818281   4.940   5.246   9.465 -0.7444  0.0697 -0.3314
  163SOPE   H8R18282   4.904   5.184   9.380  0.5459  0.4557 -1.1968
  163SOPE   H8S18283   4.857   5.244   9.539 -0.2712 -1.6759  0.1773
  163SOPE   C2918284   4.953   5.383   9.415 -0.2504 -0.5975  0.0909
  163SOPE   H9118285   4.983   5.452   9.495 -1.5263  1.3615 -1.0438
  163SOPE  C21018286   4.959   5.431   9.287  0.7006  0.8413 -0.2106
  163SOPE  H10118287   4.973   5.539   9.274  1.6537  0.5977 -1.4271
  163SOPE  C21118288   4.944   5.346   9.166  0.1588  0.4245  0.2961
  163SOPE  H11R18289   4.879   5.410   9.101 -2.1693  0.1204  2.1634
  163SOPE  H11S18290   4.885   5.254   9.187  0.6897 -0.1286 -0.5917
  163SOPE  C21218291   5.075   5.282   9.120  0.5160 -0.1148  0.7034
  163SOPE  H12R18292   5.056   5.184   9.073 -1.5589  0.2790  0.6309
  163SOPE  H12S18293   5.124   5.260   9.218 -1.3936  0.1538  1.7594
  163SOPE  C21318294   5.166   5.388   9.055  0.5245  0.1645 -0.5743
  163SOPE  H13R18295   5.272   5.368   9.081  0.5581  0.2375 -0.6554
  163SOPE  H13S18296   5.145   5.492   9.089 -2.2320 -0.5745  0.3258
  163SOPE  C21418297   5.148   5.381   8.908 -0.3065 -0.2082  0.4471
  163SOPE  H14R18298   5.042   5.401   8.879 -0.1605 -0.0544 -0.0004
  163SOPE  H14S18299   5.171   5.277   8.878 -0.0956 -0.3343  1.0419
  163SOPE  C21518300   5.245   5.463   8.830 -0.1953  0.5392 -0.2290
  163SOPE  H15R18301   5.350   5.426   8.842  0.1425  1.6513  0.2972
  163SOPE  H15S18302   5.239   5.563   8.877  0.6546 -0.2214  1.5796
  163SOPE  C21618303   5.204   5.466   8.686  0.7342  0.0202 -0.3152
  163SOPE  H16R18304   5.095   5.486   8.694  0.3245 -2.4441  1.6946
  163SOPE  H16S18305   5.203   5.363   8.643  1.9321  0.3444 -1.1655
  163SOPE  C21718306   5.282   5.554   8.589 -0.3339  0.0979  0.1938
  163SOPE  H17R18307   5.380   5.505   8.577 -0.4527  0.2365 -1.5402
  163SOPE  H17S18308   5.300   5.657   8.627 -0.0917  1.2970 -2.8496
  163SOPE  C21818309   5.217   5.566   8.456  0.4370  0.0542  0.2336
  163SOPE  H18R18310   5.228   5.463   8.417 -0.8570  0.2044 -0.5890
  163SOPE  H18S18311   5.272   5.629   8.384 -2.2238 -0.8839 -2.8493
  163SOPE  H18T18312   5.112   5.604   8.461 -0.0580 -1.1370 -0.5587
  163SOPE   C3318313   5.631   5.181   9.894  0.5505  0.5716  0.1480
  163SOPE   H3X18314   5.662   5.076   9.873 -2.1050 -0.1695 -0.4254
  163SOPE   H3Y18315   5.684   5.218   9.985 -1.8629  0.5026  1.6773
  163SOPE   C3418316   5.654   5.275   9.767 -0.2900 -0.2877 -0.0200
  163SOPE   H4X18317   5.757   5.316   9.764 -0.9132  1.2949 -0.7493
  163SOPE   H4Y18318   5.571   5.347   9.756  0.0124  0.2208  0.8959
  163SOPE   C3518319   5.630   5.196   9.639 -0.0698 -0.3581 -0.3122
  163SOPE   H5X18320   5.530   5.149   9.640  0.2642 -1.0915 -0.6792
  163SOPE   H5Y18321   5.707   5.117   9.625  0.0092  0.0661 -2.7171
  163SOPE   C3618322   5.621   5.283   9.515  0.7636 -0.5416 -0.1501
  163SOPE   H6X18323   5.696   5.364   9.512  1.6584 -1.3774 -1.5163
  163SOPE   H6Y18324   5.513   5.309   9.521  0.6189 -1.3777  1.5746
  163SOPE   C3718325   5.661   5.191   9.393  0.7303 -0.3707 -0.1429
  163SOPE   H7X18326   5.593   5.104   9.388 -0.6874  0.5929  1.3372
  163SOPE   H7Y18327   5.763   5.146   9.404  0.0697 -1.9157 -0.0087
  163SOPE   C3818328   5.632   5.263   9.257 -0.7066 -0.0234 -0.8428
  163SOPE   H8X18329   5.688   5.358   9.245 -0.8390 -0.1152 -2.3565
  163SOPE   H8Y18330   5.524   5.287   9.249 -1.4191 -1.9115  1.6511
  163SOPE   C3918331   5.679   5.163   9.147 -0.7154  0.1837 -0.0697
  163SOPE   H9X18332   5.639   5.062   9.170 -2.2859  0.7298 -0.2747
  163SOPE   H9Y18333   5.789   5.149   9.148  0.0288  4.4646 -0.6510
  163SOPE  C31018334   5.628   5.202   9.004 -0.6445  0.6924 -0.2994
  163SOPE  H10X18335   5.671   5.304   8.988  3.4739 -0.4719  2.0734
  163SOPE  H10Y18336   5.517   5.208   9.002 -0.6867  0.0290 -0.1488
  163SOPE  C31118337   5.679   5.109   8.884  0.0465  0.0828  0.3137
  163SOPE  H11X18338   5.637   5.010   8.912  0.0337 -0.8911 -2.7697
  163SOPE  H11Y18339   5.789   5.100   8.875  0.1330  0.2328  1.1542
  163SOPE  C31218340   5.611   5.149   8.753  0.4975 -0.6013 -0.2671
  163SOPE  H12X18341   5.500   5.162   8.751  0.4280  0.6202  3.3311
  163SOPE  H12Y18342   5.636   5.067   8.683  1.2737  0.2801 -1.0433
  163SOPE  C31318343   5.664   5.281   8.694  0.3647  0.3693 -0.5875
  163SOPE  H13X18344   5.775   5.277   8.694  0.3283 -1.9083 -0.9789
  163SOPE  H13Y18345   5.637   5.374   8.749  1.4664  0.5337 -0.2874
  163SOPE  C31418346   5.620   5.305   8.545  0.0363 -0.4325 -0.0934
  163SOPE  H14X18347   5.510   5.298   8.542 -0.0554  0.3388  0.8202
  163SOPE  H14Y18348   5.649   5.221   8.479 -0.4957  1.2416 -2.6030
  163SOPE  C31518349   5.657   5.443   8.487  0.1197 -0.1824 -0.6978
  163SOPE  H15X18350   5.764   5.447   8.457  0.0318  0.4175 -0.9318
  163SOPE  H15Y18351   5.639   5.524   8.561 -0.6758 -1.0024  0.0353
  163SOPE  C31618352   5.578   5.473   8.358  0.4424 -0.1704  0.2403
  163SOPE  H16X18353   5.469   5.463   8.381  0.9173  0.1246  2.9825
  163SOPE  H16Y18354   5.608   5.385   8.297  0.5383  0.0459 -0.0291
  163SOPE  C31718355   5.620   5.606   8.297  0.3829  0.5033 -0.4723
  163SOPE  H17X18356   5.730   5.599   8.290  0.6034 -0.6300  2.6684
  163SOPE  H17Y18357   5.612   5.694   8.364 -0.5536 -1.4031  2.0471
  163SOPE  C31818358   5.556   5.647   8.163  0.2367 -0.0561  0.0834
  163SOPE  H18X18359   5.605   5.742   8.133  2.0576 -0.8485  0.4266
  163SOPE  H18Y18360   5.447   5.668   8.173  0.1432 -0.8826  0.9182
  163SOPE  H18Z18361   5.574   5.569   8.086  0.7153 -2.6793  2.6816
  164SOPE     N18362   2.607   0.284  10.678 -0.6601 -0.0006 -0.6151
  164SOPE   HN118363   2.565   0.377  10.660 -0.2561  0.2841 -0.0818
  164SOPE   HN218364   2.528   0.230  10.719 -3.6234  3.1079 -1.7913
  164SOPE   HN318365   2.681   0.299  10.749 -0.8442 -0.5208 -0.3018
  164SOPE   C1218366   2.671   0.191  10.572 -0.5518  0.9340  0.2068
  164SOPE  H12A18367   2.583   0.150  10.518 -0.2381 -1.0081  1.0881
  164SOPE  H12B18368   2.718   0.110  10.632 -0.1414  1.1240  0.1365
  164SOPE   C1118369   2.774   0.262  10.481 -0.4642  0.2594 -0.9533
  164SOPE  H11A18370   2.731   0.337  10.411  1.6082  0.8407 -1.6881
  164SOPE  H11B18371   2.802   0.179  10.413 -2.0607 -1.5808  0.5241
  164SOPE     P18372   2.926   0.471  10.544  0.2867  0.0283 -0.2387
  164SOPE   O1318373   3.057   0.494  10.613 -0.1344  0.1795 -0.3846
  164SOPE   O1418374   2.812   0.548  10.597 -0.1085 -0.8176 -0.1519
  164SOPE   O1218375   2.892   0.317  10.547  0.5223  0.1918 -0.7902
  164SOPE   O1118376   2.950   0.504  10.387 -0.4182  0.3951 -0.0742
  164SOPE    C118377   3.053   0.436  10.316 -0.6749  0.3803 -0.1402
  164SOPE    HA18378   3.083   0.336  10.353  0.8077  1.0665  0.5837
  164SOPE    HB18379   3.144   0.498  10.329  1.5804 -2.6691 -0.5653
  164SOPE    C218380   3.008   0.409  10.162  1.0446 -0.5056 -0.1688
  164SOPE    HS18381   3.086   0.351  10.108 -0.3504 -1.2068 -1.4791
  164SOPE   O2118382   2.980   0.534  10.098  0.0596 -0.0365  0.2471
  164SOPE   C2118383   3.090   0.601  10.077 -0.1031  0.0861 -1.0276
  164SOPE   O2218384   3.204   0.573  10.101 -0.2307  0.5895 -0.1520
  164SOPE   C2218385   3.052   0.722   9.991  0.5324 -0.4164  0.4512
  164SOPE   H2R18386   3.131   0.800  10.001  0.4598 -0.4422  1.2153
  164SOPE   H2S18387   2.952   0.764  10.014  0.6385  0.0287  0.1275
  164SOPE    C318388   2.871   0.330  10.161 -0.3460  0.2014  0.7223
  164SOPE    HX18389   2.795   0.390  10.217 -0.9083  0.8490 -0.7000
  164SOPE    HY18390   2.887   0.234  10.215 -0.7257  0.0620  0.5973
  164SOPE   O3118391   2.810   0.287  10.029 -0.5179 -0.4996 -0.0205
  164SOPE   C3118392   2.871   0.185   9.966 -0.0810 -0.6657 -0.2088
  164SOPE   O3218393   2.954   0.108  10.014  0.2758 -0.5703  0.0817
  164SOPE   C3218394   2.807   0.182   9.825  0.1562 -0.1519 -0.3585
  164SOPE   H2X18395   2.701   0.215   9.838  0.5971  1.2933 -0.2008
  164SOPE   H2Y18396   2.796   0.077   9.790 -1.1499  0.0827 -0.7445
  164SOPE   C2318397   3.061   0.696   9.839  0.5527 -0.1336  0.1148
  164SOPE   H3R18398   2.989   0.621   9.800  0.0699  0.1221  0.5037
  164SOPE   H3S18399   3.159   0.648   9.819 -0.1308 -1.0114 -1.3349
  164SOPE   C2418400   3.026   0.818   9.750  0.0932  0.0555  0.5154
  164SOPE   H4R18401   2.920   0.847   9.767  0.5124  2.7978 -0.8943
  164SOPE   H4S18402   3.088   0.901   9.790  0.4937  1.3019 -2.3808
  164SOPE   C2518403   3.073   0.809   9.597  0.1706 -0.2567 -0.1012
  164SOPE   H5R18404   3.182   0.794   9.582 -0.1333 -0.0659 -3.0072
  164SOPE   H5S18405   3.007   0.730   9.554  0.0390 -0.3778  0.3159
  164SOPE   C2618406   3.024   0.934   9.527 -0.5737 -0.0934  0.1705
  164SOPE   H6R18407   2.914   0.931   9.511 -0.5821  1.1485 -0.1022
  164SOPE   H6S18408   3.065   1.021   9.583  1.4546 -0.0468 -1.3022
  164SOPE   C2718409   3.093   0.935   9.387  0.6790  0.2114 -0.8367
  164SOPE   H7R18410   3.201   0.911   9.400  1.3765  2.9756 -0.8712
  164SOPE   H7S18411   3.060   0.849   9.325 -0.7161  1.4920 -1.9662
  164SOPE   C2818412   3.062   1.058   9.309 -0.1990 -0.5433 -0.6964
  164SOPE   H8R18413   3.024   1.033   9.207 -1.1579  0.3946 -0.5851
  164SOPE   H8S18414   2.972   1.113   9.346  1.2436  1.0128  0.6404
  164SOPE   C2918415   3.180   1.150   9.289 -0.0748  0.3432  0.0535
  164SOPE   H9118416   3.271   1.089   9.303 -0.4298 -0.5812 -1.5365
  164SOPE  C21018417   3.174   1.282   9.267  0.2918  0.7447  0.0148
  164SOPE  H10118418   3.264   1.345   9.260  0.6818  0.1072 -0.8633
  164SOPE  C21118419   3.052   1.363   9.240 -0.0211  0.2981  0.5268
  164SOPE  H11R18420   2.953   1.314   9.228 -0.6958  0.6735  3.7171
  164SOPE  H11S18421   3.077   1.426   9.152 -2.3789  3.2911  1.8170
  164SOPE  C21218422   3.014   1.474   9.340  0.5074 -0.1550 -0.4921
  164SOPE  H12R18423   2.939   1.535   9.287 -2.9289 -3.5246  0.0708
  164SOPE  H12S18424   3.098   1.541   9.371 -1.0672  0.3455  3.2888
  164SOPE  C21318425   2.951   1.428   9.475  0.3794 -0.1800 -0.1715
  164SOPE  H13R18426   2.864   1.359   9.467 -0.9907  0.9733  2.8933
  164SOPE  H13S18427   2.908   1.519   9.523  0.8694  0.6555 -1.2868
  164SOPE  C21418428   3.047   1.368   9.578  0.2218 -0.1634 -0.1736
  164SOPE  H14R18429   3.128   1.443   9.590 -1.7600  1.9733  0.5020
  164SOPE  H14S18430   3.087   1.269   9.547  2.4243  0.3781  0.6911
  164SOPE  C21518431   2.977   1.358   9.713 -1.1570 -0.7788 -0.1451
  164SOPE  H15R18432   2.904   1.275   9.726 -2.6742  0.7608  1.9320
  164SOPE  H15S18433   2.915   1.448   9.733  0.1725 -0.4683  3.1873
  164SOPE  C21618434   3.071   1.355   9.830 -0.9218  0.3513  0.5577
  164SOPE  H16R18435   3.003   1.379   9.914 -2.2343  0.0392 -0.3926
  164SOPE  H16S18436   3.158   1.425   9.825  0.4724 -1.3028  0.4660
  164SOPE  C21718437   3.131   1.215   9.855 -0.1017  0.0567  0.7570
  164SOPE  H17R18438   3.193   1.189   9.766  0.0318  0.7841  0.6302
  164SOPE  H17S18439   3.042   1.149   9.854 -1.6251  2.0126  0.6367
  164SOPE  C21818440   3.209   1.191   9.981  0.4089 -0.5200 -0.5241
  164SOPE  H18R18441   3.148   1.194  10.073  1.1489  0.0827 -0.0441
  164SOPE  H18S18442   3.288   1.268   9.995  0.1516 -0.1250 -1.1623
  164SOPE  H18T18443   3.249   1.088   9.981 -0.5398 -0.8944 -0.8533
  164SOPE   C3318444   2.871   0.264   9.706 -0.0329 -0.3652 -0.0770
  164SOPE   H3X18445   2.979   0.241   9.708  0.0629 -0.0888 -1.3461
  164SOPE   H3Y18446   2.865   0.374   9.716 -0.4571  0.0051 -3.2206
  164SOPE   C3418447   2.814   0.208   9.574 -0.5301 -0.3149 -1.5594
  164SOPE   H4X18448   2.705   0.222   9.557 -0.8004 -1.2268 -0.6717
  164SOPE   H4Y18449   2.829   0.098   9.574 -1.5304 -0.4907  0.4163
  164SOPE   C3518450   2.883   0.268   9.453  0.8158 -0.1785  0.1536
  164SOPE   H5X18451   2.993   0.255   9.458  0.9952  0.8248 -0.7233
  164SOPE   H5Y18452   2.865   0.378   9.456 -0.0256 -0.3011 -0.1288
  164SOPE   C3618453   2.850   0.206   9.316 -0.3978  0.4506  0.1488
  164SOPE   H6X18454   2.741   0.222   9.304 -0.4271  2.7850  2.6410
  164SOPE   H6Y18455   2.869   0.097   9.325 -0.9375  0.3607  0.2503
  164SOPE   C3718456   2.934   0.261   9.195  0.6234  0.1831  0.1086
  164SOPE   H7X18457   3.040   0.254   9.227 -0.0582 -1.7110  2.2646
  164SOPE   H7Y18458   2.909   0.369   9.190  3.2928  0.8899  0.4671
  164SOPE   C3818459   2.894   0.199   9.062  0.1193  0.3565  0.0208
  164SOPE   H8X18460   2.783   0.205   9.061  0.0244 -0.9622  0.5499
  164SOPE   H8Y18461   2.918   0.090   9.063  0.1285  0.3570  0.5387
  164SOPE   C3918462   2.950   0.271   8.940  0.1779  0.0660  1.0653
  164SOPE   H9X18463   2.935   0.194   8.861 -2.2980  0.0962  1.4290
  164SOPE   H9Y18464   3.060   0.268   8.955  0.0665  0.2267  1.9874
  164SOPE  C31018465   2.896   0.406   8.905 -0.5001  0.2198 -0.0921
  164SOPE  H10X18466   2.887   0.476   8.991  2.8866 -1.5343  1.9136
  164SOPE  H10Y18467   2.790   0.385   8.879 -0.2375  0.9948 -1.9343
  164SOPE  C31118468   2.958   0.475   8.781  0.4762  0.1603  0.0941
  164SOPE  H11X18469   2.927   0.424   8.687 -2.4747 -0.3817  1.2192
  164SOPE  H11Y18470   3.067   0.488   8.792  0.4690 -0.6669  1.3787
  164SOPE  C31218471   2.911   0.622   8.775 -0.5678  0.2322 -0.3848
  164SOPE  H12X18472   2.800   0.622   8.789 -0.7378  0.5082 -1.5677
  164SOPE  H12Y18473   2.939   0.665   8.676  0.4452  0.1459 -0.1408
  164SOPE  C31318474   2.988   0.720   8.864 -0.3285 -0.5156 -0.5449
  164SOPE  H13X18475   3.095   0.691   8.869  0.5102  1.8274 -2.9725
  164SOPE  H13Y18476   2.954   0.710   8.970  1.3766  1.5497  0.2520
  164SOPE  C31418477   2.997   0.866   8.836  0.2096  0.3075  0.1983
  164SOPE  H14X18478   2.897   0.904   8.809  1.0191  0.6228 -2.7409
  164SOPE  H14Y18479   3.054   0.886   8.743 -0.3336  1.7391  0.1438
  164SOPE  C31518480   3.065   0.944   8.950 -0.2239  0.5259  0.4767
  164SOPE  H15X18481   3.173   0.918   8.953 -0.3434 -0.5328 -1.8814
  164SOPE  H15Y18482   3.009   0.922   9.044  0.8181 -2.1710  0.5604
  164SOPE  C31618483   3.061   1.092   8.912  0.0364 -0.0552  0.6263
  164SOPE  H16X18484   3.048   1.163   8.997  0.5045  3.9511 -2.3647
  164SOPE  H16Y18485   2.980   1.116   8.840 -0.3492 -0.4517  0.9259
  164SOPE  C31718486   3.194   1.145   8.846 -0.0606 -0.4547  0.1806
  164SOPE  H17X18487   3.168   1.244   8.804 -1.0108  0.3039  2.3872
  164SOPE  H17Y18488   3.210   1.063   8.773 -1.2408 -2.0024  1.5818
  164SOPE  C31818489   3.314   1.146   8.940 -0.4065 -0.5202 -0.0120
  164SOPE  H18X18490   3.291   1.123   9.046  0.6691 -1.3112  0.0662
  164SOPE  H18Y18491   3.348   1.251   8.946 -1.1494 -0.3655  1.8772
  164SOPE  H18Z18492   3.403   1.095   8.895  1.4949  1.5572  1.2007
  165SOPE     N18493   0.094   3.005  10.751  0.1335  0.4229  0.0591
  165SOPE   HN118494   0.159   3.045  10.822  1.6162  0.5650 -1.3299
  165SOPE   HN218495   0.087   3.082  10.682 -0.2830  0.7124  0.4164
  165SOPE   HN318496  -0.003   2.989  10.785 -0.1208  0.6151 -0.5748
  165SOPE   C1218497   0.167   2.883  10.682  0.0924 -0.3335 -0.5381
  165SOPE  H12A18498   0.093   2.841  10.611 -2.0104  0.8175  0.8649
  165SOPE  H12B18499   0.178   2.798  10.753 -3.9292 -0.7163 -0.1523
  165SOPE   C1118500   0.300   2.930  10.613  0.7086 -0.7645  0.2230
  165SOPE  H11A18501   0.272   2.994  10.526 -3.1155  0.5695  2.2241
  165SOPE  H11B18502   0.355   2.840  10.578  2.2058 -0.0074  0.5438
  165SOPE     P18503   0.526   2.973  10.747  0.0999 -0.2449 -0.2158
  165SOPE   O1318504   0.545   2.983  10.894  0.0999 -0.3344 -0.3788
  165SOPE   O1418505   0.613   3.057  10.663  0.3159  0.1667 -0.0309
  165SOPE   O1218506   0.380   3.004  10.706  0.2341 -0.1884 -0.1995
  165SOPE   O1118507   0.551   2.822  10.711 -0.2042  0.3216 -0.2247
  165SOPE    C118508   0.686   2.774  10.683 -0.6637  0.1104 -0.5270
  165SOPE    HA18509   0.699   2.669  10.716 -1.4191  0.2636  0.3263
  165SOPE    HB18510   0.754   2.836  10.746 -2.7334  1.7860  0.2019
  165SOPE    C218511   0.728   2.774  10.538 -0.2920 -0.7581  0.0455
  165SOPE    HS18512   0.740   2.880  10.506  2.1197 -0.6736  1.0019
  165SOPE   O2118513   0.615   2.723  10.453 -0.0979 -0.0533 -0.6128
  165SOPE   C2118514   0.588   2.784  10.344  0.1394 -0.4003 -0.0118
  165SOPE   O2218515   0.649   2.874  10.292  0.7719 -0.2350  0.0678
  165SOPE   C2218516   0.472   2.706  10.272 -0.4563  0.6577 -0.7030
  165SOPE   H2R18517   0.392   2.698  10.349 -3.2058 -2.5931 -3.5270
  165SOPE   H2S18518   0.494   2.599  10.257  0.2917  0.5062  1.1910
  165SOPE    C318519   0.851   2.688  10.529  0.7417  0.2116 -0.1983
  165SOPE    HX18520   0.825   2.585  10.561 -0.7638  0.7156  0.2855
  165SOPE    HY18521   0.928   2.723  10.602  1.8783 -0.3500 -1.0942
  165SOPE   O3118522   0.908   2.700  10.393  0.0023 -0.3629  0.1180
  165SOPE   C3118523   0.877   2.604  10.307  0.5091 -0.3962 -0.0468
  165SOPE   O3218524   0.835   2.493  10.338  0.0467 -0.3360  0.2268
  165SOPE   C3218525   0.911   2.648  10.164 -0.0755  0.3507 -0.2654
  165SOPE   H2X18526   1.012   2.693  10.167 -0.1861  0.5852  2.2501
  165SOPE   H2Y18527   0.842   2.733  10.148 -0.4618 -0.1034 -1.0536
  165SOPE   C2318528   0.421   2.770  10.146  0.4441  0.4520 -0.1010
  165SOPE   H3R18529   0.416   2.880  10.162 -1.7177  0.1226  2.0353
  165SOPE   H3S18530   0.317   2.739  10.123 -0.4361  0.7245  3.1244
  165SOPE   C2418531   0.502   2.736  10.020  0.2627  0.2403 -0.2495
  165SOPE   H4R18532   0.582   2.814  10.013 -0.4094  0.9535 -0.1224
  165SOPE   H4S18533   0.550   2.636  10.015  2.2675  1.2058 -1.8990
  165SOPE   C2518534   0.412   2.754   9.889 -0.6099  0.2455 -0.3943
  165SOPE   H5R18535   0.338   2.672   9.881 -1.0286  0.6944 -1.2858
  165SOPE   H5S18536   0.358   2.851   9.900 -0.4437  0.3175 -0.1941
  165SOPE   C2618537   0.506   2.782   9.765  0.4591 -0.8391  0.2307
  165SOPE   H6R18538   0.580   2.860   9.794  0.3073  0.3601 -2.3450
  165SOPE   H6S18539   0.567   2.692   9.739  1.0861  0.0562 -1.6123
  165SOPE   C2718540   0.424   2.823   9.650 -0.3059 -0.8607  0.5791
  165SOPE   H7R18541   0.353   2.752   9.603 -1.4351 -0.1031  1.0975
  165SOPE   H7S18542   0.355   2.906   9.676 -0.6087 -1.4931  1.8272
  165SOPE   C2818543   0.512   2.850   9.528  0.1236 -0.2066  0.5825
  165SOPE   H8R18544   0.587   2.927   9.554 -2.4310  2.4819  0.5181
  165SOPE   H8S18545   0.553   2.756   9.486 -1.1833  0.8831 -3.6194
  165SOPE   C2918546   0.433   2.921   9.422 -0.1079  0.3302 -0.0274
  165SOPE   H9118547   0.372   3.008   9.450 -1.5073 -0.9268  0.9934
  165SOPE  C21018548   0.423   2.885   9.291 -0.2820  1.0856  0.0757
  165SOPE  H10118549   0.343   2.933   9.232 -0.0676  0.1127 -1.0517
  165SOPE  C21118550   0.488   2.777   9.207 -0.0856  0.4774 -0.4836
  165SOPE  H11R18551   0.408   2.713   9.166  1.3682 -1.2046 -0.8275
  165SOPE  H11S18552   0.537   2.698   9.268 -2.4756 -1.7446 -1.2873
  165SOPE  C21218553   0.580   2.841   9.105  0.4841  0.3107  0.9110
  165SOPE  H12R18554   0.666   2.897   9.148 -0.0629  1.9241 -0.0150
  165SOPE  H12S18555   0.507   2.897   9.043  0.8667 -0.0527  0.1070
  165SOPE  C21318556   0.638   2.726   9.023 -0.1667  0.1917  0.2070
  165SOPE  H13R18557   0.565   2.673   8.958  2.1185 -2.6346 -0.2623
  165SOPE  H13S18558   0.679   2.659   9.101 -1.3940  0.3862  1.0523
  165SOPE  C21418559   0.746   2.779   8.928  0.0658 -0.2985 -0.2919
  165SOPE  H14R18560   0.805   2.850   8.989 -2.0149 -0.1551  1.7125
  165SOPE  H14S18561   0.702   2.847   8.852  0.2257 -0.4344 -0.5070
  165SOPE  C21518562   0.827   2.663   8.888 -0.5668 -0.0910  0.0226
  165SOPE  H15R18563   0.754   2.593   8.840 -1.9884  1.4496 -0.1690
  165SOPE  H15S18564   0.874   2.611   8.974  1.1365  1.9622  0.4047
  165SOPE  C21618565   0.929   2.694   8.784 -0.2797 -0.2072  0.6592
  165SOPE  H16R18566   1.009   2.755   8.833  0.4665  0.4515 -1.2706
  165SOPE  H16S18567   0.880   2.752   8.703 -1.9372  1.6161  2.8142
  165SOPE  C21718568   1.000   2.575   8.726 -0.2106 -0.3516 -0.1259
  165SOPE  H17R18569   1.056   2.604   8.634  2.4028 -2.6274  0.6012
  165SOPE  H17S18570   0.926   2.501   8.690 -0.7034 -0.1674  0.4951
  165SOPE  C21818571   1.109   2.503   8.815  0.0700  0.0449  0.6823
  165SOPE  H18R18572   1.196   2.572   8.819 -1.3699  1.9242  1.5559
  165SOPE  H18S18573   1.130   2.401   8.778 -2.3841 -0.9517  1.7841
  165SOPE  H18T18574   1.073   2.499   8.920 -1.0680 -0.1793  0.2988
  165SOPE   C3318575   0.886   2.548  10.054 -0.2083 -0.0237  0.5608
  165SOPE   H3X18576   0.782   2.509  10.059 -0.0119 -0.4775  1.2442
  165SOPE   H3Y18577   0.955   2.461  10.054 -1.4167 -1.1245 -2.6542
  165SOPE   C3418578   0.911   2.601   9.913 -0.0302  0.0177  0.0938
  165SOPE   H4X18579   1.011   2.649   9.902 -0.4635  0.8384 -0.3514
  165SOPE   H4Y18580   0.834   2.679   9.898  0.3783  0.4506  0.2075
  165SOPE   C3518581   0.898   2.492   9.801  0.7854 -0.4808  0.7293
  165SOPE   H5X18582   0.822   2.414   9.820 -0.7545  0.9007  0.4858
  165SOPE   H5Y18583   0.993   2.435   9.803  2.1434  1.6782  1.5627
  165SOPE   C3618584   0.875   2.535   9.657  0.4686  0.0720  0.0175
  165SOPE   H6X18585   0.774   2.570   9.628  0.1927 -1.7008 -1.2861
  165SOPE   H6Y18586   0.901   2.456   9.584  0.6306  0.0037  0.1478
  165SOPE   C3718587   0.977   2.647   9.616 -0.8053  0.2886  0.3747
  165SOPE   H7X18588   1.074   2.603   9.647 -1.5767 -0.8090  1.2943
  165SOPE   H7Y18589   0.972   2.737   9.681  0.1123  1.3886 -1.0051
  165SOPE   C3818590   0.971   2.685   9.468  0.1360  0.0148  0.1060
  165SOPE   H8X18591   0.862   2.697   9.453  0.1810  2.4366  1.3722
  165SOPE   H8Y18592   1.011   2.598   9.411  1.4958  0.7057 -0.0326
  165SOPE   C3918593   1.060   2.806   9.437  0.6106 -0.1190  0.1954
  165SOPE   H9X18594   1.168   2.783   9.447  1.1209  0.8457 -2.2340
  165SOPE   H9Y18595   1.041   2.903   9.487  2.2829  1.6532 -2.3719
  165SOPE  C31018596   1.042   2.842   9.286 -1.0741  0.0821  0.0226
  165SOPE  H10X18597   0.943   2.887   9.264 -1.2586  0.0730  0.8171
  165SOPE  H10Y18598   1.031   2.749   9.227  0.5751  0.7191 -1.3847
  165SOPE  C31118599   1.168   2.928   9.243  0.2112  0.0952  0.1821
  165SOPE  H11X18600   1.192   2.975   9.340 -0.6372 -0.4522  0.6655
  165SOPE  H11Y18601   1.137   3.002   9.167 -2.3993  1.2448  2.2322
  165SOPE  C31218602   1.284   2.844   9.194  0.3430  0.0619 -0.0824
  165SOPE  H12X18603   1.296   2.770   9.277 -3.1242  1.4940  1.9439
  165SOPE  H12Y18604   1.376   2.906   9.186  0.9053 -0.7365  0.0214
  165SOPE  C31318605   1.260   2.779   9.058 -0.1104  0.4973 -0.1889
  165SOPE  H13X18606   1.245   2.858   8.981  1.3952 -0.7820 -1.8775
  165SOPE  H13Y18607   1.165   2.722   9.053  0.0557  0.0704  1.2060
  165SOPE  C31418608   1.375   2.687   9.028 -0.7304  0.6750  0.2190
  165SOPE  H14X18609   1.344   2.614   8.950 -1.7151 -0.5070  1.6809
  165SOPE  H14Y18610   1.410   2.637   9.120  1.8415  1.7806 -0.0673
  165SOPE  C31518611   1.504   2.751   8.967  0.1167 -0.3303 -0.2043
  165SOPE  H15X18612   1.592   2.682   8.963  0.1026 -0.3918  0.5029
  165SOPE  H15Y18613   1.537   2.830   9.038 -0.3863 -2.0955  2.1145
  165SOPE  C31618614   1.489   2.820   8.832 -0.3560 -0.4709  1.1252
  165SOPE  H16X18615   1.433   2.912   8.862 -1.2004 -0.6934  0.3020
  165SOPE  H16Y18616   1.415   2.771   8.764 -2.3411 -2.5024  4.4796
  165SOPE  C31718617   1.616   2.857   8.750  0.1038  0.0239 -0.4975
  165SOPE  H17X18618   1.636   2.754   8.713 -2.8519  0.0576 -2.5847
  165SOPE  H17Y18619   1.694   2.867   8.828 -0.9181 -0.7403  0.6757
  165SOPE  C31818620   1.588   2.963   8.633  0.8191 -0.2634 -0.6205
  165SOPE  H18X18621   1.520   2.916   8.558 -2.4278  0.8765  1.3681
  165SOPE  H18Y18622   1.687   2.980   8.586  0.6503  0.4510 -0.7312
  165SOPE  H18Z18623   1.536   3.054   8.670  1.6288 -0.3601  0.8298
  166SOPE     N18624   1.230   2.587  11.382  0.0073  0.4880  0.1274
  166SOPE   HN118625   1.173   2.643  11.448 -1.2362  0.6196 -1.0078
  166SOPE   HN218626   1.331   2.611  11.380  0.2876 -0.6657 -0.6711
  166SOPE   HN318627   1.194   2.605  11.285 -0.8025  2.4939  0.7389
  166SOPE   C1218628   1.208   2.436  11.405  0.1009  0.8238  0.4523
  166SOPE  H12A18629   1.098   2.429  11.416 -0.0160 -0.3836 -1.1107
  166SOPE  H12B18630   1.262   2.408  11.498  2.0466  2.4530 -0.1053
  166SOPE   C1118631   1.258   2.337  11.289  0.3739 -0.2992 -0.4372
  166SOPE  H11A18632   1.207   2.240  11.309 -0.0346  0.2890  1.6266
  166SOPE  H11B18633   1.368   2.331  11.289  0.3159 -2.1191  0.7972
  166SOPE     P18634   1.237   2.325  11.032 -0.0627  0.0464  0.0551
  166SOPE   O1318635   1.150   2.383  10.928  0.7383  0.7376 -0.1063
  166SOPE   O1418636   1.257   2.179  11.037  0.3465 -0.4266 -1.0693
  166SOPE   O1218637   1.198   2.389  11.165 -0.9011  0.2786 -0.2897
  166SOPE   O1118638   1.382   2.390  11.007 -0.0298 -0.3303  0.0910
  166SOPE    C118639   1.391   2.529  10.977  0.5271  0.1712 -0.3857
  166SOPE    HA18640   1.492   2.564  11.009  0.5867 -1.2247  1.1054
  166SOPE    HB18641   1.320   2.590  11.035  1.2877  1.4882 -0.8081
  166SOPE    C218642   1.385   2.563  10.825  0.2477 -0.3968  0.6792
  166SOPE    HS18643   1.292   2.523  10.779 -1.0299  3.3948 -0.4311
  166SOPE   O2118644   1.504   2.509  10.760  0.6827 -0.2841 -0.1964
  166SOPE   C2118645   1.501   2.386  10.730  0.0837 -0.2033 -0.0490
  166SOPE   O2218646   1.406   2.313  10.731  0.0950  0.1554  0.4020
  166SOPE   C2218647   1.642   2.355  10.684 -0.6119 -0.0077 -0.0354
  166SOPE   H2R18648   1.656   2.245  10.679 -1.4462 -0.1013 -0.4869
  166SOPE   H2S18649   1.701   2.397  10.769 -0.6156 -0.1813  0.0526
  166SOPE    C318650   1.386   2.717  10.799  0.3701 -0.1952  0.2611
  166SOPE    HX18651   1.466   2.767  10.857 -0.8231  1.6450  0.3987
  166SOPE    HY18652   1.292   2.759  10.841  0.5050  1.1258 -0.7013
  166SOPE   O3118653   1.408   2.740  10.662 -0.8101 -0.5852  0.2093
  166SOPE   C3118654   1.326   2.715  10.577  0.7182 -0.4072 -0.1677
  166SOPE   O3218655   1.206   2.679  10.601  0.1392 -0.3188 -0.2458
  166SOPE   C3218656   1.372   2.760  10.438  0.8528 -0.4424 -0.2842
  166SOPE   H2X18657   1.480   2.740  10.423  1.0702  2.2056 -3.0766
  166SOPE   H2Y18658   1.358   2.869  10.451  0.2862 -0.7965  2.9526
  166SOPE   C2318659   1.669   2.425  10.552 -0.6294  0.9495  0.2294
  166SOPE   H3R18660   1.779   2.423  10.544 -0.5546  0.4307  1.2779
  166SOPE   H3S18661   1.652   2.535  10.561 -1.7724  0.8028  0.0658
  166SOPE   C2418662   1.591   2.369  10.437 -0.2215  0.0676 -0.1913
  166SOPE   H4R18663   1.607   2.259  10.436 -0.8276 -0.0176 -1.0277
  166SOPE   H4S18664   1.481   2.379  10.452 -0.2262  0.4747 -0.4802
  166SOPE   C2518665   1.623   2.435  10.302 -0.5074 -0.8886  0.2989
  166SOPE   H5R18666   1.602   2.544  10.311  0.3255 -0.4319 -2.4408
  166SOPE   H5S18667   1.732   2.425  10.283 -0.6089  0.1370 -0.9956
  166SOPE   C2618668   1.543   2.380  10.186  0.2597 -0.5109 -0.1980
  166SOPE   H6R18669   1.567   2.274  10.162 -1.3312 -0.5779 -1.6562
  166SOPE   H6S18670   1.437   2.398  10.212  0.0873  2.1236 -2.3271
  166SOPE   C2718671   1.573   2.441  10.052  0.5119  0.3280 -0.3089
  166SOPE   H7R18672   1.572   2.551  10.068  0.7133  0.0205  2.3727
  166SOPE   H7S18673   1.674   2.420  10.012  0.3669  0.6784 -0.8661
  166SOPE   C2818674   1.473   2.392   9.947  0.2803  0.0371 -0.0199
  166SOPE   H8R18675   1.470   2.281   9.944 -0.7082  0.0833 -1.0344
  166SOPE   H8S18676   1.374   2.432   9.978 -0.2098 -2.5270  2.0679
  166SOPE   C2918677   1.519   2.465   9.821 -0.5038  0.6403 -0.0309
  166SOPE   H9118678   1.471   2.563   9.816  0.3490  1.0195 -1.6768
  166SOPE  C21018679   1.616   2.433   9.728 -0.7666 -0.1687 -0.1880
  166SOPE  H10118680   1.632   2.498   9.640 -4.4577  1.5926  0.2490
  166SOPE  C21118681   1.713   2.321   9.721  0.6402  0.3347  0.2275
  166SOPE  H11R18682   1.690   2.238   9.791 -0.8935  0.7851  0.2775
  166SOPE  H11S18683   1.814   2.350   9.758  0.8626 -2.2981  1.9360
  166SOPE  C21218684   1.718   2.256   9.582  0.3655 -0.5704  0.3578
  166SOPE  H12R18685   1.713   2.326   9.497 -1.5945 -2.7637 -1.4942
  166SOPE  H12S18686   1.637   2.184   9.557  0.1832  0.1792 -1.3268
  166SOPE  C21318687   1.849   2.179   9.564 -0.4353  0.0269  0.0258
  166SOPE  H13R18688   1.839   2.070   9.585  1.2876 -0.2562 -0.4669
  166SOPE  H13S18689   1.927   2.229   9.625 -1.0334 -0.3588  1.1330
  166SOPE  C21418690   1.902   2.192   9.415  0.0105  0.6846  0.2794
  166SOPE  H14R18691   2.002   2.143   9.416  0.4362  1.5056 -0.5357
  166SOPE  H14S18692   1.920   2.298   9.386 -2.7406  0.7944 -1.3723
  166SOPE  C21518693   1.809   2.134   9.306 -0.2146  0.2083 -0.0987
  166SOPE  H15R18694   1.732   2.070   9.353  0.4139 -2.9407 -2.9780
  166SOPE  H15S18695   1.884   2.089   9.237  0.0935 -0.7857  0.8553
  166SOPE  C21618696   1.730   2.246   9.236 -0.2916 -0.5954 -0.3081
  166SOPE  H16R18697   1.700   2.334   9.297  1.0464 -0.9588  0.9120
  166SOPE  H16S18698   1.633   2.210   9.195 -1.5110  0.1289  1.7798
  166SOPE  C21718699   1.802   2.292   9.101  0.6901 -0.1183 -0.1797
  166SOPE  H17R18700   1.840   2.204   9.044 -0.9248  1.1631 -3.4948
  166SOPE  H17S18701   1.892   2.355   9.114 -0.6404  1.8303 -0.1041
  166SOPE  C21818702   1.703   2.362   9.013 -0.0990 -0.0463  0.7326
  166SOPE  H18R18703   1.747   2.376   8.912 -1.6030  1.8106  0.2827
  166SOPE  H18S18704   1.669   2.459   9.055 -1.9835  0.5795 -1.9620
  166SOPE  H18T18705   1.612   2.298   9.006 -0.0343 -0.1160  0.4994
  166SOPE   C3318706   1.279   2.684  10.334  0.0104 -0.2340  0.4639
  166SOPE   H3X18707   1.171   2.707  10.349  0.4971  4.0525 -1.3341
  166SOPE   H3Y18708   1.302   2.575  10.342  0.9490 -0.3504 -2.5180
  166SOPE   C3418709   1.307   2.719  10.186  0.2311  0.7682 -0.6948
  166SOPE   H4X18710   1.236   2.676  10.112  0.6110  1.1907 -1.3075
  166SOPE   H4Y18711   1.411   2.696  10.156  0.9382  1.4243  1.1021
  166SOPE   C3518712   1.291   2.868  10.163 -0.5398 -0.2987  0.0224
  166SOPE   H5X18713   1.382   2.924  10.192 -0.7167  0.9554 -1.6972
  166SOPE   H5Y18714   1.200   2.900  10.219 -0.9348 -0.4573 -0.5161
  166SOPE   C3618715   1.259   2.897  10.014 -0.0592  0.2527 -0.6613
  166SOPE   H6X18716   1.217   3.000  10.017  0.3034  0.4079  1.9427
  166SOPE   H6Y18717   1.177   2.837   9.969  0.7707  0.0313 -1.9156
  166SOPE   C3718718   1.386   2.902   9.929 -0.5631 -0.4598 -0.3507
  166SOPE   H7X18719   1.431   2.802   9.948 -1.9755 -0.5536  3.5894
  166SOPE   H7Y18720   1.456   2.977   9.972 -2.0657  1.0801 -0.5080
  166SOPE   C3818721   1.365   2.928   9.786  0.0140  0.0215 -0.0691
  166SOPE   H8X18722   1.345   3.038   9.788  1.2103  0.2515  2.4684
  166SOPE   H8Y18723   1.272   2.881   9.748  0.6026 -1.7190  0.5912
  166SOPE   C3918724   1.472   2.894   9.684 -0.1999  0.0609  0.3583
  166SOPE   H9X18725   1.428   2.915   9.584 -1.3857 -1.9174  0.4101
  166SOPE   H9Y18726   1.484   2.784   9.689  0.6166  0.1981  1.8632
  166SOPE  C31018727   1.597   2.984   9.711 -0.2516  0.4406  0.1276
  166SOPE  H10X18728   1.645   2.942   9.802  0.7186 -1.8442 -1.3635
  166SOPE  H10Y18729   1.571   3.092   9.717  0.2080  0.5982 -0.5449
  166SOPE  C31118730   1.700   2.970   9.601 -0.4383  0.5206  0.2314
  166SOPE  H11X18731   1.696   2.865   9.563 -0.2145 -0.0659  1.7331
  166SOPE  H11Y18732   1.799   2.975   9.649  0.7104  0.6675 -2.0307
  166SOPE  C31218733   1.689   3.078   9.489  0.2585  0.1750 -0.1892
  166SOPE  H12X18734   1.773   3.063   9.418  1.6035 -0.5939  1.4871
  166SOPE  H12Y18735   1.708   3.175   9.539 -0.7570  0.5156 -0.4435
  166SOPE  C31318736   1.549   3.068   9.419  0.0073  0.5002 -0.3159
  166SOPE  H13X18737   1.477   3.104   9.495  0.6398 -0.9978  1.0423
  166SOPE  H13Y18738   1.532   2.965   9.383 -0.7294  0.5161 -0.0338
  166SOPE  C31418739   1.557   3.182   9.307  0.0806 -0.0603 -0.2120
  166SOPE  H14X18740   1.641   3.156   9.239  2.4971  1.3709  2.0743
  166SOPE  H14Y18741   1.593   3.268   9.367 -0.6924  0.2740 -0.2087
  166SOPE  C31518742   1.424   3.215   9.247  0.5183 -0.0217  0.6129
  166SOPE  H15X18743   1.341   3.222   9.321 -0.0048  2.1517 -0.1129
  166SOPE  H15Y18744   1.387   3.138   9.176 -2.3113  1.3979  0.4187
  166SOPE  C31618745   1.399   3.344   9.162 -0.4828  0.3121 -0.1523
  166SOPE  H16X18746   1.407   3.429   9.233  0.2121  0.8943 -0.8989
  166SOPE  H16Y18747   1.296   3.345   9.122  0.0023  0.6371 -1.4680
  166SOPE  C31718748   1.508   3.352   9.061 -0.2114 -0.2458 -0.0110
  166SOPE  H17X18749   1.512   3.254   9.009 -0.8690 -0.8922  1.1162
  166SOPE  H17Y18750   1.596   3.372   9.125  0.8871  0.3755 -1.6455
  166SOPE  C31818751   1.498   3.473   8.971  0.9037  0.0495  0.0084
  166SOPE  H18X18752   1.418   3.444   8.899  0.6444 -1.1867  0.7614
  166SOPE  H18Y18753   1.586   3.496   8.907 -0.2364  2.7530 -0.7340
  166SOPE  H18Z18754   1.472   3.560   9.035 -0.6636 -1.3922  1.4411
  167SOPE     N18755   6.644   0.772   5.940  0.3694 -0.0684 -0.0578
  167SOPE   HN118756   6.690   0.864   5.953  2.6590 -1.1077 -0.3147
  167SOPE   HN218757   6.683   0.724   6.024  1.0691  2.0555  0.8909
  167SOPE   HN318758   6.701   0.719   5.871  1.3227 -0.0468  0.6992
  167SOPE   C1218759   6.494   0.776   5.943  0.0499 -0.4620 -0.2336
  167SOPE  H12A18760   6.456   0.676   5.914 -1.4565  0.4575 -1.5858
  167SOPE  H12B18761   6.449   0.849   5.873 -0.4841  1.1303  1.6531
  167SOPE   C1118762   6.444   0.813   6.087 -0.5347 -0.4853 -0.0842
  167SOPE  H11A18763   6.349   0.865   6.059 -0.6525 -0.9648 -0.5856
  167SOPE  H11B18764   6.495   0.897   6.140  1.0289 -2.9297  2.5621
  167SOPE     P18765   6.545   0.667   6.270 -0.1429 -0.3320  0.0910
  167SOPE   O1318766   6.665   0.649   6.184  0.1201  0.2384 -0.1362
  167SOPE   O1418767   6.506   0.555   6.351  0.1721  0.5216  0.0394
  167SOPE   O1218768   6.421   0.701   6.172  0.9006  0.1191 -0.4134
  167SOPE   O1118769   6.565   0.800   6.360  1.1944 -0.1098 -0.1317
  167SOPE    C118770   6.695   0.858   6.370  0.9968 -0.4308  0.2947
  167SOPE    HA18771   6.736   0.896   6.274  0.4579  0.7699  0.5274
  167SOPE    HB18772   6.768   0.782   6.408 -0.7835 -1.6774  1.3490
  167SOPE    C218773   6.684   0.974   6.464 -1.1253  0.1638 -0.4331
  167SOPE    HS18774   6.784   1.018   6.485 -1.6039  0.9816  0.1842
  167SOPE   O2118775   6.620   0.919   6.578 -0.3926 -0.1296  0.3520
  167SOPE   C2118776   6.706   0.878   6.671 -0.5707  0.1929 -0.2092
  167SOPE   O2218777   6.822   0.910   6.679 -0.0511 -0.2675  0.0450
  167SOPE   C2218778   6.647   0.767   6.765 -0.7638 -0.3117  0.0618
  167SOPE   H2R18779   6.664   0.667   6.721 -0.0377 -0.8465  1.4830
  167SOPE   H2S18780   6.540   0.795   6.772 -0.8720 -0.1527 -1.8092
  167SOPE    C318781   6.605   1.091   6.404  1.1359 -0.5172 -0.1192
  167SOPE    HX18782   6.508   1.057   6.362 -1.2422  0.7817  3.7902
  167SOPE    HY18783   6.668   1.120   6.317  0.2647 -1.2959 -1.0356
  167SOPE   O3118784   6.583   1.195   6.497  0.3070  0.0706  0.3435
  167SOPE   C3118785   6.466   1.184   6.560 -0.2479  0.4841 -0.2535
  167SOPE   O3218786   6.379   1.103   6.546  0.2480  0.1652  0.0488
  167SOPE   C3218787   6.472   1.285   6.674 -0.0979 -0.4926  0.0053
  167SOPE   H2X18788   6.365   1.307   6.694 -0.7923 -0.4909 -3.1404
  167SOPE   H2Y18789   6.531   1.373   6.640  1.9527 -1.8874 -0.2420
  167SOPE   C2318790   6.717   0.763   6.905  0.0038 -0.1550  0.0589
  167SOPE   H3R18791   6.796   0.841   6.906  0.3407 -0.4929  0.1508
  167SOPE   H3S18792   6.769   0.665   6.910 -1.2669 -1.3247 -4.5927
  167SOPE   C2418793   6.619   0.788   7.017  0.3012  0.5908  0.1880
  167SOPE   H4R18794   6.576   0.888   6.994  1.4217  1.1115  0.2897
  167SOPE   H4S18795   6.545   0.705   7.029 -1.1861  1.7969 -0.3167
  167SOPE   C2518796   6.685   0.800   7.149 -1.0417  0.2906  0.1596
  167SOPE   H5R18797   6.606   0.814   7.227  0.7691  0.0682  2.1415
  167SOPE   H5S18798   6.731   0.705   7.185  0.8883  1.2749  0.3710
  167SOPE   C2618799   6.790   0.912   7.169  0.2309  0.3476  0.3720
  167SOPE   H6R18800   6.885   0.900   7.114 -0.4235 -2.1419 -0.3388
  167SOPE   H6S18801   6.740   1.006   7.136  1.1632  1.6240  2.4035
  167SOPE   C2718802   6.836   0.927   7.313 -0.4215 -0.6064  0.5874
  167SOPE   H7R18803   6.906   1.014   7.318  1.6597 -2.1642 -0.0717
  167SOPE   H7S18804   6.753   0.949   7.384 -2.8966  0.1120 -2.3218
  167SOPE   C2818805   6.927   0.812   7.358  0.2583 -0.6943  0.4607
  167SOPE   H8R18806   6.874   0.715   7.363 -0.0414 -0.5460  0.1775
  167SOPE   H8S18807   7.005   0.803   7.279  0.2510 -1.4016  0.5312
  167SOPE   C2918808   6.994   0.849   7.486 -0.1465  0.5538  0.0411
  167SOPE   H9118809   7.075   0.923   7.493  1.3718 -1.0221 -0.1541
  167SOPE  C21018810   6.939   0.792   7.597 -0.2076 -0.8135 -0.7583
  167SOPE  H10118811   6.995   0.801   7.692  0.1157 -2.3453 -0.7646
  167SOPE  C21118812   6.817   0.693   7.616 -0.3231 -0.9441 -0.0833
  167SOPE  H11R18813   6.738   0.719   7.543  0.3722  4.1534  0.6130
  167SOPE  H11S18814   6.769   0.707   7.715 -0.1017 -0.0577 -0.0940
  167SOPE  C21218815   6.870   0.549   7.583 -0.0105  0.6064  0.1676
  167SOPE  H12R18816   6.961   0.528   7.643  0.1473 -1.5592 -0.7489
  167SOPE  H12S18817   6.902   0.553   7.477 -0.7163  1.0211 -0.0306
  167SOPE  C21318818   6.769   0.434   7.600 -0.2758 -0.8701  0.4357
  167SOPE  H13R18819   6.742   0.434   7.708 -0.4349  3.9616  0.5988
  167SOPE  H13S18820   6.814   0.340   7.562 -2.2489 -1.7961  0.2510
  167SOPE  C21418821   6.641   0.458   7.526 -0.0819 -0.0673 -0.3527
  167SOPE  H14R18822   6.607   0.552   7.576  1.8026  0.0974  0.7086
  167SOPE  H14S18823   6.582   0.368   7.556  1.2385 -0.1645  2.2477
  167SOPE  C21518824   6.643   0.471   7.373  0.3704  0.2996 -0.0105
  167SOPE  H15R18825   6.721   0.408   7.325  0.1708  1.5999 -2.1998
  167SOPE  H15S18826   6.666   0.578   7.351  1.6999  0.6243  2.6190
  167SOPE  C21618827   6.506   0.429   7.306  0.1959 -0.0877 -0.0770
  167SOPE  H16R18828   6.438   0.517   7.299  0.0297 -0.3241 -1.8173
  167SOPE  H16S18829   6.457   0.353   7.370  0.6920  0.4192  0.9271
  167SOPE  C21718830   6.532   0.372   7.167  0.2164  0.2704 -0.1137
  167SOPE  H17R18831   6.576   0.271   7.173 -0.0249  0.1689 -0.0331
  167SOPE  H17S18832   6.602   0.435   7.108  1.1042 -0.9193 -0.3446
  167SOPE  C21818833   6.408   0.358   7.079 -1.1507  0.2222 -0.1420
  167SOPE  H18R18834   6.334   0.293   7.130 -0.9354 -1.0164 -1.3410
  167SOPE  H18S18835   6.430   0.311   6.981 -0.2322  1.2341 -0.4418
  167SOPE  H18T18836   6.356   0.453   7.052 -0.9005 -0.1310 -1.9889
  167SOPE   C3318837   6.544   1.236   6.800 -0.2263  0.8255 -0.3180
  167SOPE   H3X18838   6.653   1.217   6.798 -0.3132  0.0930  0.9248
  167SOPE   H3Y18839   6.495   1.143   6.836 -0.4178  0.6349 -1.0533
  167SOPE   C3418840   6.520   1.338   6.912  0.7416  0.0224 -0.8947
  167SOPE   H4X18841   6.414   1.359   6.938  1.6657 -0.4115  4.3628
  167SOPE   H4Y18842   6.567   1.436   6.892  0.2389  0.8239  1.4996
  167SOPE   C3518843   6.590   1.307   7.049 -0.3303  0.3510 -0.0096
  167SOPE   H5X18844   6.698   1.334   7.041 -0.3461  0.0113 -1.7888
  167SOPE   H5Y18845   6.582   1.199   7.075  0.6687  0.7078  1.9226
  167SOPE   C3618846   6.521   1.385   7.164 -0.2121 -0.3916 -0.6306
  167SOPE   H6X18847   6.433   1.324   7.194 -0.5523  0.3467 -0.0724
  167SOPE   H6Y18848   6.500   1.490   7.132 -0.5911  0.5872  2.4145
  167SOPE   C3718849   6.596   1.395   7.306  0.3730 -0.2160 -0.2303
  167SOPE   H7X18850   6.541   1.463   7.375  2.3304 -0.5261  1.7514
  167SOPE   H7Y18851   6.696   1.441   7.292  0.2123 -0.4319 -2.2777
  167SOPE   C3818852   6.609   1.253   7.370  0.2996  0.3579  0.2323
  167SOPE   H8X18853   6.680   1.202   7.301  0.3985  2.2852 -1.1877
  167SOPE   H8Y18854   6.513   1.199   7.375  0.1710  0.6877  1.8814
  167SOPE   C3918855   6.676   1.264   7.505 -0.1256  0.0360  0.0562
  167SOPE   H9X18856   6.622   1.348   7.554 -3.0438 -0.2792 -2.2970
  167SOPE   H9Y18857   6.776   1.310   7.487 -0.9809  1.1364 -2.3436
  167SOPE  C31018858   6.694   1.150   7.602 -0.2726  0.3809  0.0761
  167SOPE  H10X18859   6.746   1.067   7.549  1.5335  1.6505 -0.2321
  167SOPE  H10Y18860   6.595   1.103   7.614 -0.5030  0.1246 -2.4595
  167SOPE  C31118861   6.763   1.192   7.733 -0.3892 -0.4533 -0.4499
  167SOPE  H11X18862   6.773   1.108   7.804  2.5500  0.0964 -0.0826
  167SOPE  H11Y18863   6.711   1.276   7.783  0.0679 -0.3124 -0.2069
  167SOPE  C31218864   6.912   1.242   7.714 -1.3225 -0.5223 -0.4053
  167SOPE  H12X18865   6.916   1.333   7.651  0.0651 -1.2370 -1.4318
  167SOPE  H12Y18866   6.970   1.169   7.654  1.4001  2.4559 -1.7272
  167SOPE  C31318867   6.995   1.258   7.850  0.0785 -0.0649 -0.0376
  167SOPE  H13X18868   6.939   1.306   7.933 -1.0334 -0.8886 -0.2737
  167SOPE  H13Y18869   7.072   1.333   7.821 -2.2670  1.9935 -1.3774
  167SOPE  C31418870   7.058   1.129   7.909 -0.1225 -0.0722  0.4856
  167SOPE  H14X18871   6.986   1.063   7.961 -0.4636 -0.0119  0.0939
  167SOPE  H14Y18872   7.123   1.167   7.991 -0.3596 -1.5034  1.3579
  167SOPE  C31518873   7.152   1.055   7.810  0.3072 -0.5262  0.2842
  167SOPE  H15X18874   7.200   1.124   7.737 -0.4385 -2.2587 -1.9313
  167SOPE  H15Y18875   7.103   0.971   7.756 -0.2324 -1.8403  2.6652
  167SOPE  C31618876   7.275   0.990   7.894 -0.1266  0.0603  0.7495
  167SOPE  H16X18877   7.224   0.932   7.974 -2.9279  0.1543 -0.8640
  167SOPE  H16Y18878   7.329   1.078   7.936  1.7159 -1.0776  0.9142
  167SOPE  C31718879   7.370   0.913   7.797  0.0239  0.4131  0.0831
  167SOPE  H17X18880   7.464   0.893   7.854  0.3289  2.5550  0.3993
  167SOPE  H17Y18881   7.400   0.968   7.706  1.9266  0.2533  0.5712
  167SOPE  C31818882   7.305   0.784   7.743  0.1910 -0.4764  0.1666
  167SOPE  H18X18883   7.256   0.727   7.825 -1.0766  0.2022 -0.0970
  167SOPE  H18Y18884   7.377   0.729   7.680 -0.7198  1.2844 -2.5916
  167SOPE  H18Z18885   7.243   0.824   7.660 -1.3702  0.2495  1.6212
  168SOPE     N18886   0.174   3.512   6.052  0.0172  0.1412  0.0531
  168SOPE   HN118887   0.131   3.417   6.051 -0.3354  0.2660  1.2303
  168SOPE   HN218888   0.108   3.568   6.111 -1.1897 -1.4757  0.3184
  168SOPE   HN318889   0.172   3.548   5.955 -0.2426 -3.4535 -1.4297
  168SOPE   C1218890   0.315   3.517   6.100 -0.0688  0.4032 -0.1348
  168SOPE  H12A18891   0.356   3.430   6.045 -1.0607 -0.3410  0.2860
  168SOPE  H12B18892   0.306   3.497   6.209  1.5368  1.2714  0.1973
  168SOPE   C1118893   0.384   3.655   6.096  0.2547  0.0327  0.2396
  168SOPE  H11A18894   0.415   3.674   5.991 -0.2553 -1.4510 -0.2020
  168SOPE  H11B18895   0.477   3.659   6.156 -0.0986 -0.9474  0.8544
  168SOPE     P18896   0.343   3.872   6.232 -0.0490  0.4457  0.0320
  168SOPE   O1318897   0.235   3.971   6.240  0.0404 -0.1756  0.5238
  168SOPE   O1418898   0.472   3.922   6.179 -0.5198  0.3988 -0.0692
  168SOPE   O1218899   0.287   3.757   6.136 -0.0869 -0.2411 -0.8499
  168SOPE   O1118900   0.366   3.796   6.366  0.4920  0.1336 -0.4238
  168SOPE    C118901   0.270   3.721   6.445 -0.5373  0.2907 -1.0039
  168SOPE    HA18902   0.304   3.617   6.467  0.3538  0.5166 -1.2756
  168SOPE    HB18903   0.174   3.696   6.396 -0.6026 -1.1700 -0.2048
  168SOPE    C218904   0.231   3.810   6.569 -0.0506  0.7389  0.1197
  168SOPE    HS18905   0.206   3.907   6.522  0.3368  0.7621 -0.0469
  168SOPE   O2118906   0.355   3.822   6.642 -0.0494  0.1289  0.0799
  168SOPE   C2118907   0.353   3.910   6.736 -0.2685 -0.2838  0.2190
  168SOPE   O2218908   0.261   3.983   6.768  0.1677  0.2920  0.0694
  168SOPE   C2218909   0.476   3.890   6.816  0.5115  0.0968 -0.0225
  168SOPE   H2R18910   0.500   3.980   6.877  1.4932  0.6234 -1.1368
  168SOPE   H2S18911   0.558   3.888   6.740  0.9045 -1.0143  0.4167
  168SOPE    C318912   0.122   3.725   6.649 -0.1982  0.2122 -0.0010
  168SOPE    HX18913   0.174   3.629   6.672 -1.5743 -1.1224 -2.1289
  168SOPE    HY18914   0.037   3.708   6.579  0.8100 -1.2288 -0.9219
  168SOPE   O3118915   0.078   3.798   6.774 -0.0896 -0.6744  0.0626
  168SOPE   C3118916  -0.032   3.870   6.753  0.4181  0.4288 -0.3167
  168SOPE   O3218917  -0.081   3.896   6.642 -0.4984 -0.1674  0.6855
  168SOPE   C3218918  -0.090   3.926   6.888 -0.2518  0.3446 -0.2373
  168SOPE   H2X18919  -0.197   3.897   6.897  0.0508 -0.7234  0.0559
  168SOPE   H2Y18920  -0.096   4.036   6.873  0.6518  0.8971  2.7714
  168SOPE   C2318921   0.487   3.759   6.901  0.1250  0.5119 -0.0560
  168SOPE   H3R18922   0.583   3.760   6.956 -0.4689  1.5644  0.9787
  168SOPE   H3S18923   0.480   3.667   6.837 -0.3163  1.9760 -2.2377
  168SOPE   C2418924   0.366   3.759   6.994 -0.5148 -0.1671  0.7809
  168SOPE   H4R18925   0.364   3.859   7.043 -0.0112 -0.6939  1.9129
  168SOPE   H4S18926   0.269   3.749   6.941 -1.7158 -0.2263  2.8855
  168SOPE   C2518927   0.391   3.670   7.110  0.5153  0.4066  0.0505
  168SOPE   H5R18928   0.388   3.563   7.082 -0.7983  0.6015 -0.6146
  168SOPE   H5S18929   0.495   3.687   7.146 -0.3538  1.0792  2.4048
  168SOPE   C2618930   0.292   3.690   7.222 -0.5410 -0.0031  0.6689
  168SOPE   H6R18931   0.302   3.796   7.254  0.7010  0.6328 -1.5858
  168SOPE   H6S18932   0.186   3.672   7.195 -0.8699  0.2904  1.7247
  168SOPE   C2718933   0.329   3.601   7.349  0.6682  0.5277  0.0735
  168SOPE   H7R18934   0.305   3.494   7.328 -0.2968  1.1387 -2.3345
  168SOPE   H7S18935   0.439   3.614   7.348  1.0497 -1.6105 -3.0380
  168SOPE   C2818936   0.274   3.653   7.484  0.3326  0.7300 -0.6082
  168SOPE   H8R18937   0.350   3.624   7.560  0.2178  1.2464 -0.2892
  168SOPE   H8S18938   0.287   3.763   7.483 -0.2712  0.8174  0.3453
  168SOPE   C2918939   0.132   3.619   7.514  0.4278 -0.4029  0.3747
  168SOPE   H9118940   0.061   3.695   7.479  0.4617  0.3842  1.9368
  168SOPE  C21018941   0.090   3.522   7.590  0.2163  0.7335 -0.3594
  168SOPE  H10118942  -0.018   3.509   7.602  0.3298  1.0218  1.0857
  168SOPE  C21118943   0.179   3.423   7.669  0.1359 -0.2173  0.1586
  168SOPE  H11R18944   0.285   3.426   7.638 -0.5373 -0.6201 -2.4695
  168SOPE  H11S18945   0.148   3.320   7.642  0.2454 -0.3293  0.4641
  168SOPE  C21218946   0.177   3.453   7.816  1.1131  0.7793 -0.7455
  168SOPE  H12R18947   0.074   3.466   7.855  0.6323  0.6461 -1.9161
  168SOPE  H12S18948   0.233   3.547   7.833  0.9312  0.5047  1.7065
  168SOPE  C21318949   0.247   3.347   7.895 -0.4038  0.1499 -0.0560
  168SOPE  H13R18950   0.352   3.333   7.861 -0.3773 -0.2446  0.1823
  168SOPE  H13S18951   0.200   3.248   7.880  1.8479 -1.0307  0.1655
  168SOPE  C21418952   0.263   3.372   8.044  0.4956 -0.1096 -0.1794
  168SOPE  H14R18953   0.336   3.454   8.058 -0.1631  0.6973 -1.2859
  168SOPE  H14S18954   0.297   3.275   8.087  1.0503  0.6079  1.0472
  168SOPE  C21518955   0.129   3.399   8.127 -0.1790 -0.0394  0.2458
  168SOPE  H15R18956   0.062   3.314   8.104 -0.5028  0.1637  0.4368
  168SOPE  H15S18957   0.100   3.498   8.086  0.6878  1.0789  2.2159
  168SOPE  C21618958   0.160   3.396   8.278 -0.0040  0.3445  0.5006
  168SOPE  H16R18959   0.215   3.302   8.301 -1.8640 -0.7080  0.9279
  168SOPE  H16S18960   0.063   3.391   8.332  0.6872  0.8722  1.8240
  168SOPE  C21718961   0.228   3.525   8.342  0.0523  0.3141 -0.4046
  168SOPE  H17R18962   0.155   3.606   8.323  1.7837  2.0538  0.0778
  168SOPE  H17S18963   0.311   3.563   8.278 -0.2816 -0.9545 -1.6475
  168SOPE  C21818964   0.261   3.521   8.491  0.2973 -0.2536 -0.6016
  168SOPE  H18R18965   0.175   3.547   8.557  3.1627 -0.1827  3.4625
  168SOPE  H18S18966   0.350   3.584   8.509  0.7413 -0.9929 -0.1729
  168SOPE  H18T18967   0.289   3.416   8.514 -1.6085 -0.0438  3.6281
  168SOPE   C3318968   0.005   3.889   7.011  0.0884 -0.0146  0.4239
  168SOPE   H3X18969   0.113   3.910   7.002  0.6417 -1.4918  2.9457
  168SOPE   H3Y18970   0.002   3.781   7.037 -1.6778  0.5268  2.8673
  168SOPE   C3418971  -0.036   3.980   7.135  0.1474 -0.1162  0.3125
  168SOPE   H4X18972  -0.145   3.972   7.154  0.0276 -1.1467 -0.6304
  168SOPE   H4Y18973  -0.023   4.088   7.113  0.4647 -0.5366 -1.7615
  168SOPE   C3518974   0.051   3.963   7.251 -0.3892 -0.2237 -0.1624
  168SOPE   H5X18975   0.161   3.963   7.232 -0.9183 -2.1098 -4.4641
  168SOPE   H5Y18976   0.027   3.864   7.297 -0.3851 -0.1455  0.0101
  168SOPE   C3618977   0.025   4.059   7.370  0.1600 -0.4382  0.6696
  168SOPE   H6X18978  -0.079   4.044   7.406 -1.0356  0.4870 -2.1923
  168SOPE   H6Y18979   0.023   4.167   7.347  0.1258 -0.2076  1.6772
  168SOPE   C3718980   0.125   4.031   7.485 -0.8239  0.7138  0.5911
  168SOPE   H7X18981   0.228   4.048   7.447 -0.1239 -3.6587  0.0322
  168SOPE   H7Y18982   0.123   3.925   7.520  1.4807  0.2142 -0.5504
  168SOPE   C3818983   0.100   4.117   7.607 -0.9478 -0.0216  0.2527
  168SOPE   H8X18984  -0.004   4.092   7.637 -2.0886  1.3773 -2.2505
  168SOPE   H8Y18985   0.097   4.222   7.571  1.1041 -0.3921 -1.1193
  168SOPE   C3918986   0.203   4.095   7.718  0.7042 -0.4539  0.2764
  168SOPE   H9X18987   0.303   4.115   7.674  1.1261 -2.9951 -0.0741
  168SOPE   H9Y18988   0.199   3.989   7.752  1.3444 -0.8167 -0.7278
  168SOPE  C31018989   0.181   4.191   7.839 -0.1352  0.0801 -0.0745
  168SOPE  H10X18990   0.073   4.187   7.864 -0.3703  3.0890 -0.2612
  168SOPE  H10Y18991   0.204   4.294   7.805  0.6045  0.0955  0.4507
  168SOPE  C31118992   0.257   4.128   7.964 -0.2202 -0.0361  0.3372
  168SOPE  H11X18993   0.362   4.104   7.936 -0.5817 -0.8406 -0.4055
  168SOPE  H11Y18994   0.202   4.034   7.989 -0.8603  0.7309  1.9000
  168SOPE  C31218995   0.233   4.208   8.091  0.4688 -1.3852 -0.7834
  168SOPE  H12X18996   0.123   4.200   8.106  0.6728 -2.4983  0.2657
  168SOPE  H12Y18997   0.253   4.317   8.079 -0.9115 -1.1527 -1.0952
  168SOPE  C31318998   0.307   4.150   8.212  0.1213  0.3806 -0.3458
  168SOPE  H13X18999   0.417   4.156   8.205  0.3906  1.7818  3.1845
  168SOPE  H13Y19000   0.287   4.042   8.197  2.8243 -0.4326  1.3420
  168SOPE  C31419001   0.258   4.198   8.350  0.8437 -0.6789 -1.0994
  168SOPE  H14X19002   0.151   4.226   8.334  1.1935  0.6677 -1.1709
  168SOPE  H14Y19003   0.316   4.288   8.379  2.1716 -2.2818  1.5385
  168SOPE  C31519004   0.280   4.098   8.466  0.3905  0.2736 -0.4105
  168SOPE  H15X19005   0.382   4.053   8.466  0.6471  0.8378  0.5994
  168SOPE  H15Y19006   0.205   4.016   8.458 -0.2469  0.7394  0.6678
  168SOPE  C31619007   0.261   4.145   8.608  0.5629  0.0438 -0.6304
  168SOPE  H16X19008   0.154   4.169   8.628  0.1760 -0.1299 -2.3637
  168SOPE  H16Y19009   0.307   4.246   8.619 -0.9172  0.7973 -1.0439
  168SOPE  C31719010   0.302   4.043   8.716 -0.4293 -0.2911  0.3892
  168SOPE  H17X19011   0.302   4.109   8.806  1.3042  2.9888 -1.7915
  168SOPE  H17Y19012   0.407   4.025   8.684 -0.5214 -0.5728  0.2542
  168SOPE  C31819013   0.223   3.914   8.718  0.6856 -0.0614  0.8200
  168SOPE  H18X19014   0.117   3.930   8.747  1.4157  1.6185  2.7934
  168SOPE  H18Y19015   0.278   3.843   8.784  3.8314 -0.9677 -2.4937
  168SOPE  H18Z19016   0.231   3.863   8.620  1.5565  1.7988 -0.1080
  169SOPE     N19017   1.361   5.499   6.288  0.3323  0.3221  0.5459
  169SOPE   HN119018   1.385   5.455   6.379 -1.0390 -0.0144  0.7733
  169SOPE   HN219019   1.443   5.546   6.245 -0.4469  0.1891 -1.1756
  169SOPE   HN319020   1.291   5.575   6.303  1.0510  1.1486 -0.2255
  169SOPE   C1219021   1.303   5.385   6.206 -0.8541 -0.6561 -0.1543
  169SOPE  H12A19022   1.374   5.356   6.125  2.2421  1.6772  1.5093
  169SOPE  H12B19023   1.211   5.423   6.156 -0.7579 -0.3464 -0.0972
  169SOPE   C1119024   1.265   5.261   6.292  0.6559 -0.8882 -0.1418
  169SOPE  H11A19025   1.246   5.173   6.228 -1.6319 -0.2718 -0.4080
  169SOPE  H11B19026   1.173   5.286   6.348  0.2236  2.4895 -2.0914
  169SOPE     P19027   1.375   5.113   6.466 -0.1637 -0.3069 -0.0524
  169SOPE   O1319028   1.473   5.107   6.576 -0.1231 -0.6072  0.0205
  169SOPE   O1419029   1.379   5.009   6.365 -0.1098  0.1262  0.4139
  169SOPE   O1219030   1.377   5.245   6.383  0.1636  0.0410  0.4007
  169SOPE   O1119031   1.233   5.115   6.536  0.2187  0.6513  0.4533
  169SOPE    C119032   1.203   5.209   6.642 -1.0458  0.2271 -0.2521
  169SOPE    HA19033   1.098   5.237   6.623 -1.9310 -2.3357  0.4734
  169SOPE    HB19034   1.271   5.296   6.636 -0.4209 -0.2708 -0.6352
  169SOPE    C219035   1.232   5.147   6.790  0.0686 -0.7571  0.8180
  169SOPE    HS19036   1.336   5.111   6.808 -0.0293 -0.7876  1.3558
  169SOPE   O2119037   1.138   5.045   6.808 -0.2098 -0.1968 -0.1983
  169SOPE   C2119038   1.159   4.962   6.910  0.1673  0.2921 -0.4450
  169SOPE   O2219039   1.267   4.958   6.973 -0.2906 -0.0459  0.1206
  169SOPE   C2219040   1.058   4.848   6.918 -0.2968 -0.4657 -0.0974
  169SOPE   H2R19041   1.063   4.794   6.820 -0.1733  1.4979 -1.2183
  169SOPE   H2S19042   0.964   4.903   6.939  0.0376  1.2407 -2.5703
  169SOPE    C319043   1.209   5.269   6.888  0.1099 -0.1556  0.8356
  169SOPE    HX19044   1.099   5.282   6.875 -0.0845 -0.4432  2.0550
  169SOPE    HY19045   1.265   5.356   6.849 -3.1773  1.1664 -1.4106
  169SOPE   O3119046   1.231   5.226   7.021  0.4853 -0.4930 -0.1377
  169SOPE   C3119047   1.347   5.261   7.074 -0.0326 -0.2481  0.1751
  169SOPE   O3219048   1.435   5.326   7.016  0.4734  0.0562  0.7195
  169SOPE   C3219049   1.333   5.234   7.225  0.1930 -0.0210  0.5963
  169SOPE   H2X19050   1.251   5.161   7.245  1.3494 -2.4157 -2.5144
  169SOPE   H2Y19051   1.309   5.332   7.272  0.8659 -0.5657  2.1488
  169SOPE   C2319052   1.076   4.751   7.047 -0.2691  0.6698  0.2336
  169SOPE   H3R19053   1.180   4.714   7.040 -0.5646  0.0908 -1.8023
  169SOPE   H3S19054   1.008   4.666   7.026 -0.8096  1.0840  0.2674
  169SOPE   C2419055   1.051   4.810   7.182  0.4963 -0.6891 -0.5533
  169SOPE   H4R19056   1.081   4.917   7.190  2.3289 -1.2897  1.8951
  169SOPE   H4S19057   0.941   4.807   7.200 -0.0896 -0.2832 -3.5942
  169SOPE   C2519058   1.124   4.748   7.299  0.4865  0.8924 -0.1175
  169SOPE   H5R19059   1.101   4.641   7.314  2.2565  0.8113  2.7923
  169SOPE   H5S19060   1.229   4.761   7.264  0.7900  1.8029  1.0305
  169SOPE   C2619061   1.112   4.824   7.433 -0.6519 -0.3405 -0.0017
  169SOPE   H6R19062   1.104   4.932   7.408  2.0273 -0.4127 -1.5323
  169SOPE   H6S19063   1.015   4.796   7.480 -1.7705  2.6961 -0.2940
  169SOPE   C2719064   1.222   4.785   7.531 -0.1796  0.0426  0.7849
  169SOPE   H7R19065   1.243   4.676   7.526 -0.5945  0.0090 -1.8298
  169SOPE   H7S19066   1.313   4.844   7.507 -0.5252 -0.0631 -0.8893
  169SOPE   C2819067   1.182   4.823   7.672 -0.5970  0.2858 -0.2842
  169SOPE   H8R19068   1.274   4.832   7.734 -0.0283 -0.0995 -1.0563
  169SOPE   H8S19069   1.133   4.924   7.670 -0.0656  0.5348 -1.0964
  169SOPE   C2919070   1.080   4.726   7.731 -0.0089 -0.0072  0.3928
  169SOPE   H9119071   0.999   4.692   7.665 -1.4015  0.6428  1.7321
  169SOPE  C21019072   1.088   4.669   7.852  0.7063 -0.7605 -0.0082
  169SOPE  H10119073   1.005   4.600   7.870 -1.7433  1.9832  0.0508
  169SOPE  C21119074   1.191   4.692   7.964  0.2889 -0.2145 -0.5200
  169SOPE  H11R19075   1.287   4.726   7.921  1.3346 -0.2591  1.6399
  169SOPE  H11S19076   1.213   4.594   8.011 -0.0548  0.8316  2.0165
  169SOPE  C21219077   1.162   4.798   8.067  0.2831 -0.6211  0.0388
  169SOPE  H12R19078   1.172   4.900   8.023  1.3498 -0.1661  1.2686
  169SOPE  H12S19079   1.246   4.793   8.140  0.6465  0.0275 -0.3228
  169SOPE  C21319080   1.022   4.784   8.135  0.7110 -0.2420  0.4803
  169SOPE  H13R19081   1.033   4.685   8.185  2.0062 -1.0049 -1.1898
  169SOPE  H13S19082   0.946   4.783   8.053  1.8165 -2.8596 -0.6441
  169SOPE  C21419083   1.009   4.897   8.239  0.6843  0.1508 -0.0539
  169SOPE  H14R19084   0.908   4.894   8.285  1.2034 -2.4440  1.1094
  169SOPE  H14S19085   1.004   5.001   8.200 -1.3788  0.5068  1.0332
  169SOPE  C21519086   1.111   4.885   8.349  0.0132 -0.0264 -0.1288
  169SOPE  H15R19087   1.215   4.904   8.313  0.4917  1.3947  1.8176
  169SOPE  H15S19088   1.102   4.784   8.393 -1.8754 -0.1107 -0.6241
  169SOPE  C21619089   1.081   5.004   8.449 -0.4580 -0.4602 -0.0639
  169SOPE  H16R19090   0.974   5.000   8.479 -0.5608 -1.1410 -0.4988
  169SOPE  H16S19091   1.097   5.102   8.399  0.9885 -0.7966 -0.3068
  169SOPE  C21719092   1.158   4.999   8.583  0.7502  0.2623  0.1476
  169SOPE  H17R19093   1.142   5.084   8.652 -0.8996 -1.6853  2.3433
  169SOPE  H17S19094   1.264   5.008   8.552 -0.0840  2.5527 -2.4468
  169SOPE  C21819095   1.126   4.887   8.676  0.1686 -0.7659  0.0290
  169SOPE  H18R19096   1.148   4.788   8.630  1.9008 -0.1875 -0.4695
  169SOPE  H18S19097   1.022   4.900   8.712  0.1493  0.6397 -0.4893
  169SOPE  H18T19098   1.202   4.876   8.756  0.8022 -2.0464 -0.7193
  169SOPE   C3319099   1.462   5.201   7.307 -0.0775  0.3222 -0.1187
  169SOPE   H3X19100   1.547   5.266   7.275 -1.1697  2.2281  0.6713
  169SOPE   H3Y19101   1.498   5.098   7.286 -0.7177  0.2071 -0.7082
  169SOPE   C3419102   1.444   5.210   7.463  0.8183  0.6694 -0.2306
  169SOPE   H4X19103   1.375   5.125   7.484  1.6986 -0.4216 -1.5831
  169SOPE   H4Y19104   1.406   5.305   7.505  1.4480  1.4638 -1.3971
  169SOPE   C3519105   1.580   5.181   7.534 -0.0323 -0.3248  0.0172
  169SOPE   H5X19106   1.663   5.230   7.479  1.2881 -1.6711  0.7618
  169SOPE   H5Y19107   1.609   5.075   7.522  0.4791 -0.5223  2.6050
  169SOPE   C3619108   1.566   5.218   7.679  0.0393  0.5172 -0.4923
  169SOPE   H6X19109   1.530   5.321   7.701 -0.3703  0.0407  1.2773
  169SOPE   H6Y19110   1.667   5.206   7.723 -0.0588 -2.0823 -0.7928
  169SOPE   C3719111   1.478   5.122   7.753  0.8131  0.2127 -0.4102
  169SOPE   H7X19112   1.520   5.022   7.727  1.2685  0.5962 -1.1779
  169SOPE   H7Y19113   1.374   5.123   7.713  0.5706 -1.6214  0.0769
  169SOPE   C3819114   1.481   5.140   7.907  0.3932 -0.8675 -0.4955
  169SOPE   H8X19115   1.430   5.050   7.946 -1.0094 -0.8303 -2.1416
  169SOPE   H8Y19116   1.586   5.135   7.945  0.1108  0.5596  0.5318
  169SOPE   C3919117   1.390   5.245   7.974 -0.3583 -0.1797 -0.3393
  169SOPE   H9X19118   1.299   5.255   7.911 -0.2001  1.1640 -0.3902
  169SOPE   H9Y19119   1.435   5.347   7.972 -0.5241 -0.0325  1.3717
  169SOPE  C31019120   1.358   5.218   8.122 -0.0998  0.8431  0.0422
  169SOPE  H10X19121   1.457   5.202   8.171 -0.4748 -2.3539  0.0060
  169SOPE  H10Y19122   1.306   5.120   8.123 -0.8707  1.2473 -0.0294
  169SOPE  C31119123   1.275   5.312   8.202  0.3705  0.2313  1.0321
  169SOPE  H11X19124   1.249   5.260   8.297 -1.5335  0.7105  0.8203
  169SOPE  H11Y19125   1.178   5.318   8.147  0.8162 -2.5601 -0.1884
  169SOPE  C31219126   1.339   5.442   8.220  0.7560  0.2134 -0.2478
  169SOPE  H12X19127   1.352   5.500   8.127  0.2266 -0.6073 -0.8442
  169SOPE  H12Y19128   1.424   5.413   8.286 -0.8997 -0.2334  1.8067
  169SOPE  C31319129   1.262   5.532   8.313  0.0831 -0.0372  0.2609
  169SOPE  H13X19130   1.291   5.514   8.419  1.4156  3.5206  0.6490
  169SOPE  H13Y19131   1.154   5.508   8.301  0.1432 -0.2362  0.0902
  169SOPE  C31419132   1.288   5.685   8.282  0.3611 -0.0005  0.3979
  169SOPE  H14X19133   1.252   5.711   8.180 -0.0354 -0.3822  0.4401
  169SOPE  H14Y19134   1.397   5.704   8.289  0.6104 -0.7573 -0.9467
  169SOPE  C31519135   1.195   5.771   8.372 -0.8538 -0.5478  0.6540
  169SOPE  H15X19136   1.230   5.765   8.478  0.4120  2.7175  0.5572
  169SOPE  H15Y19137   1.094   5.727   8.368 -0.1792 -2.0885 -0.2142
  169SOPE  C31619138   1.183   5.916   8.320 -0.0774 -0.2850 -0.1774
  169SOPE  H16X19139   1.155   5.906   8.213  2.1127  2.2016 -1.0868
  169SOPE  H16Y19140   1.282   5.964   8.302 -0.5713  0.2176 -1.7419
  169SOPE  C31719141   1.091   6.018   8.395  0.6158  0.6731  0.0502
  169SOPE  H17X19142   1.112   6.120   8.355  0.6862  1.2657  1.5456
  169SOPE  H17Y19143   1.115   6.031   8.502 -2.2721  0.6417  0.7855
  169SOPE  C31819144   0.939   5.975   8.370  0.4567  0.3129  0.1612
  169SOPE  H18X19145   0.917   5.933   8.270  0.4911  1.3527 -0.3041
  169SOPE  H18Y19146   0.882   6.069   8.388  2.0345  1.4410 -0.4059
  169SOPE  H18Z19147   0.918   5.896   8.444 -1.5113 -1.1568 -1.8233
  170SOPE     N19148   1.809   2.321   6.030  0.0769  0.0264 -0.8838
  170SOPE   HN119149   1.837   2.421   6.023  1.4176 -0.1304  1.2172
  170SOPE   HN219150   1.852   2.267   5.953 -1.5631 -1.4116 -0.8395
  170SOPE   HN319151   1.707   2.310   6.013 -0.0318 -0.4841  0.0091
  170SOPE   C1219152   1.856   2.272   6.168  0.7370  0.0385  1.2680
  170SOPE  H12A19153   1.799   2.177   6.179 -0.9482  0.6074 -1.5308
  170SOPE  H12B19154   1.805   2.345   6.234  0.9499  0.2041  1.2503
  170SOPE   C1119155   2.010   2.265   6.178  0.5575 -0.1393  0.2011
  170SOPE  H11A19156   2.044   2.179   6.118 -0.4063  0.0009 -0.5676
  170SOPE  H11B19157   2.019   2.252   6.288  1.2727 -1.4231  0.0094
  170SOPE     P19158   2.218   2.411   6.156 -0.2165 -0.2533 -0.1868
  170SOPE   O1319159   2.267   2.499   6.056 -0.3133  0.7543 -0.1940
  170SOPE   O1419160   2.281   2.275   6.159 -0.0644 -0.1346  0.4180
  170SOPE   O1219161   2.066   2.385   6.136 -0.5290 -0.5399  0.5336
  170SOPE   O1119162   2.240   2.482   6.297  0.5281 -0.0360  0.1109
  170SOPE    C119163   2.128   2.509   6.386  0.4048  0.1508  0.1321
  170SOPE    HA19164   2.110   2.427   6.458 -0.8034 -1.4218 -1.8434
  170SOPE    HB19165   2.032   2.519   6.330  1.7795  2.3051 -2.1003
  170SOPE    C219166   2.151   2.647   6.450 -0.1627  0.2030  0.2795
  170SOPE    HS19167   2.194   2.712   6.371  0.0789  1.3358  1.3227
  170SOPE   O2119168   2.239   2.618   6.565  0.0481 -0.1795  0.2528
  170SOPE   C2119169   2.305   2.730   6.608  0.8775  0.1025  0.2788
  170SOPE   O2219170   2.297   2.838   6.547  0.2866 -0.3498 -0.1707
  170SOPE   C2219171   2.382   2.699   6.738 -0.4776 -0.0895 -0.0631
  170SOPE   H2R19172   2.480   2.657   6.707 -0.8074  0.9573 -2.8173
  170SOPE   H2S19173   2.326   2.633   6.808  0.2070  0.3859  0.9583
  170SOPE    C319174   2.027   2.719   6.508  0.1748  0.2012 -0.4760
  170SOPE    HX19175   1.967   2.738   6.417  0.7252 -0.4151 -0.9746
  170SOPE    HY19176   2.059   2.812   6.559 -0.4241 -0.2245  0.7242
  170SOPE   O3119177   1.948   2.632   6.599  0.2881 -0.4577 -0.2307
  170SOPE   C3119178   1.946   2.666   6.727 -0.2849 -0.3637  0.0241
  170SOPE   O3219179   2.016   2.753   6.775  0.2470 -0.0459  0.3846
  170SOPE   C3219180   1.867   2.566   6.811  0.0028  0.8539  0.0043
  170SOPE   H2X19181   1.870   2.465   6.765  0.4783  0.6200  0.5470
  170SOPE   H2Y19182   1.765   2.610   6.806 -0.6036 -0.5128  0.0368
  170SOPE   C2319183   2.404   2.822   6.822  0.1645 -0.5372  0.7926
  170SOPE   H3R19184   2.310   2.881   6.833  0.2249 -0.4212  0.6794
  170SOPE   H3S19185   2.473   2.884   6.760  0.1204 -0.5047  0.7762
  170SOPE   C2419186   2.468   2.804   6.963 -0.6546 -0.0852  0.4621
  170SOPE   H4R19187   2.501   2.699   6.975  0.5293  0.0332 -1.3063
  170SOPE   H4S19188   2.557   2.870   6.969  0.0253 -1.1215  2.5575
  170SOPE   C2519189   2.362   2.843   7.072  0.2893  0.0750  0.2982
  170SOPE   H5R19190   2.326   2.944   7.042 -0.9350 -1.1416 -2.8090
  170SOPE   H5S19191   2.276   2.773   7.063  0.5930 -0.1209 -1.4067
  170SOPE   C2619192   2.422   2.831   7.210 -0.2339 -0.0330  0.0275
  170SOPE   H6R19193   2.457   2.726   7.222 -1.1415 -0.3343  0.0940
  170SOPE   H6S19194   2.509   2.900   7.213 -1.0835  1.0658 -0.0192
  170SOPE   C2719195   2.317   2.874   7.323  0.5695 -0.2071  0.6909
  170SOPE   H7R19196   2.270   2.971   7.296  1.2701  0.3057  1.3004
  170SOPE   H7S19197   2.242   2.793   7.315  0.5637 -0.1206 -0.3402
  170SOPE   C2819198   2.378   2.895   7.455 -0.2798  0.1596  0.4589
  170SOPE   H8R19199   2.442   2.986   7.455 -3.2058  2.3657  0.3286
  170SOPE   H8S19200   2.296   2.915   7.527 -0.3000 -5.3677  2.4180
  170SOPE   C2919201   2.448   2.769   7.510 -0.0725 -0.1627  0.0014
  170SOPE   H9119202   2.444   2.670   7.464 -0.3504  0.4306 -1.3018
  170SOPE  C21019203   2.508   2.768   7.631 -0.8582 -0.2773  0.2467
  170SOPE  H10119204   2.556   2.676   7.667  0.8137  0.3144 -0.3713
  170SOPE  C21119205   2.514   2.886   7.727 -0.5235  0.2557  0.5851
  170SOPE  H11R19206   2.476   2.980   7.681 -1.4187  0.6250  2.0098
  170SOPE  H11S19207   2.616   2.907   7.767 -0.7908 -0.2643  1.5741
  170SOPE  C21219208   2.422   2.877   7.848 -0.7288 -0.5913 -0.6687
  170SOPE  H12R19209   2.316   2.888   7.816 -0.2936  1.0954 -1.6759
  170SOPE  H12S19210   2.441   2.966   7.912 -3.1605  0.2141 -0.9592
  170SOPE  C21319211   2.434   2.752   7.935 -0.4516  0.8360 -0.4811
  170SOPE  H13R19212   2.541   2.743   7.962  0.0021  3.9579 -0.8743
  170SOPE  H13S19213   2.388   2.669   7.877  0.8427  0.7377 -1.4202
  170SOPE  C21419214   2.346   2.766   8.061  0.1714 -0.2226 -0.0056
  170SOPE  H14R19215   2.237   2.771   8.039  0.3581  1.1847 -0.7152
  170SOPE  H14S19216   2.368   2.862   8.112 -0.9622  0.4485 -0.7302
  170SOPE  C21519217   2.368   2.659   8.159 -0.2107  0.4392  0.7025
  170SOPE  H15R19218   2.475   2.647   8.184 -0.3442  0.4147  1.2838
  170SOPE  H15S19219   2.359   2.559   8.112  0.7439  0.6649  0.0077
  170SOPE  C21619220   2.290   2.662   8.291  0.2230  0.3832  0.1695
  170SOPE  H16R19221   2.181   2.654   8.274  0.2150 -1.4802  0.8327
  170SOPE  H16S19222   2.324   2.753   8.345  1.3349 -0.4389  0.9245
  170SOPE  C21719223   2.323   2.538   8.375  0.1335  0.6822  0.1729
  170SOPE  H17R19224   2.270   2.545   8.472  1.7893 -1.0844  1.2535
  170SOPE  H17S19225   2.429   2.536   8.408  0.2503 -1.8659 -0.1697
  170SOPE  C21819226   2.291   2.403   8.316 -0.7490 -0.0907 -0.3671
  170SOPE  H18R19227   2.206   2.408   8.244  0.2763  1.9482 -1.5523
  170SOPE  H18S19228   2.262   2.326   8.390  1.5793  2.0446  3.0286
  170SOPE  H18T19229   2.384   2.370   8.264 -0.5830  0.1047 -0.1970
  170SOPE   C3319230   1.905   2.555   6.960 -1.0793 -0.0380 -0.3048
  170SOPE   H3X19231   2.014   2.543   6.976 -0.5694  0.4066 -3.0058
  170SOPE   H3Y19232   1.862   2.468   7.014 -0.0987 -0.5609 -0.3399
  170SOPE   C3419233   1.874   2.693   7.037 -0.9366  0.1814 -0.1193
  170SOPE   H4X19234   1.778   2.743   7.013 -0.3697  0.3030 -2.3768
  170SOPE   H4Y19235   1.953   2.767   7.013 -0.9495  0.1526 -0.2525
  170SOPE   C3519236   1.902   2.668   7.188  0.6457  0.3315  0.2028
  170SOPE   H5X19237   1.997   2.611   7.198  0.2507 -0.5198 -0.7113
  170SOPE   H5Y19238   1.825   2.605   7.236  1.5781 -1.1494 -0.1614
  170SOPE   C3619239   1.912   2.796   7.271 -0.8764  0.3383  0.6260
  170SOPE   H6X19240   1.810   2.840   7.270 -0.9427  0.5285  3.8767
  170SOPE   H6Y19241   1.987   2.870   7.235  0.7388 -1.5186  0.0246
  170SOPE   C3719242   1.943   2.759   7.416  1.1686 -0.0576 -0.1144
  170SOPE   H7X19243   2.039   2.703   7.419  0.2249 -1.7508  0.2665
  170SOPE   H7Y19244   1.854   2.700   7.447 -0.1369  1.9193  0.0045
  170SOPE   C3819245   1.950   2.879   7.505 -0.4487  0.6058  0.2135
  170SOPE   H8X19246   1.853   2.928   7.528 -0.0500  2.1608 -1.1598
  170SOPE   H8Y19247   2.024   2.946   7.456 -0.0257  0.6915  0.9576
  170SOPE   C3919248   1.991   2.841   7.640 -0.6382  0.1465  0.0501
  170SOPE   H9X19249   2.102   2.837   7.640 -0.6577 -1.1355  1.0538
  170SOPE   H9Y19250   1.957   2.742   7.678  2.7749 -1.0188  0.3815
  170SOPE  C31019251   1.941   2.938   7.744  0.0467  0.3850  0.3624
  170SOPE  H10X19252   1.831   2.955   7.740 -0.0326 -0.2677 -0.7666
  170SOPE  H10Y19253   1.970   3.043   7.722 -1.4061  0.2630 -2.6320
  170SOPE  C31119254   1.976   2.891   7.885  0.0466 -0.5087  0.1923
  170SOPE  H11X19255   2.082   2.869   7.907  0.1859 -1.5380 -1.3697
  170SOPE  H11Y19256   1.926   2.793   7.898  0.4059 -0.6265  0.6909
  170SOPE  C31219257   1.918   2.996   7.984  0.3444  0.1296 -0.0087
  170SOPE  H12X19258   1.808   2.995   7.970  0.6966  0.4283 -3.5585
  170SOPE  H12Y19259   1.947   3.096   7.948  1.1885 -0.8487 -2.2060
  170SOPE  C31319260   1.957   2.972   8.134 -0.7162 -0.0470  0.6970
  170SOPE  H13X19261   2.063   3.006   8.135 -1.1250  1.4245 -0.3900
  170SOPE  H13Y19262   1.942   2.867   8.165  2.2165 -1.1373 -1.1431
  170SOPE  C31419263   1.881   3.081   8.223  0.4408  0.4368  0.0080
  170SOPE  H14X19264   1.772   3.066   8.206  0.4151 -1.0660  1.3280
  170SOPE  H14Y19265   1.911   3.184   8.191 -0.7203  0.6825 -0.3489
  170SOPE  C31519266   1.898   3.051   8.373  0.0683 -0.3264  0.0767
  170SOPE  H15X19267   1.848   2.955   8.397 -2.1249  0.9726  0.9680
  170SOPE  H15Y19268   1.834   3.110   8.442  1.5391 -0.4049  1.5742
  170SOPE  C31619269   2.040   3.044   8.417 -0.0808 -0.1915 -0.4277
  170SOPE  H16X19270   2.097   3.134   8.385 -1.5559  1.5806  1.6546
  170SOPE  H16Y19271   2.073   2.944   8.380 -0.4559 -0.9998  1.3026
  170SOPE  C31719272   2.058   3.056   8.578 -0.2840  0.6087  0.1597
  170SOPE  H17X19273   2.167   3.075   8.588 -0.2396  0.6342 -0.3252
  170SOPE  H17Y19274   2.042   2.956   8.624 -0.3004  0.9909  1.0037
  170SOPE  C31819275   1.983   3.163   8.663  0.1371  0.1531  0.0419
  170SOPE  H18X19276   1.983   3.251   8.596 -0.7598 -0.9163 -1.3999
  170SOPE  H18Y19277   2.047   3.180   8.753  2.9058 -0.7696 -1.6204
  170SOPE  H18Z19278   1.880   3.129   8.686 -0.4517  1.4089 -0.6612
  171SOPE     N19279   0.851   3.798   6.432 -0.4588  0.1820 -0.4668
  171SOPE   HN119280   0.765   3.777   6.486 -1.0846 -0.9196 -1.8419
  171SOPE   HN219281   0.880   3.893   6.464 -2.1660  0.7646 -0.5604
  171SOPE   HN319282   0.823   3.821   6.335 -0.7587  0.9378 -0.2102
  171SOPE   C1219283   0.951   3.686   6.453 -0.4122 -1.1328  0.2760
  171SOPE  H12A19284   0.915   3.604   6.387 -3.0643  0.2776 -0.1708
  171SOPE  H12B19285   0.937   3.653   6.558 -0.7933 -0.1523  0.5426
  171SOPE   C1119286   1.092   3.724   6.408  0.0196  0.3823 -0.1139
  171SOPE  H11A19287   1.153   3.631   6.405  0.8042  0.8842 -3.4116
  171SOPE  H11B19288   1.145   3.780   6.488 -1.2470  0.5326  0.6492
  171SOPE     P19289   1.192   3.888   6.225  0.3833  0.0320  0.1059
  171SOPE   O1319290   1.120   3.997   6.161 -0.4356  0.1187  0.3204
  171SOPE   O1419291   1.283   3.800   6.149 -0.1078 -0.2821 -0.1245
  171SOPE   O1219292   1.084   3.795   6.281  0.3470  0.0008  0.4292
  171SOPE   O1119293   1.267   3.933   6.357  0.0625 -0.2754 -0.5147
  171SOPE    C119294   1.222   4.047   6.430 -0.0994  0.1811 -0.2213
  171SOPE    HA19295   1.115   4.079   6.428  0.2214  1.2960 -0.4929
  171SOPE    HB19296   1.266   4.138   6.383 -0.3606  1.4351  1.8118
  171SOPE    C219297   1.266   4.030   6.577  1.0978  0.3891 -0.3804
  171SOPE    HS19298   1.186   3.978   6.634  0.0702  1.6078 -0.6552
  171SOPE   O2119299   1.286   4.159   6.635  0.2766  0.1785  0.4069
  171SOPE   C2119300   1.202   4.200   6.725 -0.0656 -0.7535  0.2609
  171SOPE   O2219301   1.097   4.143   6.752  0.0623 -0.0458  0.1112
  171SOPE   C2219302   1.247   4.329   6.785 -0.5078 -0.8483  0.5506
  171SOPE   H2R19303   1.230   4.402   6.703  1.0492 -0.5049  0.5049
  171SOPE   H2S19304   1.355   4.320   6.808 -0.1709 -0.4431 -0.7966
  171SOPE    C319305   1.394   3.943   6.603  0.6354  0.2123 -0.4794
  171SOPE    HX19306   1.488   3.990   6.567  0.1915  0.6643 -1.0577
  171SOPE    HY19307   1.374   3.838   6.571 -1.6581 -0.0501  1.4836
  171SOPE   O3119308   1.411   3.940   6.746 -0.1086 -0.5563 -0.5016
  171SOPE   C3119309   1.397   3.822   6.814 -0.3520  0.4399 -0.3230
  171SOPE   O3219310   1.366   3.714   6.764 -0.2512  0.1478  0.4570
  171SOPE   C3219311   1.424   3.853   6.957 -0.6499  0.5197 -0.0114
  171SOPE   H2X19312   1.373   3.949   6.979  1.8375  1.6998  0.9339
  171SOPE   H2Y19313   1.532   3.860   6.982  0.1762 -1.3997 -2.6123
  171SOPE   C2319314   1.178   4.366   6.924 -0.3785  0.0845 -0.2039
  171SOPE   H3R19315   1.076   4.408   6.911 -0.5428 -0.2460  0.0210
  171SOPE   H3S19316   1.247   4.448   6.955 -0.0915  0.3314 -1.4384
  171SOPE   C2419317   1.189   4.250   7.032  0.1435  0.0045 -0.2186
  171SOPE   H4R19318   1.108   4.180   7.002 -0.9694  0.6276  1.1875
  171SOPE   H4S19319   1.289   4.202   7.035  0.4299  0.6063  0.1863
  171SOPE   C2519320   1.154   4.290   7.175  0.6708 -0.3592  0.1916
  171SOPE   H5R19321   1.072   4.364   7.168  0.1810 -0.9069  0.1049
  171SOPE   H5S19322   1.110   4.205   7.231  0.6331 -0.2635  0.3090
  171SOPE   C2619323   1.277   4.341   7.246  0.2161 -0.4760  0.8878
  171SOPE   H6R19324   1.359   4.266   7.239 -0.5489 -1.5735  2.7825
  171SOPE   H6S19325   1.316   4.432   7.195 -1.5611 -0.2960 -0.2335
  171SOPE   C2719326   1.240   4.370   7.388  0.5935 -0.2875 -0.1538
  171SOPE   H7R19327   1.178   4.462   7.385  1.8055  0.5439 -1.1074
  171SOPE   H7S19328   1.175   4.288   7.426  0.7780 -0.0467  0.7120
  171SOPE   C2819329   1.362   4.378   7.486 -0.0447 -0.6166 -0.0740
  171SOPE   H8R19330   1.412   4.279   7.477 -2.4825 -1.9174 -0.0899
  171SOPE   H8S19331   1.422   4.469   7.462  2.3135 -1.9005  0.6427
  171SOPE   C2919332   1.313   4.392   7.634  0.6517 -0.4128  0.9383
  171SOPE   H9119333   1.204   4.400   7.650  0.4125 -1.0011 -0.2398
  171SOPE  C21019334   1.397   4.376   7.738 -0.0422 -0.0017  0.6656
  171SOPE  H10119335   1.363   4.403   7.839 -1.2219  1.2167 -0.0308
  171SOPE  C21119336   1.542   4.353   7.719  0.3185 -0.0325  0.1874
  171SOPE  H11R19337   1.592   4.450   7.699  2.4521 -0.9778  0.6838
  171SOPE  H11S19338   1.566   4.280   7.639  1.9386  0.6693  0.0146
  171SOPE  C21219339   1.604   4.291   7.846  0.1445 -0.0464  0.2106
  171SOPE  H12R19340   1.712   4.272   7.828  0.2548  1.4896 -0.8827
  171SOPE  H12S19341   1.557   4.193   7.871  2.5541 -1.0181  1.2410
  171SOPE  C21319342   1.601   4.367   7.978 -0.2560 -0.7820 -0.4410
  171SOPE  H13R19343   1.497   4.384   8.014  0.0017  2.0852 -0.7737
  171SOPE  H13S19344   1.641   4.471   7.970 -0.0629 -0.5799  2.3257
  171SOPE  C21419345   1.678   4.320   8.096 -0.4191  0.0074 -0.1733
  171SOPE  H14R19346   1.783   4.299   8.066 -1.4464 -2.4781 -2.5436
  171SOPE  H14S19347   1.638   4.220   8.123  0.4595 -0.1877  0.4622
  171SOPE  C21519348   1.684   4.409   8.220  0.6998 -0.5097  0.2753
  171SOPE  H15R19349   1.585   4.458   8.230  0.5796 -0.7680  0.3828
  171SOPE  H15S19350   1.758   4.485   8.188  0.3996 -1.0875 -1.9870
  171SOPE  C21619351   1.713   4.330   8.348  0.7380 -1.0342 -0.0148
  171SOPE  H16R19352   1.803   4.267   8.331  1.5494  0.2897 -0.7464
  171SOPE  H16S19353   1.628   4.258   8.350  0.3715 -0.5958  1.2593
  171SOPE  C21719354   1.737   4.433   8.463 -0.0036  0.4967  1.2477
  171SOPE  H17R19355   1.648   4.499   8.466  0.5153  1.2115  1.3258
  171SOPE  H17S19356   1.828   4.492   8.437 -0.0350 -0.6294 -1.9023
  171SOPE  C21819357   1.763   4.381   8.605  0.2706 -0.0502 -0.0787
  171SOPE  H18R19358   1.763   4.460   8.683  0.3115 -1.1531  1.0728
  171SOPE  H18S19359   1.864   4.336   8.599 -0.1595 -0.8209 -3.1785
  171SOPE  H18T19360   1.678   4.315   8.631 -1.8689  2.2570 -0.7819
  171SOPE   C3319361   1.356   3.752   7.051  0.1526  0.5027 -0.0777
  171SOPE   H3X19362   1.247   3.752   7.031 -0.1368  0.9014  1.3876
  171SOPE   H3Y19363   1.367   3.779   7.159  0.2816  0.9883 -0.2112
  171SOPE   C3419364   1.415   3.610   7.030 -0.3009  0.8217 -0.1029
  171SOPE   H4X19365   1.382   3.574   6.930 -0.3356  1.8445 -0.4787
  171SOPE   H4Y19366   1.358   3.546   7.101 -1.1801  2.0080  0.2913
  171SOPE   C3519367   1.565   3.582   7.051  0.1969  0.8309 -0.4352
  171SOPE   H5X19368   1.628   3.642   6.982  2.4226 -0.9528 -0.1018
  171SOPE   H5Y19369   1.582   3.475   7.024 -2.5401  0.4937 -1.1243
  171SOPE   C3619370   1.617   3.604   7.200  0.0867  0.3477  0.1452
  171SOPE   H6X19371   1.626   3.713   7.224  0.7757  0.1295  0.9174
  171SOPE   H6Y19372   1.719   3.564   7.213 -0.6017 -0.8903  2.1601
  171SOPE   C3719373   1.537   3.541   7.314  0.1923 -0.0093 -0.1646
  171SOPE   H7X19374   1.536   3.429   7.314 -0.3995 -0.0084 -0.5207
  171SOPE   H7Y19375   1.436   3.579   7.288  0.1673  0.3819  0.4752
  171SOPE   C3819376   1.577   3.595   7.452  0.1992 -0.3025  0.6372
  171SOPE   H8X19377   1.559   3.704   7.456  0.1893 -0.3097  0.8074
  171SOPE   H8Y19378   1.684   3.570   7.468  0.4628 -0.0828 -0.6928
  171SOPE   C3919379   1.492   3.535   7.565 -0.7766 -0.6601  0.0236
  171SOPE   H9X19380   1.476   3.425   7.556 -3.1096 -0.6157  2.4626
  171SOPE   H9Y19381   1.387   3.570   7.564 -0.3341  0.8662  2.0699
  171SOPE  C31019382   1.535   3.568   7.710 -0.0546 -0.2434  0.1582
  171SOPE  H10X19383   1.556   3.677   7.707 -3.9910  0.6328 -1.6792
  171SOPE  H10Y19384   1.626   3.509   7.737  2.4268  1.8588 -2.8436
  171SOPE  C31119385   1.421   3.530   7.804 -0.6402  0.2222 -0.6402
  171SOPE  H11X19386   1.396   3.425   7.776  1.5672  0.1802 -2.7014
  171SOPE  H11Y19387   1.334   3.594   7.774 -0.1306  1.4102  0.3370
  171SOPE  C31219388   1.460   3.533   7.954  0.2190  0.1000  0.1695
  171SOPE  H12X19389   1.366   3.541   8.014  0.2409 -0.7476  0.3311
  171SOPE  H12Y19390   1.523   3.621   7.980 -1.6634  0.6743  3.3775
  171SOPE  C31319391   1.518   3.403   8.020 -0.0863  0.1271 -0.5115
  171SOPE  H13X19392   1.603   3.370   7.955 -0.6184  0.4779 -1.3909
  171SOPE  H13Y19393   1.431   3.336   8.031 -0.5425  0.8688  0.5399
  171SOPE  C31419394   1.559   3.407   8.177 -0.5336 -0.6098  0.0112
  171SOPE  H14X19395   1.646   3.476   8.179 -0.1775 -1.0723  1.0315
  171SOPE  H14Y19396   1.574   3.304   8.215 -2.8549  0.3211  4.0700
  171SOPE  C31519397   1.444   3.474   8.258  0.0498  0.3225 -0.1487
  171SOPE  H15X19398   1.345   3.437   8.223  0.4613  0.1598 -1.1778
  171SOPE  H15Y19399   1.452   3.583   8.237 -1.4961  0.0940 -2.3196
  171SOPE  C31619400   1.452   3.446   8.404  0.2268  0.5087  0.0952
  171SOPE  H16X19401   1.448   3.337   8.424 -3.3551  0.6592  0.8456
  171SOPE  H16Y19402   1.368   3.493   8.459  1.0409 -1.7460  3.6182
  171SOPE  C31719403   1.577   3.524   8.466  0.6559  0.6666 -0.6057
  171SOPE  H17X19404   1.573   3.630   8.434  1.2399  0.8260 -0.1818
  171SOPE  H17Y19405   1.671   3.482   8.424  0.7184  1.9869 -1.8572
  171SOPE  C31819406   1.599   3.508   8.617  0.5596 -0.0610 -0.1231
  171SOPE  H18X19407   1.638   3.406   8.635  0.5804  0.2512  1.8099
  171SOPE  H18Y19408   1.507   3.523   8.677  1.6009 -0.7754  1.7057
  171SOPE  H18Z19409   1.682   3.576   8.643  0.8894 -0.5165  0.0200
  172SOPE     N19410   5.235   2.835   6.406  0.1590  0.2162  0.4761
  172SOPE   HN119411   5.201   2.737   6.398  0.3989  0.2658 -1.7925
  172SOPE   HN219412   5.295   2.845   6.491  0.8809 -0.8685  0.1252
  172SOPE   HN319413   5.150   2.895   6.410  1.3314  2.6725 -4.3843
  172SOPE   C1219414   5.335   2.856   6.295 -0.0060  0.0225 -0.2373
  172SOPE  H12A19415   5.361   2.964   6.294  0.1434  0.0186  1.1482
  172SOPE  H12B19416   5.299   2.830   6.193  0.1417 -0.7434 -0.1010
  172SOPE   C1119417   5.463   2.774   6.337 -0.1544 -0.3798 -0.4633
  172SOPE  H11A19418   5.551   2.796   6.272 -1.1767 -0.1848 -1.8383
  172SOPE  H11B19419   5.446   2.666   6.318  0.9214 -0.8600  1.1313
  172SOPE     P19420   5.604   2.915   6.505 -0.0169  0.0545 -0.6142
  172SOPE   O1319421   5.549   3.037   6.446  0.0739 -0.3755  0.1300
  172SOPE   O1419422   5.741   2.867   6.465  0.2699 -1.0430  0.0740
  172SOPE   O1219423   5.509   2.794   6.471 -0.1953  0.2228 -0.0297
  172SOPE   O1119424   5.606   2.927   6.666 -0.2480 -0.5381  0.6778
  172SOPE    C119425   5.650   2.799   6.736 -0.8665 -0.0202 -0.5983
  172SOPE    HA19426   5.693   2.721   6.670 -0.4998  0.3299 -0.7741
  172SOPE    HB19427   5.558   2.763   6.787 -1.6958  2.6629 -0.0454
  172SOPE    C219428   5.764   2.823   6.834  0.4617  0.9351 -0.2385
  172SOPE    HS19429   5.855   2.838   6.771  0.8082 -0.5934 -0.1408
  172SOPE   O2119430   5.773   2.719   6.937  0.1078 -0.2785  0.3852
  172SOPE   C2119431   5.854   2.612   6.909  0.4207  0.3866 -0.0530
  172SOPE   O2219432   5.924   2.601   6.809 -0.2660 -0.3922 -0.4253
  172SOPE   C2219433   5.838   2.506   7.020 -0.3617 -0.1503  0.0910
  172SOPE   H2R19434   5.938   2.460   7.035 -0.7636 -1.3623 -0.7522
  172SOPE   H2S19435   5.765   2.433   6.976  0.3008 -0.3709 -0.6777
  172SOPE    C319436   5.746   2.959   6.916 -0.5226  0.5491 -0.7547
  172SOPE    HX19437   5.648   2.974   6.966  1.1381  0.8735  2.7580
  172SOPE    HY19438   5.748   3.043   6.843 -3.8227 -0.1604 -1.7917
  172SOPE   O3119439   5.840   2.979   7.024 -0.0033  0.2024 -0.3982
  172SOPE   C3119440   5.961   3.021   7.008 -0.7555  0.3184  0.2459
  172SOPE   O3219441   6.013   3.041   6.897  0.2726  0.2264 -0.5427
  172SOPE   C3219442   6.036   3.043   7.145 -0.3555 -0.6071  0.1939
  172SOPE   H2X19443   5.962   3.062   7.226 -1.5785 -3.2874 -0.1779
  172SOPE   H2Y19444   6.081   3.144   7.129 -0.0394 -0.7610  0.1010
  172SOPE   C2319445   5.774   2.561   7.156 -0.0565  0.0332 -0.0964
  172SOPE   H3R19446   5.760   2.469   7.217  0.2965 -0.2336 -0.4171
  172SOPE   H3S19447   5.674   2.604   7.132 -0.4411 -1.8518 -2.1443
  172SOPE   C2419448   5.859   2.659   7.231 -0.5248 -0.2260  0.2263
  172SOPE   H4R19449   5.967   2.636   7.230  0.5888  4.0987  1.0066
  172SOPE   H4S19450   5.864   2.759   7.183  0.1256  0.1708  1.0999
  172SOPE   C2519451   5.810   2.674   7.380  0.4187  0.0681 -0.0017
  172SOPE   H5R19452   5.704   2.707   7.391 -0.0988 -1.6880  0.5445
  172SOPE   H5S19453   5.807   2.574   7.428  0.9528  1.2482  2.7048
  172SOPE   C2619454   5.903   2.760   7.471 -0.0036  0.0619 -0.2248
  172SOPE   H6R19455   5.998   2.704   7.463 -0.7551 -1.4341  0.7742
  172SOPE   H6S19456   5.918   2.867   7.445 -1.2709  0.1322 -0.7660
  172SOPE   C2719457   5.841   2.758   7.617  0.0280  0.9932 -0.4834
  172SOPE   H7R19458   5.736   2.796   7.613 -0.6691 -0.0997  3.3201
  172SOPE   H7S19459   5.822   2.651   7.639 -1.4876  1.1181 -1.0524
  172SOPE   C2819460   5.924   2.827   7.729 -0.4415  0.6551 -0.3268
  172SOPE   H8R19461   5.946   2.929   7.690  0.1375  0.2583 -1.0772
  172SOPE   H8S19462   5.856   2.860   7.811 -1.7586 -2.2314 -0.1661
  172SOPE   C2919463   6.048   2.749   7.774  0.3303 -0.1113 -1.3930
  172SOPE   H9119464   6.111   2.708   7.694 -0.1329 -0.4218 -1.6000
  172SOPE  C21019465   6.088   2.731   7.906 -0.0499 -0.3509  0.7471
  172SOPE  H10119466   6.185   2.685   7.930 -0.2811 -1.1771  0.1630
  172SOPE  C21119467   6.006   2.783   8.022  0.2737 -0.2150  0.4842
  172SOPE  H11R19468   5.911   2.728   8.034 -1.5278  1.9739 -2.3290
  172SOPE  H11S19469   5.966   2.883   7.995 -0.0163 -0.3413  0.4506
  172SOPE  C21219470   6.084   2.801   8.157 -0.0929 -0.3578 -0.1286
  172SOPE  H12R19471   6.021   2.842   8.239  1.1546  0.6275  0.3831
  172SOPE  H12S19472   6.177   2.863   8.159 -0.4131  0.1143  0.1809
  172SOPE  C21319473   6.127   2.667   8.221  0.2521 -0.6223  0.5397
  172SOPE  H13R19474   6.217   2.630   8.167  1.1988  0.8663  1.0419
  172SOPE  H13S19475   6.047   2.592   8.209  0.9116 -1.0781 -1.4663
  172SOPE  C21419476   6.185   2.682   8.364  0.1138  0.4967  0.3539
  172SOPE  H14R19477   6.263   2.758   8.387 -0.1462  1.0597 -0.5802
  172SOPE  H14S19478   6.231   2.583   8.381 -1.2865 -0.6888 -2.2109
  172SOPE  C21519479   6.074   2.698   8.471  0.0099  0.6519  0.0212
  172SOPE  H15R19480   6.000   2.616   8.476  0.1450  0.6040  2.9348
  172SOPE  H15S19481   6.010   2.783   8.437 -0.0820  0.7215  0.3655
  172SOPE  C21619482   6.126   2.719   8.613  0.8119  0.0738 -0.6263
  172SOPE  H16R19483   6.208   2.793   8.607  0.3344  0.5855 -1.0685
  172SOPE  H16S19484   6.154   2.619   8.652 -0.2929  0.1490  0.4310
  172SOPE  C21719485   6.011   2.776   8.708 -0.4413  0.9172  0.1123
  172SOPE  H17R19486   5.952   2.854   8.655 -1.3053 -0.4859 -1.0777
  172SOPE  H17S19487   6.070   2.832   8.783 -0.0647 -0.5202  0.9145
  172SOPE  C21819488   5.921   2.681   8.788  0.4188  0.0031 -0.5916
  172SOPE  H18R19489   5.978   2.613   8.855  0.1099  1.4595  1.2220
  172SOPE  H18S19490   5.852   2.621   8.725 -1.5942  2.0249 -0.4580
  172SOPE  H18T19491   5.853   2.742   8.851 -0.3229 -0.5638 -0.8287
  172SOPE   C3319492   6.144   2.942   7.180  0.3861 -0.1999  0.4584
  172SOPE   H3X19493   6.197   2.901   7.092 -0.7226 -3.7450  1.2704
  172SOPE   H3Y19494   6.086   2.855   7.219 -1.7629  0.9202 -0.0783
  172SOPE   C3419495   6.241   2.994   7.282 -0.9370 -0.5274 -0.3868
  172SOPE   H4X19496   6.291   3.079   7.231  0.4547 -2.1846 -1.9255
  172SOPE   H4Y19497   6.319   2.923   7.317 -0.5226  0.8271  1.5495
  172SOPE   C3519498   6.180   3.046   7.414  0.7495  0.4638  0.4116
  172SOPE   H5X19499   6.111   2.974   7.462  2.3225 -0.1540  1.8521
  172SOPE   H5Y19500   6.124   3.141   7.399 -1.4338 -0.1941  3.4946
  172SOPE   C3619501   6.265   3.077   7.537  0.6205 -0.2134  0.0993
  172SOPE   H6X19502   6.348   3.147   7.514 -1.4403  1.6539 -2.0781
  172SOPE   H6Y19503   6.311   2.986   7.581  1.4337 -0.6549 -1.6049
  172SOPE   C3719504   6.186   3.145   7.642  0.6289  0.2293  0.1480
  172SOPE   H7X19505   6.090   3.090   7.651  0.5485  0.1355 -1.0226
  172SOPE   H7Y19506   6.163   3.248   7.605  1.8281  0.1384 -0.9259
  172SOPE   C3819507   6.263   3.135   7.771  0.0404 -0.6021 -0.7616
  172SOPE   H8X19508   6.347   3.208   7.768  0.4154 -1.0749 -2.2587
  172SOPE   H8Y19509   6.314   3.037   7.784 -1.5860 -1.4069 -0.2119
  172SOPE   C3919510   6.180   3.174   7.896  0.0474 -0.1052 -0.6063
  172SOPE   H9X19511   6.231   3.136   7.987 -0.6958 -2.1801 -0.9960
  172SOPE   H9Y19512   6.093   3.105   7.895  2.2998 -3.1769 -0.2278
  172SOPE  C31019513   6.154   3.325   7.927  0.1336 -0.0976 -0.1100
  172SOPE  H10X19514   6.101   3.363   7.837  0.5683  0.7981  0.0082
  172SOPE  H10Y19515   6.251   3.377   7.914  0.9955 -1.0738  1.9933
  172SOPE  C31119516   6.075   3.365   8.053 -0.3462  0.1442  0.7319
  172SOPE  H11X19517   5.989   3.296   8.061 -0.4056  0.2166  0.7133
  172SOPE  H11Y19518   6.029   3.463   8.028 -2.5603 -0.8752  0.5510
  172SOPE  C31219519   6.164   3.384   8.182  0.3965 -0.2566  0.1890
  172SOPE  H12X19520   6.191   3.277   8.191 -2.3401 -0.9541  0.9983
  172SOPE  H12Y19521   6.094   3.412   8.264  2.4611  0.9738  1.6267
  172SOPE  C31319522   6.293   3.480   8.166  0.5974  0.4226  0.5289
  172SOPE  H13X19523   6.275   3.568   8.101 -2.1208 -1.3416 -1.2916
  172SOPE  H13Y19524   6.381   3.424   8.127  1.9793  2.8934 -0.1361
  172SOPE  C31419525   6.334   3.534   8.302  0.3122  0.0569 -0.7425
  172SOPE  H14X19526   6.411   3.613   8.289  1.1857 -1.0344 -2.6447
  172SOPE  H14Y19527   6.357   3.444   8.363  0.0702 -0.1456 -0.9448
  172SOPE  C31519528   6.219   3.598   8.373  0.7767 -0.5935 -0.4021
  172SOPE  H15X19529   6.173   3.527   8.445  2.4489 -0.4427  0.8699
  172SOPE  H15Y19530   6.151   3.643   8.297  3.0356  1.4512 -1.3339
  172SOPE  C31619531   6.266   3.714   8.468  0.1746  0.8856  0.4064
  172SOPE  H16X19532   6.284   3.808   8.411 -4.0050  1.6810  0.0361
  172SOPE  H16Y19533   6.361   3.685   8.519  1.3295  0.7877 -1.7153
  172SOPE  C31719534   6.162   3.745   8.578  0.1560  0.4258  0.4168
  172SOPE  H17X19535   6.069   3.773   8.522 -0.0518  1.1312  1.1052
  172SOPE  H17Y19536   6.186   3.842   8.625 -1.0696 -0.0618  2.1419
  172SOPE  C31819537   6.121   3.642   8.677  0.2928  0.0434  0.4357
  172SOPE  H18X19538   6.056   3.688   8.755 -1.0686 -0.0780 -0.5873
  172SOPE  H18Y19539   6.212   3.605   8.729  0.1272  0.3214  0.9354
  172SOPE  H18Z19540   6.073   3.552   8.632  0.2165 -0.3243  1.2209
  173SAPI   C1219541   4.434   3.104  11.120  0.3759 -0.2987  0.1171
  173SAPI    H219542   4.507   3.184  11.094 -0.1206  0.3527  0.6627
  173SAPI    O219543   4.505   3.021  11.208  0.1302  0.3431 -0.6557
  173SAPI   HO219544   4.562   2.970  11.151  1.2721  2.4902 -1.5322
  173SAPI   C1319545   4.318   3.169  11.196 -0.1667 -0.2575  0.2421
  173SAPI    H319546   4.267   3.244  11.133 -1.2033  1.1444  2.6041
  173SAPI    O319547   4.354   3.245  11.319  0.0061 -0.0631  0.1523
  173SAPI   HO319548   4.282   3.309  11.325  0.1401  0.0086  1.1618
  173SAPI   C1419549   4.211   3.063  11.225  0.5742 -0.0134 -0.1599
  173SAPI    H419550   4.255   2.984  11.290  1.1208  0.7926  0.4666
  173SAPI    O419551   4.093   3.118  11.289 -0.7174 -0.3430 -0.4162
  173SAPI   HO419552   4.074   3.051  11.355  1.6844  0.4204  1.1974
  173SAPI   C1519553   4.161   2.989  11.095 -0.5434 -0.3899 -0.5530
  173SAPI    H519554   4.124   3.071  11.029 -0.5916 -0.4090 -0.5495
  173SAPI    O519555   4.062   2.894  11.116  0.1735  0.1715 -0.1901
  173SAPI   HO519556   3.974   2.931  11.105  0.2359 -0.1442 -1.9682
  173SAPI   C1619557   4.283   2.928  11.022 -0.5744  0.2114 -0.1196
  173SAPI    H619558   4.314   2.837  11.077 -0.4148 -0.2792 -0.9965
  173SAPI    O619559   4.231   2.884  10.893 -0.0431 -0.0610 -0.7774
  173SAPI   HO619560   4.186   2.957  10.851 -0.2117  0.0969 -0.3251
  173SAPI   C1119561   4.393   3.026  10.995 -1.0757 -0.3426  0.3066
  173SAPI    H119562   4.356   3.099  10.920 -1.0608  1.6420  2.0917
  173SAPI     P19563   4.634   3.019  10.865  0.3467 -0.2429  0.4959
  173SAPI   O1319564   4.734   2.915  10.835 -0.4678  0.1891 -0.0497
  173SAPI   O1419565   4.678   3.125  10.953 -0.6423  0.2220  1.0800
  173SAPI   O1219566   4.501   2.953  10.935  0.2769 -0.1016 -0.2300
  173SAPI   O1119567   4.565   3.087  10.733 -0.0518 -0.8136 -0.3815
  173SAPI    C119568   4.489   3.012  10.642 -0.6710  0.0860  0.7718
  173SAPI    HA19569   4.434   2.928  10.689  1.2259 -3.7242 -3.1081
  173SAPI    HB19570   4.424   3.089  10.595  0.8968  1.9253  1.4941
  173SAPI    C219571   4.577   2.941  10.535  0.3651  0.7254  0.2837
  173SAPI    HS19572   4.651   2.883  10.594 -0.6547  0.7542  1.6202
  173SAPI   O2119573   4.639   3.041  10.453  0.0172 -0.3036 -0.0496
  173SAPI   C2119574   4.719   2.990  10.362  0.4103 -0.2637 -0.0637
  173SAPI   O2219575   4.757   2.876  10.344 -0.2370  0.0656 -0.3301
  173SAPI   C2219576   4.730   3.101  10.267 -0.9257 -0.5141  0.1787
  173SAPI   H2R19577   4.724   3.202  10.312 -0.5820 -0.2709 -0.2996
  173SAPI   H2S19578   4.827   3.084  10.214 -0.1818  0.6786  1.1046
  173SAPI    C319579   4.484   2.837  10.453  0.4293 -0.1156 -0.2967
  173SAPI    HX19580   4.432   2.777  10.531  1.3064 -0.9814 -0.3604
  173SAPI    HY19581   4.546   2.773  10.387 -1.5048  0.9281 -3.3483
  173SAPI   O3119582   4.385   2.907  10.365 -0.3586  0.4710 -0.1332
  173SAPI   C3119583   4.308   2.818  10.295  0.3674 -1.6281 -0.6805
  173SAPI   O3219584   4.299   2.700  10.310 -0.2994 -0.2518  0.5961
  173SAPI   C3219585   4.227   2.906  10.199  0.0096 -0.5545 -0.0082
  173SAPI   H2X19586   4.237   3.011  10.233 -1.9411  0.1543 -1.3880
  173SAPI   H2Y19587   4.120   2.876  10.205  0.1848 -0.9921  1.0638
  173SAPI   C2319588   4.616   3.099  10.159  0.1297 -0.2593  0.2899
  173SAPI   H3R19589   4.514   3.119  10.198 -0.2354  0.2326 -0.8719
  173SAPI   H3S19590   4.614   2.993  10.124  0.3436 -0.0229 -0.4643
  173SAPI   C2419591   4.631   3.192  10.036 -0.3965 -0.1237 -0.2723
  173SAPI   H4R19592   4.665   3.292  10.069 -0.8961  1.1878 -3.4467
  173SAPI   H4S19593   4.534   3.215   9.989 -0.6274 -0.1796  0.1684
  173SAPI   C2519594   4.732   3.124   9.939 -0.2573  0.3632  0.2484
  173SAPI   H5R19595   4.825   3.091   9.987 -0.1282  0.3642  0.0008
  173SAPI   C2619596   4.715   3.090   9.809  0.0726  0.2801 -0.4591
  173SAPI   H6R19597   4.799   3.037   9.763  0.0901 -1.6031  1.5455
  173SAPI   C2719598   4.592   3.109   9.733 -0.5756  0.4464  0.2001
  173SAPI   H7R19599   4.499   3.087   9.789  0.0725 -0.0511  1.1164
  173SAPI   H7S19600   4.600   3.044   9.643 -0.3277  1.1121 -0.2672
  173SAPI   C2819601   4.587   3.258   9.687  0.1059  0.0951  0.2532
  173SAPI   H8R19602   4.574   3.326   9.773 -1.3937 -1.0982  1.0365
  173SAPI   C2919603   4.600   3.312   9.567  0.0234 -0.4954  0.4219
  173SAPI   H9R19604   4.606   3.421   9.555  1.9730 -0.8367 -2.7510
  173SAPI  C21019605   4.627   3.239   9.437 -0.5935 -0.4964  0.5025
  173SAPI  H10R19606   4.589   3.311   9.362  1.3063 -0.2409 -0.2732
  173SAPI  H10S19607   4.559   3.152   9.418 -2.7497  1.0289  0.8604
  173SAPI  C21119608   4.772   3.200   9.412  0.0988 -0.1307  0.2062
  173SAPI  H11R19609   4.841   3.185   9.497  2.3531  1.6893 -1.1635
  173SAPI  C21219610   4.818   3.164   9.292  0.1263  0.6835 -0.4142
  173SAPI  H12R19611   4.924   3.137   9.288 -0.2020 -1.0041  0.8285
  173SAPI  C21319612   4.732   3.146   9.169 -0.2356 -0.0971 -0.2027
  173SAPI  H13R19613   4.782   3.192   9.082 -0.0555 -1.1193 -0.6502
  173SAPI  H13S19614   4.642   3.212   9.167  1.0750  1.7830 -0.7949
  173SAPI  C21419615   4.700   3.004   9.153 -0.4163  0.6429  0.3618
  173SAPI  H14R19616   4.650   2.947   9.233 -2.2153 -0.7603 -1.6256
  173SAPI  C21519617   4.725   2.933   9.043 -0.2214  0.4900  0.5663
  173SAPI  H15R19618   4.702   2.826   9.039  1.2973  0.1004  1.2560
  173SAPI  C21619619   4.797   2.994   8.917 -0.0503  0.7411  0.9819
  173SAPI  H16R19620   4.843   3.095   8.921  1.2257  0.3452 -1.7634
  173SAPI  H16S19621   4.725   3.018   8.836  1.1064  2.3490  0.3887
  173SAPI  C21719622   4.903   2.903   8.861  0.5255  0.3559  0.0216
  173SAPI  H17R19623   4.889   2.796   8.890  1.9630  0.2804  0.5152
  173SAPI  H17S19624   4.993   2.935   8.916  0.6670  0.7108 -0.4114
  173SAPI  C21819625   4.929   2.911   8.711 -0.7483 -0.1517  0.5800
  173SAPI  H18R19626   4.848   2.879   8.642 -1.1217  1.7360  0.0966
  173SAPI  H18S19627   5.012   2.841   8.689 -0.6628  0.6091 -1.7358
  173SAPI  C21919628   4.960   3.053   8.666 -0.7774  0.3352  0.7698
  173SAPI  H19R19629   4.872   3.121   8.662 -1.6178 -0.7625  0.0642
  173SAPI  H19S19630   4.987   3.043   8.559 -1.9683 -2.9497  0.6698
  173SAPI  C22019631   5.078   3.110   8.741  0.1146  0.2366  0.7016
  173SAPI  H20R19632   5.154   3.031   8.756 -1.1742 -0.7626  2.3097
  173SAPI  H20S19633   5.038   3.164   8.830  0.9203 -1.6929  2.3035
  173SAPI  H20T19634   5.140   3.176   8.677  1.1825 -1.1517  0.2429
  173SAPI   C3319635   4.287   2.902  10.056 -0.1281 -0.1673  0.9435
  173SAPI   H3X19636   4.396   2.920  10.053  0.2468 -2.1958 -1.2894
  173SAPI   H3Y19637   4.239   2.981   9.995  0.3635  0.6269  1.5804
  173SAPI   C3419638   4.251   2.770   9.982  0.0767 -0.0302  0.4545
  173SAPI   H4X19639   4.143   2.743   9.984  0.2094 -0.8449 -1.3639
  173SAPI   H4Y19640   4.300   2.686  10.035 -1.3852 -1.8868 -0.9759
  173SAPI   C3519641   4.288   2.765   9.835 -0.0302  0.6372  0.3732
  173SAPI   H5X19642   4.259   2.664   9.799 -2.1726  1.9022 -1.7337
  173SAPI   H5Y19643   4.396   2.789   9.832  0.6394 -1.5785  2.4837
  173SAPI   C3619644   4.200   2.860   9.754 -0.5255 -0.6705 -0.3051
  173SAPI   H6X19645   4.219   2.966   9.781  0.2114 -0.4869 -1.4900
  173SAPI   H6Y19646   4.094   2.843   9.782 -0.9344  2.1263  0.1216
  173SAPI   C3719647   4.232   2.848   9.605  0.0268 -0.0578  0.1308
  173SAPI   H7X19648   4.219   2.746   9.563 -0.5469 -0.4809  1.2901
  173SAPI   H7Y19649   4.338   2.878   9.597  0.1575 -0.2806  0.9271
  173SAPI   C3819650   4.140   2.940   9.519  0.4832 -0.5116 -0.5052
  173SAPI   H8X19651   4.135   3.031   9.582  1.0777 -0.6184 -0.2949
  173SAPI   H8Y19652   4.039   2.895   9.511  0.5199 -0.4469 -1.5344
  173SAPI   C3919653   4.203   2.979   9.386  0.5103  0.2459 -0.4043
  173SAPI   H9X19654   4.312   2.993   9.402  0.5922 -1.7894  1.1849
  173SAPI   H9Y19655   4.157   3.078   9.365 -1.8887 -0.8546 -0.7140
  173SAPI  C31019656   4.197   2.878   9.279  0.2137 -0.3364 -0.5169
  173SAPI  H10X19657   4.098   2.857   9.234  0.2639 -0.2402 -0.6721
  173SAPI  H10Y19658   4.233   2.785   9.328 -2.3936  0.1179  2.5664
  173SAPI  C31119659   4.306   2.919   9.181  0.5506 -0.0254 -0.2573
  173SAPI  H11X19660   4.350   2.827   9.139  3.2265  0.6585  0.7986
  173SAPI  H11Y19661   4.387   2.981   9.226  0.2562  0.9631 -1.0347
  173SAPI  C31219662   4.244   3.000   9.060  0.3643 -0.3031 -0.3626
  173SAPI  H12X19663   4.207   3.093   9.110  1.1182  0.2765 -0.8500
  173SAPI  H12Y19664   4.161   2.938   9.020  0.6127 -0.0796 -1.2489
  173SAPI  C31319665   4.342   3.060   8.956  0.4235 -0.7226  0.2028
  173SAPI  H13X19666   4.389   2.982   8.893  0.0816 -0.4149 -0.4421
  173SAPI  H13Y19667   4.425   3.113   9.008  0.1745  1.3158 -1.3383
  173SAPI  C31419668   4.270   3.161   8.865  0.0212 -0.8189  0.4335
  173SAPI  H14X19669   4.199   3.226   8.921  1.0336  0.7508 -0.0365
  173SAPI  H14Y19670   4.210   3.107   8.788  0.4381  1.6229 -1.7634
  173SAPI  C31519671   4.371   3.255   8.789 -0.4092  1.1005 -0.2341
  173SAPI  H15X19672   4.320   3.296   8.700 -1.9547 -0.2769 -0.0265
  173SAPI  H15Y19673   4.453   3.199   8.740 -2.7716  0.4553 -3.7951
  173SAPI  C31619674   4.413   3.371   8.869  0.3197  0.1550 -0.6098
  173SAPI  H16X19675   4.483   3.336   8.947 -0.4271  0.0293  0.0140
  173SAPI  H16Y19676   4.325   3.413   8.923  0.6318 -0.7212  0.6071
  173SAPI  C31719677   4.472   3.484   8.787 -0.1792  0.2757  0.7088
  173SAPI  H17X19678   4.480   3.581   8.840 -0.7649  1.0601 -0.5859
  173SAPI  H17Y19679   4.415   3.489   8.692 -1.5416 -0.9475  1.4264
  173SAPI  C31819680   4.620   3.450   8.743 -0.7671 -0.1678 -0.4250
  173SAPI  H18X19681   4.629   3.348   8.701  3.8071  0.4607 -1.5189
  173SAPI  H18Y19682   4.692   3.465   8.827  0.3746  1.5037 -1.6405
  173SAPI  H18Z19683   4.661   3.524   8.672 -1.3821  0.6776  0.0718
  174SAPI   C1219684   5.230   2.573  11.064  0.7546  0.0911  0.0046
  174SAPI    H219685   5.124   2.538  11.068  0.5459  0.8579  1.7541
  174SAPI    O219686   5.234   2.710  11.086  0.0085  0.1905  0.2786
  174SAPI   HO219687   5.146   2.749  11.090  0.2975  0.9868 -0.6566
  174SAPI   C1319688   5.301   2.497  11.173  0.1498  0.1113 -0.5531
  174SAPI    H319689   5.300   2.390  11.144 -2.6217  0.2134 -1.1699
  174SAPI    O319690   5.223   2.505  11.296 -0.0942 -0.0282  0.3503
  174SAPI   HO319691   5.253   2.589  11.332  1.7024 -1.6377  3.0432
  174SAPI   C1419692   5.446   2.540  11.194  1.2295  0.5458  0.3481
  174SAPI    H419693   5.445   2.648  11.220 -0.2922  0.3529  1.2521
  174SAPI    O419694   5.511   2.474  11.300  0.1559 -0.2787 -0.0460
  174SAPI   HO419695   5.596   2.515  11.317 -1.3850  2.8091  0.9199
  174SAPI   C1519696   5.510   2.509  11.059 -0.0166 -0.1305 -0.0305
  174SAPI    H519697   5.502   2.400  11.035  2.1518 -0.8954  2.2409
  174SAPI    O519698   5.653   2.538  11.067  0.5239 -0.0049 -0.0353
  174SAPI   HO519699   5.682   2.519  10.978 -0.7302  1.1772 -0.7502
  174SAPI   C1619700   5.448   2.574  10.940  0.4416 -0.2787  0.6729
  174SAPI    H619701   5.456   2.684  10.945  2.2780 -0.1509 -2.4046
  174SAPI    O619702   5.518   2.539  10.820  0.1350 -0.0333  0.5946
  174SAPI   HO619703   5.459   2.546  10.744 -1.5864  0.0689  1.8818
  174SAPI   C1119704   5.304   2.540  10.932  0.1694  0.2835 -0.6002
  174SAPI    H119705   5.293   2.430  10.921 -0.0312  0.3060 -0.6365
  174SAPI     P19706   5.097   2.552  10.761  0.4337  0.1625 -0.4087
  174SAPI   O1319707   5.005   2.667  10.754 -0.2415  0.3321  0.1505
  174SAPI   O1419708   5.045   2.437  10.841 -0.5812  0.6505  0.0024
  174SAPI   O1219709   5.239   2.605  10.818 -0.0253 -0.4459  0.4151
  174SAPI   O1119710   5.143   2.499  10.622  0.0463 -0.1531 -0.6509
  174SAPI    C119711   5.045   2.418  10.550 -0.9035 -0.1281  0.3245
  174SAPI    HA19712   4.945   2.410  10.597 -0.7323 -0.1061  0.6950
  174SAPI    HB19713   5.032   2.456  10.447 -0.3745  0.8519  0.6072
  174SAPI    C219714   5.093   2.274  10.521 -0.2544 -0.0706 -0.5733
  174SAPI    HS19715   5.117   2.233  10.621  0.1005 -0.6693 -0.9020
  174SAPI   O2119716   5.215   2.277  10.442 -0.3409 -0.5452  0.3366
  174SAPI   C2119717   5.325   2.229  10.492  0.3343  0.2132 -0.2600
  174SAPI   O2219718   5.349   2.197  10.608 -0.1485 -0.1781 -0.8795
  174SAPI   C2219719   5.424   2.215  10.379  0.3793  0.1179 -0.2135
  174SAPI   H2R19720   5.528   2.234  10.414  0.1875  1.5577 -0.3511
  174SAPI   H2S19721   5.415   2.111  10.342 -0.4046  0.4773 -1.0707
  174SAPI    C319722   4.989   2.178  10.454  0.4970  0.1343  0.4765
  174SAPI    HX19723   4.894   2.192  10.509  0.1955  0.5282 -0.1278
  174SAPI    HY19724   5.017   2.071  10.459 -1.3443 -0.6758 -3.1907
  174SAPI   O3119725   4.966   2.218  10.319  0.6310 -0.5412  0.0702
  174SAPI   C3119726   4.995   2.129  10.223 -0.5056 -0.0470 -0.3165
  174SAPI   O3219727   5.037   2.017  10.247  0.0806 -0.0965  0.7708
  174SAPI   C3219728   4.984   2.194  10.088  0.1601  0.3446  0.1838
  174SAPI   H2X19729   5.084   2.238  10.072 -0.5221  2.5902  1.6051
  174SAPI   H2Y19730   4.907   2.275  10.089 -1.0832 -0.7996  0.0491
  174SAPI   C2319731   5.391   2.292  10.245  0.3934  0.0952 -0.0103
  174SAPI   H3R19732   5.396   2.403  10.250 -0.7764  0.2580 -1.5683
  174SAPI   H3S19733   5.285   2.263  10.226  1.2032 -2.8388 -0.3854
  174SAPI   C2419734   5.472   2.266  10.124 -0.0562 -0.2674  0.3109
  174SAPI   H4R19735   5.574   2.311  10.122 -0.4947  0.7284 -0.7311
  174SAPI   H4S19736   5.426   2.319  10.038 -0.0956 -1.2649 -0.3054
  174SAPI   C2519737   5.487   2.115  10.090  0.0051 -0.0218 -0.1310
  174SAPI   H5R19738   5.559   2.055  10.147  1.2412  0.0848 -1.5220
  174SAPI   C2619739   5.418   2.057   9.986 -0.0375 -0.3070 -0.2533
  174SAPI   H6R19740   5.440   1.951   9.970  0.7054 -0.3408  0.8870
  174SAPI   C2719741   5.323   2.121   9.884 -0.1139  0.3291 -0.5261
  174SAPI   H7R19742   5.263   2.202   9.932  1.7678  2.7520 -2.0765
  174SAPI   H7S19743   5.247   2.046   9.851 -1.0063  1.8929 -2.1767
  174SAPI   C2819744   5.402   2.178   9.767  0.9528 -0.6358  0.7582
  174SAPI   H8R19745   5.497   2.226   9.794  0.5805  0.6347 -0.0757
  174SAPI   C2919746   5.363   2.190   9.634 -0.2738 -0.2086 -0.7279
  174SAPI   H9R19747   5.424   2.248   9.563  1.5916  0.3163  1.2067
  174SAPI  C21019748   5.240   2.129   9.575 -1.3702  0.4627 -0.4640
  174SAPI  H10R19749   5.191   2.199   9.504 -0.6171  0.7429 -0.7233
  174SAPI  H10S19750   5.165   2.125   9.657  0.5717  1.6716  1.4919
  174SAPI  C21119751   5.267   1.998   9.509  0.6730 -0.0969  0.4656
  174SAPI  H11R19752   5.272   1.906   9.570  1.7746  1.5019  2.9537
  174SAPI  C21219753   5.295   1.987   9.377 -0.3257  0.1723 -0.1355
  174SAPI  H12R19754   5.325   1.886   9.346 -0.6100 -0.3499  1.2296
  174SAPI  C21319755   5.312   2.104   9.286 -0.1192  0.3198  0.1945
  174SAPI  H13R19756   5.414   2.099   9.242  0.3353  0.2620  1.2224
  174SAPI  H13S19757   5.309   2.205   9.334 -1.4972  0.4755 -0.1874
  174SAPI  C21419758   5.200   2.099   9.180 -0.3442  0.1855  0.3983
  174SAPI  H14R19759   5.101   2.099   9.228 -0.2671  1.3252  0.5895
  174SAPI  C21519760   5.218   2.079   9.047  0.6476 -0.0136  0.2614
  174SAPI  H15R19761   5.150   2.097   8.963  1.5244 -1.8986 -0.9300
  174SAPI  C21619762   5.358   2.073   8.993  0.8163 -0.1884  0.0208
  174SAPI  H16R19763   5.414   1.984   9.030  0.2044 -0.4124  0.4095
  174SAPI  H16S19764   5.411   2.165   9.026  0.5981  0.5282 -1.5097
  174SAPI  C21719765   5.359   2.072   8.841 -0.4897  0.1657 -0.2560
  174SAPI  H17R19766   5.463   2.105   8.821 -0.5330  0.2694 -0.3098
  174SAPI  H17S19767   5.303   2.162   8.806  0.8323  0.7384 -0.9793
  174SAPI  C21819768   5.334   1.941   8.764 -0.2424  0.5017 -0.3410
  174SAPI  H18R19769   5.232   1.910   8.796 -1.9201  3.4226 -2.3852
  174SAPI  H18S19770   5.413   1.863   8.768 -2.2468 -1.8154 -2.3441
  174SAPI  C21919771   5.309   1.956   8.613  0.1466  0.4123  0.3889
  174SAPI  H19R19772   5.202   1.984   8.597 -0.4381 -0.8573  1.8539
  174SAPI  H19S19773   5.323   1.853   8.573  0.8962 -0.0776  1.8408
  174SAPI  C22019774   5.410   2.044   8.544  0.1936 -0.0211 -0.3105
  174SAPI  H20R19775   5.512   2.004   8.560 -0.1375 -0.8959 -0.3326
  174SAPI  H20S19776   5.415   2.148   8.583 -2.2687  1.5037 -3.4972
  174SAPI  H20T19777   5.378   2.057   8.438 -0.7084  0.3705 -0.0020
  174SAPI   C3319778   4.938   2.087   9.988  0.4246  0.1638 -0.2024
  174SAPI   H3X19779   4.834   2.054  10.009 -0.0522 -0.1310 -2.7590
  174SAPI   H3Y19780   5.003   1.996   9.989 -2.2296 -1.8626  0.0494
  174SAPI   C3419781   4.943   2.149   9.844 -0.4960  0.3804  0.2048
  174SAPI   H4X19782   5.045   2.183   9.816  0.2647 -0.2588  1.9988
  174SAPI   H4Y19783   4.885   2.242   9.861 -0.5318  0.1850  1.2651
  174SAPI   C3519784   4.893   2.050   9.733  0.0380 -0.0154 -0.2097
  174SAPI   H5X19785   4.810   1.990   9.775  0.1242 -0.0520 -0.0926
  174SAPI   H5Y19786   4.977   1.979   9.713  0.3651  0.4211 -0.4120
  174SAPI   C3619787   4.847   2.123   9.600 -0.4081  0.1673  0.3952
  174SAPI   H6X19788   4.838   2.050   9.517  1.4199  0.3461 -0.0129
  174SAPI   H6Y19789   4.929   2.193   9.574 -1.0684  0.8692  0.1918
  174SAPI   C3719790   4.720   2.208   9.620  1.0657  0.8912 -0.9794
  174SAPI   H7X19791   4.703   2.264   9.526  2.2503  1.5957 -0.7962
  174SAPI   H7Y19792   4.727   2.278   9.706  1.5641 -0.1832 -0.1168
  174SAPI   C3819793   4.593   2.117   9.646  0.2819  0.0845  0.0996
  174SAPI   H8X19794   4.503   2.181   9.656 -0.5059 -0.7721 -1.2337
  174SAPI   H8Y19795   4.620   2.077   9.746 -0.0778 -0.1102  0.1210
  174SAPI   C3919796   4.568   2.018   9.538  0.0701 -0.4922  0.4084
  174SAPI   H9X19797   4.486   1.948   9.564  0.6790 -1.2213  0.3747
  174SAPI   H9Y19798   4.658   1.954   9.531  0.1330 -0.2820 -0.9023
  174SAPI  C31019799   4.538   2.066   9.393  0.4884  0.3551  0.0232
  174SAPI  H10X19800   4.616   2.138   9.362  1.1761 -0.4735 -0.2082
  174SAPI  H10Y19801   4.440   2.119   9.389 -0.5389 -1.4921 -3.1210
  174SAPI  C31119802   4.517   1.948   9.289 -0.4682  0.0536  0.8072
  174SAPI  H11X19803   4.424   1.893   9.315 -0.0715 -0.3137  1.4808
  174SAPI  H11Y19804   4.599   1.874   9.293 -0.7899 -0.4861 -1.4455
  174SAPI  C31219805   4.522   1.998   9.143 -0.0792 -0.5508  0.0965
  174SAPI  H12X19806   4.617   2.050   9.122 -0.6010 -0.4746 -2.3692
  174SAPI  H12Y19807   4.440   2.072   9.127  0.5554 -0.0041 -0.6846
  174SAPI  C31319808   4.512   1.894   9.031 -0.1737  0.0580 -0.1988
  174SAPI  H13X19809   4.590   1.818   9.048  0.1265  0.5315  0.6200
  174SAPI  H13Y19810   4.534   1.937   8.932  1.2085 -1.5173 -0.6096
  174SAPI  C31419811   4.374   1.823   9.027  0.1025  0.6140 -0.5066
  174SAPI  H14X19812   4.301   1.906   9.011 -0.9117 -0.6510 -2.9529
  174SAPI  H14Y19813   4.353   1.771   9.123 -3.1160 -1.1268 -1.9698
  174SAPI  C31519814   4.368   1.721   8.908  0.1863  0.9801 -0.1128
  174SAPI  H15X19815   4.272   1.669   8.927  0.5058 -0.4779 -2.1697
  174SAPI  H15Y19816   4.445   1.652   8.950 -1.3694 -1.5793 -1.2388
  174SAPI  C31619817   4.382   1.776   8.766  0.6043  0.1791  0.1482
  174SAPI  H16X19818   4.490   1.794   8.747  1.1993 -2.4087  0.6771
  174SAPI  H16Y19819   4.324   1.870   8.772 -1.6280 -1.2030  1.8257
  174SAPI  C31719820   4.305   1.688   8.664 -0.0506  0.3555  0.0715
  174SAPI  H17X19821   4.200   1.669   8.695  0.2934 -0.5810  0.6837
  174SAPI  H17Y19822   4.367   1.597   8.675  0.3297  0.7645  1.4769
  174SAPI  C31819823   4.310   1.735   8.521 -0.2950  0.4945 -0.6559
  174SAPI  H18X19824   4.265   1.661   8.451 -1.4619 -0.0728  0.6326
  174SAPI  H18Y19825   4.417   1.737   8.492  0.6902  3.3247  2.4153
  174SAPI  H18Z19826   4.277   1.841   8.523  1.5313  1.0959  0.3381
  175SAPI   C1219827   4.121   4.490   6.069 -0.4775  0.0550 -0.2821
  175SAPI    H219828   4.212   4.494   6.133 -0.2214  1.2303 -0.6954
  175SAPI    O219829   4.150   4.592   5.971 -0.0452 -0.0878 -0.4251
  175SAPI   HO219830   4.144   4.680   6.008 -0.9757 -0.1581 -0.3946
  175SAPI   C1319831   4.108   4.359   5.999  0.4097 -0.0778 -0.0733
  175SAPI    H319832   4.089   4.280   6.074 -0.0222  0.5936  0.5377
  175SAPI    O319833   4.232   4.325   5.939 -0.7841 -0.1745  0.5456
  175SAPI   HO319834   4.237   4.381   5.862 -4.7679 -0.3293 -0.0340
  175SAPI   C1419835   3.985   4.355   5.906  0.5628  0.4065 -0.0038
  175SAPI    H419836   3.998   4.431   5.826  1.8028 -1.2225 -1.4210
  175SAPI    O419837   3.963   4.219   5.850  0.1409 -0.8228 -0.2999
  175SAPI   HO419838   4.013   4.218   5.768 -1.8071 -1.8175 -1.5432
  175SAPI   C1519839   3.850   4.385   5.988 -0.0815 -0.3352  0.1575
  175SAPI    H519840   3.842   4.311   6.071  3.4899 -0.1507  0.8426
  175SAPI    O519841   3.738   4.391   5.901  0.5992 -0.1291 -0.3168
  175SAPI   HO519842   3.769   4.329   5.834  1.2555  1.0781 -1.1627
  175SAPI   C1619843   3.863   4.517   6.057 -1.1488 -0.3755 -0.3122
  175SAPI    H619844   3.875   4.590   5.974  0.9782  0.4835  0.6683
  175SAPI    O619845   3.740   4.554   6.126  0.3395 -0.5154 -0.0293
  175SAPI   HO619846   3.687   4.474   6.122  2.0165 -1.6412 -2.4681
  175SAPI   C1119847   3.988   4.524   6.145 -0.4974  0.4914  0.1173
  175SAPI    H119848   3.959   4.450   6.224 -0.1671 -0.2634 -0.4558
  175SAPI     P19849   4.060   4.684   6.350 -0.2517 -0.2708  0.3922
  175SAPI   O1319850   4.091   4.832   6.359  0.3667  0.3279  0.3402
  175SAPI   O1419851   4.173   4.586   6.379  0.3521 -0.4896  0.1461
  175SAPI   O1219852   4.002   4.658   6.196  0.1834 -0.7485 -0.7631
  175SAPI   O1119853   3.934   4.661   6.452 -1.0176  0.8955 -0.3511
  175SAPI    C119854   3.875   4.530   6.471  0.4877 -0.2083 -0.2417
  175SAPI    HA19855   3.779   4.535   6.414  0.3087  2.0609  0.1706
  175SAPI    HB19856   3.940   4.447   6.435 -0.1660 -0.5693 -0.6185
  175SAPI    C219857   3.849   4.498   6.620  0.4696  0.0671 -0.5591
  175SAPI    HS19858   3.794   4.401   6.619  0.6951 -0.0755 -2.2540
  175SAPI   O2119859   3.775   4.597   6.690  0.1343 -0.1470  0.1362
  175SAPI   C2119860   3.653   4.608   6.653 -0.0046  1.3206  0.5641
  175SAPI   O2219861   3.594   4.520   6.590  0.1585 -0.9060 -0.1740
  175SAPI   C2219862   3.586   4.736   6.708 -0.0948 -0.3228  0.2246
  175SAPI   H2R19863   3.668   4.810   6.721 -0.7335  0.3200  0.6741
  175SAPI   H2S19864   3.514   4.764   6.628 -0.0041 -1.4285 -0.2567
  175SAPI    C319865   3.978   4.477   6.699 -0.5592  0.3828  0.1146
  175SAPI    HX19866   4.040   4.569   6.696  1.7075 -1.0916 -1.0254
  175SAPI    HY19867   4.035   4.401   6.641 -0.5847  1.3871 -1.2597
  175SAPI   O3119868   3.953   4.435   6.835 -0.2281 -0.5000  0.0156
  175SAPI   C3119869   4.057   4.390   6.902  0.4513 -0.1031 -0.2732
  175SAPI   O3219870   4.162   4.358   6.858  0.0257 -0.0802  0.4470
  175SAPI   C3219871   4.005   4.367   7.038  0.5632 -0.0875 -0.1700
  175SAPI   H2X19872   3.937   4.279   7.031 -0.7461  0.7805  1.1153
  175SAPI   H2Y19873   3.941   4.451   7.070  2.0585  0.6585  0.9742
  175SAPI   C2319874   3.500   4.701   6.826 -0.2437 -0.7153 -0.5217
  175SAPI   H3R19875   3.418   4.636   6.790 -0.7789  0.5407 -1.6241
  175SAPI   H3S19876   3.443   4.791   6.858  3.3848  0.6894  2.8645
  175SAPI   C2419877   3.572   4.629   6.947  0.3368  0.8473  0.2468
  175SAPI   H4R19878   3.605   4.528   6.915  1.2622  1.6027 -1.3193
  175SAPI   H4S19879   3.490   4.624   7.022 -1.7228  0.5532 -1.8971
  175SAPI   C2519880   3.690   4.703   7.010 -0.1717  0.2262 -0.2557
  175SAPI   H5R19881   3.772   4.699   6.936 -1.5752 -1.9840 -1.8278
  175SAPI   C2619882   3.707   4.763   7.129  0.1343 -0.2354  0.4542
  175SAPI   H6R19883   3.808   4.794   7.157  0.8640 -1.8971 -0.2341
  175SAPI   C2719884   3.606   4.784   7.232 -0.1716 -0.5999  0.2671
  175SAPI   H7R19885   3.509   4.787   7.179 -0.3988  3.0912  0.6126
  175SAPI   H7S19886   3.623   4.884   7.279 -1.3726 -1.9278  3.8849
  175SAPI   C2819887   3.614   4.668   7.332 -0.2078 -0.0573 -0.5112
  175SAPI   H8R19888   3.597   4.570   7.286  0.9100 -0.1022 -0.8662
  175SAPI   C2919889   3.615   4.674   7.469 -0.0115  0.4906  0.0172
  175SAPI   H9R19890   3.601   4.577   7.520 -0.6291  1.1650  1.1814
  175SAPI  C21019891   3.620   4.787   7.566 -0.0775  0.6885  0.4580
  175SAPI  H10R19892   3.600   4.756   7.671  1.6219 -0.3955  0.5154
  175SAPI  H10S19893   3.539   4.860   7.548 -0.7438  0.1129  1.0628
  175SAPI  C21119894   3.747   4.865   7.566 -1.3539 -0.0218 -0.1480
  175SAPI  H11R19895   3.768   4.905   7.466 -0.8454  0.7474  0.2603
  175SAPI  C21219896   3.830   4.894   7.674  0.1472  0.2207  0.5931
  175SAPI  H12R19897   3.914   4.962   7.652 -0.4977  0.6078 -0.8141
  175SAPI  C21319898   3.814   4.867   7.816 -0.2944  0.7628 -0.6699
  175SAPI  H13R19899   3.781   4.762   7.831  1.2345  0.4746  1.0415
  175SAPI  H13S19900   3.737   4.933   7.859 -0.7800 -0.9451  1.2628
  175SAPI  C21419901   3.947   4.883   7.900  0.4997 -0.0665 -0.0895
  175SAPI  H14R19902   4.005   4.790   7.896 -0.1769 -0.6382  2.1336
  175SAPI  C21519903   3.975   4.987   7.983  0.4774 -0.2027 -0.0340
  175SAPI  H15R19904   4.067   4.995   8.042 -0.0024 -1.5875  0.9551
  175SAPI  C21619905   3.890   5.106   8.015  0.6538 -0.6501  0.6381
  175SAPI  H16R19906   3.803   5.106   7.946 -0.9009 -1.6505  2.4657
  175SAPI  H16S19907   3.936   5.205   7.995  0.4185 -0.2872  1.8370
  175SAPI  C21719908   3.841   5.103   8.156  0.0327 -0.1634  0.3372
  175SAPI  H17R19909   3.769   5.019   8.169  0.1028 -0.2154  0.3893
  175SAPI  H17S19910   3.766   5.184   8.167 -0.2781 -0.1789 -1.3416
  175SAPI  C21819911   3.941   5.103   8.272  0.3233 -0.8027 -0.7304
  175SAPI  H18R19912   4.016   5.182   8.251 -0.8250  0.6351  0.3772
  175SAPI  H18S19913   3.990   5.003   8.275 -1.4530 -1.7072  1.2599
  175SAPI  C21919914   3.864   5.143   8.402 -0.1249  0.4190 -0.1386
  175SAPI  H19R19915   3.786   5.065   8.416 -0.2572  0.9378  2.5431
  175SAPI  H19S19916   3.812   5.240   8.387 -1.1811 -0.0080  0.6610
  175SAPI  C22019917   3.946   5.132   8.530 -0.4976 -0.2142  0.0115
  175SAPI  H20R19918   4.029   5.206   8.536 -1.2190  0.7385 -1.1463
  175SAPI  H20S19919   3.982   5.028   8.541  0.9916  0.4186  1.5058
  175SAPI  H20T19920   3.870   5.144   8.610  0.7346 -0.3810  1.2427
  175SAPI   C3319921   4.107   4.329   7.145  0.0919 -0.4264 -0.9869
  175SAPI   H3X19922   4.195   4.396   7.130  2.2742 -2.6432  1.0315
  175SAPI   H3Y19923   4.151   4.228   7.134 -1.5422 -1.3705  0.5797
  175SAPI   C3419924   4.051   4.351   7.290  0.7612 -0.1501 -0.7147
  175SAPI   H4X19925   4.126   4.312   7.362  1.3304 -0.9133 -1.7011
  175SAPI   H4Y19926   3.953   4.298   7.292  0.2237  0.7615 -1.6770
  175SAPI   C3519927   4.027   4.497   7.342 -0.0465 -0.1470  0.0765
  175SAPI   H5X19928   3.966   4.541   7.260 -1.1885 -0.8029  0.5541
  175SAPI   H5Y19929   4.122   4.554   7.346 -0.9615  1.3855  0.7196
  175SAPI   C3619930   3.944   4.506   7.470 -0.8646  0.0889 -0.0431
  175SAPI   H6X19931   3.859   4.435   7.462  0.7224 -1.8229 -1.0673
  175SAPI   H6Y19932   3.905   4.610   7.473 -0.3403  0.2766  0.3619
  175SAPI   C3719933   4.023   4.465   7.598  0.0125  0.2478 -0.4672
  175SAPI   H7X19934   4.102   4.542   7.615 -1.4364  1.5392  0.6922
  175SAPI   H7Y19935   4.080   4.370   7.592 -1.4808 -0.8342  1.3800
  175SAPI   C3819936   3.932   4.458   7.715  0.0201  1.4054  0.1737
  175SAPI   H8X19937   3.854   4.387   7.679 -0.4895  1.3592  1.3238
  175SAPI   H8Y19938   3.883   4.557   7.725  0.6554  1.6783  0.6166
  175SAPI   C3919939   3.991   4.404   7.837  0.3922 -0.1949 -0.2863
  175SAPI   H9X19940   4.081   4.465   7.859  0.7672 -1.0195  0.5468
  175SAPI   H9Y19941   4.027   4.302   7.813  0.8060 -0.1800  0.2458
  175SAPI  C31019942   3.896   4.404   7.959 -0.6803  1.1890  0.1594
  175SAPI  H10X19943   3.933   4.325   8.029 -2.6157 -2.1352 -2.2533
  175SAPI  H10Y19944   3.801   4.365   7.916 -1.3050  0.6955  1.8985
  175SAPI  C31119945   3.876   4.538   8.019  0.7395 -0.8401  0.6103
  175SAPI  H11X19946   3.822   4.605   7.949 -1.1055 -2.1481  0.6911
  175SAPI  H11Y19947   3.977   4.575   8.046 -0.0227  0.7405  1.3989
  175SAPI  C31219948   3.800   4.522   8.155  0.3840 -0.2045 -0.3127
  175SAPI  H12X19949   3.842   4.435   8.211 -1.7032 -0.3871  1.1204
  175SAPI  H12Y19950   3.701   4.477   8.130  2.1278 -4.3279 -0.6542
  175SAPI  C31319951   3.793   4.644   8.251 -0.0424  0.3466 -0.1136
  175SAPI  H13X19952   3.739   4.611   8.341  1.1103 -1.7993 -0.1459
  175SAPI  H13Y19953   3.728   4.721   8.204 -1.6199 -0.2523  1.0189
  175SAPI  C31419954   3.932   4.705   8.282 -0.4835  0.9294 -0.3464
  175SAPI  H14X19955   3.908   4.788   8.352  0.2867  1.5797 -0.8410
  175SAPI  H14Y19956   3.977   4.744   8.188 -2.9921  1.7547 -1.2856
  175SAPI  C31519957   4.031   4.609   8.351 -0.1500 -0.2253  0.2068
  175SAPI  H15X19958   4.068   4.527   8.286  1.6766  0.4325  0.3625
  175SAPI  H15Y19959   3.985   4.544   8.429 -1.5124 -0.5856 -0.8493
  175SAPI  C31619960   4.165   4.683   8.391  0.1630 -0.4907  0.2020
  175SAPI  H16X19961   4.141   4.745   8.481  1.7016  1.1665 -0.4678
  175SAPI  H16Y19962   4.190   4.755   8.310 -0.7850 -0.2080  0.1451
  175SAPI  C31719963   4.276   4.591   8.423  0.9013  0.1921  0.3205
  175SAPI  H17X19964   4.282   4.522   8.337 -0.1621  0.5337 -0.0424
  175SAPI  H17Y19965   4.247   4.544   8.520 -0.9480 -0.3978 -0.4721
  175SAPI  C31819966   4.411   4.662   8.430  0.5379 -0.1854  0.0833
  175SAPI  H18X19967   4.423   4.726   8.341 -0.2695 -2.0123 -1.3946
  175SAPI  H18Y19968   4.499   4.596   8.446  2.5059  2.3125  0.2873
  175SAPI  H18Z19969   4.411   4.722   8.524  1.9188 -0.5823  0.3658
  176SAPI   C1219970   5.332   4.173   6.289  0.8005  0.0896  0.2203
  176SAPI    H219971   5.245   4.196   6.223 -0.3846 -1.1606  1.2854
  176SAPI    O219972   5.388   4.054   6.244  0.0520 -0.3132  0.0086
  176SAPI   HO219973   5.360   3.991   6.311  1.1802  0.1786  0.9870
  176SAPI   C1319974   5.431   4.296   6.279  0.3035  0.7429  0.4849
  176SAPI    H319975   5.376   4.388   6.305 -1.2431  0.0218 -0.1179
  176SAPI    O319976   5.473   4.311   6.144  0.4725 -0.2009  0.2397
  176SAPI   HO319977   5.508   4.228   6.109 -1.4982 -0.6551 -0.8326
  176SAPI   C1419978   5.547   4.279   6.374  0.8014  0.1835  0.0195
  176SAPI    H419979   5.602   4.190   6.336 -0.3248  0.7565 -3.3471
  176SAPI    O419980   5.631   4.394   6.364 -0.7092  0.5608 -0.3152
  176SAPI   HO419981   5.607   4.450   6.438 -2.1859  1.7927 -1.6532
  176SAPI   C1519982   5.496   4.267   6.515  0.0437  0.4037  0.4476
  176SAPI    H519983   5.448   4.361   6.549  0.2356  0.8678 -0.5701
  176SAPI    O519984   5.614   4.251   6.596 -0.1619  0.4860  0.2466
  176SAPI   HO519985   5.591   4.284   6.683  0.4032  0.5160  0.3875
  176SAPI   C1619986   5.403   4.149   6.529  0.8295 -0.8612  0.3113
  176SAPI    H619987   5.452   4.050   6.516  2.3461  0.0276 -1.2055
  176SAPI    O619988   5.347   4.155   6.660  0.2073 -0.0695  0.1683
  176SAPI   HO619989   5.323   4.243   6.688  0.6570  0.3320 -0.6619
  176SAPI   C1119990   5.282   4.166   6.434 -0.0440  0.0222  0.3786
  176SAPI    H119991   5.236   4.263   6.461  0.4241 -0.1708  1.9808
  176SAPI     P19992   5.038   4.094   6.496 -0.2590  0.4321  0.0506
  176SAPI   O1319993   4.951   4.078   6.378 -1.0132  0.1692 -0.2210
  176SAPI   O1419994   5.037   4.226   6.562  0.1331 -0.1949  0.1173
  176SAPI   O1219995   5.196   4.055   6.454  0.1611 -0.0582  0.5624
  176SAPI   O1119996   4.994   3.989   6.600 -0.2465  0.5039 -0.3455
  176SAPI    C119997   5.090   3.912   6.672 -0.0754  0.5024 -0.0090
  176SAPI    HA19998   5.106   3.813   6.624  0.2309  0.6415 -0.1967
  176SAPI    HB19999   5.187   3.964   6.686  0.6495 -1.2794  2.0650
  176SAPI    C220000   5.044   3.881   6.817 -0.0156  0.8221  0.4607
  176SAPI    HS20001   5.134   3.848   6.874 -2.2588  0.2349  3.9428
  176SAPI   O2120002   4.934   3.781   6.817  0.0802 -0.4666 -0.4323
  176SAPI   C2120003   4.937   3.719   6.935 -0.7182  0.1395 -0.2968
  176SAPI   O2220004   5.026   3.737   7.020 -0.3174 -0.1193 -0.3288
  176SAPI   C2220005   4.820   3.628   6.958 -0.0459 -0.4140  0.2317
  176SAPI   H2R20006   4.727   3.669   6.911 -0.0294 -2.6525 -1.9306
  176SAPI   H2S20007   4.838   3.530   6.909 -0.3836 -1.1222  1.4779
  176SAPI    C320008   5.005   4.015   6.882  0.1707 -0.9233 -0.5237
  176SAPI    HX20009   4.928   4.057   6.814  0.5600 -2.3474 -1.8999
  176SAPI    HY20010   5.080   4.097   6.877 -0.9852  0.5126  2.9726
  176SAPI   O3120011   4.952   4.004   7.011 -0.1152 -0.3301 -0.8231
  176SAPI   C3120012   5.031   4.005   7.120 -0.7079  0.3083 -0.5506
  176SAPI   O3220013   5.151   4.021   7.122 -0.6247  0.7219 -0.5014
  176SAPI   C3220014   4.946   3.990   7.249 -0.6264 -0.2513  0.5717
  176SAPI   H2X20015   4.864   3.916   7.241 -1.0249 -0.0049  1.9487
  176SAPI   H2Y20016   4.902   4.092   7.255 -1.3883 -0.6336  2.4371
  176SAPI   C2320017   4.798   3.580   7.106  0.3474  0.2422 -0.2281
  176SAPI   H3R20018   4.767   3.672   7.161 -3.2003  0.7103 -2.6366
  176SAPI   H3S20019   4.889   3.552   7.162  0.2958  0.2897 -0.1188
  176SAPI   C2420020   4.695   3.462   7.134  0.3809 -0.1692  0.1284
  176SAPI   H4R20021   4.614   3.503   7.069 -0.0733  0.6380  1.1748
  176SAPI   H4S20022   4.652   3.475   7.235  0.3669  2.4063 -0.1231
  176SAPI   C2520023   4.737   3.318   7.105 -0.0201 -0.1545  0.6041
  176SAPI   H5R20024   4.829   3.313   7.045  0.9965  0.6018  2.0337
  176SAPI   C2620025   4.694   3.206   7.166 -0.0610 -0.1901 -0.4558
  176SAPI   H6R20026   4.730   3.109   7.129 -1.3233 -1.3972  1.3477
  176SAPI   C2720027   4.584   3.202   7.268 -0.0864 -0.7342 -0.1893
  176SAPI   H7R20028   4.486   3.166   7.230 -0.0290 -1.9917  0.7752
  176SAPI   H7S20029   4.567   3.304   7.307 -2.0038 -0.8027 -0.7499
  176SAPI   C2820030   4.619   3.111   7.382  1.0245  0.2464 -0.3028
  176SAPI   H8R20031   4.675   3.018   7.361  0.9900 -0.2266  1.5296
  176SAPI   C2920032   4.598   3.138   7.516  0.0797 -0.1245 -0.0511
  176SAPI   H9R20033   4.621   3.057   7.587 -1.0286 -0.0681  0.4112
  176SAPI  C21020034   4.536   3.259   7.589  0.3297 -0.1157 -0.6255
  176SAPI  H10R20035   4.504   3.229   7.691  0.2967  1.3527 -0.1752
  176SAPI  H10S20036   4.443   3.281   7.531 -0.1942 -0.5369  0.0350
  176SAPI  C21120037   4.610   3.389   7.581 -0.1161  0.9944 -0.1362
  176SAPI  H11R20038   4.646   3.408   7.479 -1.4002 -2.3189 -1.3280
  176SAPI  C21220039   4.620   3.469   7.690  0.2630  0.3551  0.2184
  176SAPI  H12R20040   4.659   3.572   7.680 -0.0747  0.6029  1.3567
  176SAPI  C21320041   4.562   3.439   7.825  0.3395 -0.1040  0.3375
  176SAPI  H13R20042   4.459   3.405   7.804 -0.4186  2.3605 -0.2094
  176SAPI  H13S20043   4.554   3.538   7.875  1.6222 -0.6946  1.8065
  176SAPI  C21420044   4.655   3.345   7.914 -0.2018  0.0791  0.3404
  176SAPI  H14R20045   4.666   3.239   7.885 -2.8036 -0.5616  1.4094
  176SAPI  C21520046   4.720   3.380   8.026  0.8122 -0.1551 -0.0637
  176SAPI  H15R20047   4.779   3.301   8.075  1.4557 -0.4458 -1.2587
  176SAPI  C21620048   4.730   3.514   8.102  0.2379  0.1331 -0.4171
  176SAPI  H16R20049   4.692   3.597   8.037 -0.0154  0.2526 -0.1156
  176SAPI  H16S20050   4.836   3.538   8.124  0.1473  0.4080 -0.2756
  176SAPI  C21720051   4.653   3.513   8.243 -0.5327  0.0196  0.4668
  176SAPI  H17R20052   4.701   3.440   8.312 -0.3506 -0.4786 -0.1782
  176SAPI  H17S20053   4.548   3.486   8.222 -0.5003  0.0949  0.2030
  176SAPI  C21820054   4.682   3.651   8.303  0.4587 -0.3530  0.6387
  176SAPI  H18R20055   4.602   3.664   8.379  0.6971  0.7019  0.7326
  176SAPI  H18S20056   4.665   3.727   8.223  2.6241 -2.2257 -1.7389
  176SAPI  C21920057   4.817   3.663   8.368  0.3581 -0.8910 -0.8518
  176SAPI  H19R20058   4.902   3.670   8.297  0.0114  2.1882 -1.1113
  176SAPI  H19S20059   4.827   3.578   8.439  0.7031  1.7952  2.6632
  176SAPI  C22020060   4.815   3.785   8.464  0.3886  0.2946  0.3946
  176SAPI  H20R20061   4.896   3.783   8.539  1.5702 -0.8217 -0.8428
  176SAPI  H20S20062   4.727   3.779   8.532  0.0857  3.4131  0.4033
  176SAPI  H20T20063   4.820   3.885   8.415 -0.1522 -0.0364 -0.3726
  176SAPI   C3320064   5.038   3.963   7.374  0.4199  0.2027 -0.0173
  176SAPI   H3X20065   4.985   3.989   7.468 -2.1049  1.7940 -1.7445
  176SAPI   H3Y20066   5.116   4.039   7.355  0.0387  0.3990 -0.8191
  176SAPI   C3420067   5.111   3.824   7.377 -0.3392  0.0879  0.4641
  176SAPI   H4X20068   5.201   3.836   7.441 -0.3368  0.6186  0.3630
  176SAPI   H4Y20069   5.135   3.791   7.274 -0.1082  0.7759  0.2952
  176SAPI   C3520070   5.041   3.717   7.447 -0.2077 -0.0206 -0.6069
  176SAPI   H5X20071   5.100   3.624   7.436  2.3540  0.7110  4.1965
  176SAPI   H5Y20072   4.945   3.707   7.392 -1.4428  0.8187  1.2807
  176SAPI   C3620073   5.004   3.741   7.601 -1.2119 -1.2582  0.1623
  176SAPI   H6X20074   4.927   3.670   7.638 -1.1344 -1.7848 -0.6431
  176SAPI   H6Y20075   4.958   3.841   7.609  2.0171  0.6188 -2.3762
  176SAPI   C3720076   5.118   3.740   7.699  0.4168 -0.2910  0.1608
  176SAPI   H7X20077   5.189   3.822   7.673 -0.3172  1.1680  2.4616
  176SAPI   H7Y20078   5.174   3.644   7.697  2.1929  0.6503  1.5127
  176SAPI   C3820079   5.065   3.761   7.841  0.8814  0.8229 -0.3227
  176SAPI   H8X20080   4.985   3.687   7.862  0.7934  0.7061 -1.0475
  176SAPI   H8Y20081   5.028   3.865   7.854  1.2947  1.1729 -1.7262
  176SAPI   C3920082   5.183   3.734   7.941  0.7318 -0.1114  0.4519
  176SAPI   H9X20083   5.261   3.806   7.911 -0.1948  0.0763 -1.6179
  176SAPI   H9Y20084   5.218   3.630   7.921  0.7694 -0.1856  0.8834
  176SAPI  C31020085   5.151   3.728   8.091  0.1344  0.4388  0.0967
  176SAPI  H10X20086   5.247   3.704   8.141  0.8752  1.2513 -0.8805
  176SAPI  H10Y20087   5.076   3.654   8.126  1.4611  0.9739  4.6970
  176SAPI  C31120088   5.094   3.858   8.155 -0.5130  0.3255  0.1846
  176SAPI  H11X20089   5.089   3.850   8.266 -2.5452  1.9146  0.2665
  176SAPI  H11Y20090   4.992   3.872   8.113 -0.8090  0.8005  1.0455
  176SAPI  C31220091   5.173   3.987   8.116  0.3495 -0.0044 -0.6272
  176SAPI  H12X20092   5.148   4.004   8.009  1.3041  0.3016 -0.8162
  176SAPI  H12Y20093   5.279   3.955   8.125 -0.0905 -3.1594 -4.1261
  176SAPI  C31320094   5.137   4.103   8.209  0.4780 -0.2585  0.4506
  176SAPI  H13X20095   5.171   4.078   8.312 -0.7867  0.5200  1.0886
  176SAPI  H13Y20096   5.027   4.116   8.214 -0.2286 -3.8451 -1.8159
  176SAPI  C31420097   5.197   4.241   8.174  0.2246  0.1908  0.1954
  176SAPI  H14X20098   5.194   4.264   8.065  1.9249  1.1575  0.3145
  176SAPI  H14Y20099   5.302   4.236   8.209 -0.1289 -0.5783  1.1827
  176SAPI  C31520100   5.126   4.359   8.251  0.0341 -0.0046  0.0394
  176SAPI  H15X20101   5.139   4.333   8.358  1.8230  0.2938 -0.0790
  176SAPI  H15Y20102   5.019   4.363   8.222 -0.9798  2.3531  3.4896
  176SAPI  C31620103   5.185   4.498   8.228  0.5690 -0.8643  0.1204
  176SAPI  H16X20104   5.154   4.541   8.130  0.1967 -0.4748  0.4077
  176SAPI  H16Y20105   5.296   4.493   8.231  0.7804  1.2214 -1.4636
  176SAPI  C31720106   5.140   4.593   8.335  0.4445  0.3808  0.2061
  176SAPI  H17X20107   5.168   4.552   8.435 -1.8466  1.4116  1.3373
  176SAPI  H17Y20108   5.029   4.599   8.330  0.4059 -0.9258 -1.6292
  176SAPI  C31820109   5.174   4.744   8.333  0.3322 -0.5169  0.0530
  176SAPI  H18X20110   5.146   4.786   8.234 -0.1195 -4.5035 -1.7154
  176SAPI  H18Y20111   5.279   4.756   8.366 -0.3292 -1.0828  2.6259
  176SAPI  H18Z20112   5.107   4.798   8.403 -0.6805 -0.7236 -0.7291
  177SLPC     N20113   2.185   1.766  10.615 -0.0786  0.1664 -0.2610
  177SLPC   C1320114   2.312   1.732  10.545  0.2509 -0.6437  0.6636
  177SLPC  H13A20115   2.290   1.732  10.439 -0.6161 -2.1096  0.8205
  177SLPC  H13B20116   2.383   1.813  10.552  0.6757 -0.9613  0.1339
  177SLPC  H13C20117   2.355   1.638  10.574 -0.0007 -0.8765  0.2884
  177SLPC   C1420118   2.149   1.912  10.583 -0.1805  0.4135 -0.5403
  177SLPC  H14A20119   2.144   1.927  10.477 -0.1869 -0.5232 -0.6850
  177SLPC  H14B20120   2.052   1.933  10.626  1.0602 -0.0398  2.7846
  177SLPC  H14C20121   2.223   1.978  10.626 -0.3089  0.9619 -1.1422
  177SLPC   C1520122   2.205   1.742  10.761 -0.0319  0.4645 -0.4102
  177SLPC  H15A20123   2.182   1.637  10.774 -2.7033  1.0956  0.6030
  177SLPC  H15B20124   2.302   1.770  10.797 -0.9179  2.9275  0.2833
  177SLPC  H15C20125   2.125   1.778  10.824  0.4983 -1.4854  1.4858
  177SLPC   C1220126   2.070   1.675  10.562  0.6834  0.0029 -0.3638
  177SLPC  H12A20127   2.119   1.580  10.546  1.2933  0.2553 -0.0542
  177SLPC  H12B20128   2.048   1.715  10.464  3.4019  0.2252 -0.9796
  177SLPC   C1120129   1.950   1.648  10.644 -0.0062  0.3258 -0.3548
  177SLPC  H11A20130   1.858   1.621  10.587  1.1085  1.8222 -3.0411
  177SLPC  H11B20131   1.923   1.750  10.679  2.9271  0.4819  1.8315
  177SLPC     P20132   1.977   1.406  10.720 -0.0643  0.2439  0.2594
  177SLPC   O1320133   2.101   1.380  10.643  0.2993  0.4980  0.0438
  177SLPC   O1420134   1.946   1.333  10.841  0.3718  0.4294 -0.4014
  177SLPC   O1220135   1.972   1.561  10.754  0.0147 -0.4705  0.2486
  177SLPC   O1120136   1.856   1.391  10.613  0.5680  0.5750 -0.6277
  177SLPC    C120137   1.867   1.285  10.511  0.2703 -0.7330 -0.2100
  177SLPC    HA20138   1.934   1.201  10.538  0.9974 -0.5550 -1.3848
  177SLPC    HB20139   1.776   1.222  10.496 -1.2624  1.3557 -0.1528
  177SLPC    C220140   1.895   1.348  10.375 -0.0327  0.1105  1.1312
  177SLPC    HS20141   1.896   1.268  10.298  0.5082  0.8727  0.3206
  177SLPC   O2120142   2.023   1.414  10.375  0.2958  0.2557 -0.3570
  177SLPC   C2120143   2.131   1.335  10.348  0.3556  0.1389 -0.2781
  177SLPC   O2220144   2.121   1.217  10.321  0.2339  0.8279  0.6060
  177SLPC   C2220145   2.262   1.417  10.359 -0.1938 -0.6787 -0.0165
  177SLPC   H2R20146   2.240   1.514  10.310 -0.9841 -2.3823 -3.2992
  177SLPC   H2S20147   2.292   1.426  10.466  0.2216 -1.4331 -0.0577
  177SLPC    C320148   1.784   1.445  10.330 -0.1817 -0.1017 -0.4378
  177SLPC    HX20149   1.779   1.513  10.418 -0.8720  0.0078 -0.5570
  177SLPC    HY20150   1.685   1.398  10.313  0.1880 -1.2334  0.3943
  177SLPC   O3120151   1.813   1.529  10.215 -0.3157  0.1989  0.4188
  177SLPC   C3120152   1.825   1.472  10.095 -0.1642  0.5385 -0.3136
  177SLPC   O3220153   1.783   1.366  10.062 -0.4213  0.4279 -0.1247
  177SLPC   C3220154   1.908   1.564  10.000 -0.3323 -0.2085  0.1518
  177SLPC   H2X20155   1.875   1.669  10.018  0.3401  0.1283 -0.5008
  177SLPC   H2Y20156   1.871   1.544   9.897  0.0948  1.5503 -0.3897
  177SLPC   C2320157   2.375   1.352  10.270 -0.0638  0.3891  0.2698
  177SLPC   H3R20158   2.341   1.340  10.165  1.1418  2.6040 -0.4276
  177SLPC   H3S20159   2.396   1.256  10.323  2.8289  1.3178  0.9756
  177SLPC   C2420160   2.505   1.437  10.259 -0.4265  0.4738 -0.8576
  177SLPC   H4R20161   2.595   1.375  10.238  1.3731  2.5489  0.3159
  177SLPC   H4S20162   2.532   1.483  10.356  0.8547 -1.4856 -0.2056
  177SLPC   C2520163   2.496   1.549  10.153  0.4593  0.4429 -0.4598
  177SLPC   H5R20164   2.522   1.648  10.197 -1.2150 -0.0339  1.7877
  177SLPC   H5S20165   2.386   1.558  10.138 -0.0246 -1.5849  1.3648
  177SLPC   C2620166   2.577   1.527  10.023 -0.1961 -0.6555 -0.8666
  177SLPC   H6R20167   2.550   1.431   9.974  0.7749 -1.2279 -0.3139
  177SLPC   H6S20168   2.682   1.515  10.057 -0.5359 -1.1957  0.0202
  177SLPC   C2720169   2.565   1.645   9.914  0.0285 -0.2781 -0.6005
  177SLPC   H7R20170   2.536   1.736   9.970  0.7763  0.2553 -1.0616
  177SLPC   H7S20171   2.479   1.637   9.844 -1.0569  2.8933  0.2072
  177SLPC   C2820172   2.692   1.669   9.838  0.1441 -0.3995 -0.2115
  177SLPC   H8R20173   2.718   1.565   9.808 -0.9982 -0.5049 -0.8687
  177SLPC   H8S20174   2.771   1.705   9.908  0.9201 -0.1427 -1.1958
  177SLPC   C2920175   2.673   1.750   9.712  0.2529 -0.3905  0.0709
  177SLPC   H9R20176   2.708   1.853   9.720 -0.8062  0.1321 -1.4499
  177SLPC  C21020177   2.630   1.711   9.594  0.1311  0.0746  0.3283
  177SLPC  H10R20178   2.615   1.792   9.522 -0.9865  2.2419  2.8230
  177SLPC  C21120179   2.578   1.572   9.567 -0.3701 -0.4257 -0.2288
  177SLPC  H11R20180   2.664   1.513   9.528  1.1200  1.4968 -0.0045
  177SLPC  H11S20181   2.531   1.525   9.656 -0.2689  0.5633  0.3603
  177SLPC  C21220182   2.468   1.565   9.471 -0.4311 -0.7264 -0.1564
  177SLPC  H12R20183   2.370   1.575   9.520 -0.0589 -0.4404  0.5551
  177SLPC  C21320184   2.482   1.584   9.338  0.2353  0.2011  0.1544
  177SLPC  H13R20185   2.392   1.587   9.275 -0.6318 -1.5824  1.2317
  177SLPC  C21420186   2.610   1.601   9.260  0.2611  0.3046  0.6509
  177SLPC  H14R20187   2.701   1.600   9.324  0.9100 -2.1759 -0.1741
  177SLPC  H14S20188   2.602   1.691   9.196  2.1245 -0.6668 -1.0848
  177SLPC  C21520189   2.649   1.488   9.163  0.5541  0.0643 -0.1317
  177SLPC  H15R20190   2.558   1.442   9.118  0.6425 -0.6936  0.4383
  177SLPC  H15S20191   2.697   1.403   9.216 -3.4687 -2.3606  0.0248
  177SLPC  C21620192   2.738   1.527   9.042  0.0120 -0.1474 -0.6173
  177SLPC  H16R20193   2.830   1.572   9.085 -0.1162  0.2345 -0.7339
  177SLPC  H16S20194   2.680   1.596   8.976 -0.9715 -2.3401 -2.1766
  177SLPC  C21720195   2.782   1.409   8.959  0.7916 -0.2458 -0.0408
  177SLPC  H17R20196   2.698   1.356   8.909 -0.2023  0.6985  0.5900
  177SLPC  H17S20197   2.842   1.338   9.020 -1.1755 -0.0659  2.2502
  177SLPC  C21820198   2.872   1.475   8.853 -0.1331  0.3174 -1.0956
  177SLPC  H18R20199   2.814   1.554   8.800  0.4352  0.8477 -0.9366
  177SLPC  H18S20200   2.911   1.398   8.783 -0.4560  1.4213 -2.5355
  177SLPC  H18T20201   2.959   1.519   8.905 -1.7217  1.1554  1.0051
  177SLPC   C3320202   2.065   1.538  10.000  0.4055  0.4450  0.1527
  177SLPC   H3X20203   2.078   1.431  10.029  3.0054  0.6678 -0.0119
  177SLPC   H3Y20204   2.102   1.594  10.088 -0.2434  0.6153  0.3192
  177SLPC   C3420205   2.143   1.576   9.880  0.1006 -0.2531  0.4841
  177SLPC   H4X20206   2.076   1.552   9.794  1.7857  1.1824 -1.3042
  177SLPC   H4Y20207   2.227   1.504   9.876  0.2193 -0.4334  3.6408
  177SLPC   C3520208   2.184   1.715   9.882  0.1416 -0.1420 -0.2675
  177SLPC   H5X20209   2.283   1.721   9.931  0.1606 -1.8795 -0.0524
  177SLPC   H5Y20210   2.113   1.778   9.941  0.3222  1.2891 -1.5175
  177SLPC   C3620211   2.192   1.778   9.747 -0.3160 -0.6732  1.0268
  177SLPC   H6X20212   2.260   1.715   9.686 -0.8975 -2.1095  1.8071
  177SLPC   H6Y20213   2.234   1.880   9.752  1.4849 -1.2377 -1.0528
  177SLPC   C3720214   2.060   1.800   9.668 -0.3880 -0.4788 -0.6553
  177SLPC   H7X20215   1.988   1.849   9.736  0.6225 -0.0933  0.1649
  177SLPC   H7Y20216   2.023   1.701   9.634  0.7740 -1.1339 -0.0702
  177SLPC   C3820217   2.073   1.878   9.541 -0.0083  0.1012  0.4654
  177SLPC   H8X20218   2.139   1.966   9.558 -0.5539  1.4853 -3.4614
  177SLPC   H8Y20219   1.979   1.920   9.499  0.5818  0.4293 -0.5739
  177SLPC   C3920220   2.143   1.795   9.425  0.1579 -0.7210  0.1390
  177SLPC   H9X20221   2.105   1.691   9.435  1.3673 -1.4061 -1.8175
  177SLPC   H9Y20222   2.249   1.789   9.459 -0.4924  1.2594  2.8528
  177SLPC  C31020223   2.128   1.856   9.284  0.1843 -0.0214  0.2266
  177SLPC  H10X20224   2.194   1.944   9.270  1.8598 -0.8506  2.3221
  177SLPC  H10Y20225   2.025   1.894   9.263  0.9848  0.9838 -2.1951
  177SLPC  C31120226   2.152   1.747   9.176 -0.0168  0.5441 -0.3439
  177SLPC  H11X20227   2.113   1.651   9.218 -0.6696  1.2135  0.6273
  177SLPC  H11Y20228   2.260   1.738   9.155  0.0230  0.2215 -0.0176
  177SLPC  C31220229   2.089   1.779   9.040  0.3672  0.3947 -0.7617
  177SLPC  H12X20230   2.120   1.883   9.014 -0.6802  1.0652  0.5073
  177SLPC  H12Y20231   1.979   1.789   9.056  0.7001  0.7431  1.7116
  177SLPC  C31320232   2.112   1.668   8.934 -0.4294  0.3142  0.2080
  177SLPC  H13X20233   2.066   1.690   8.835 -2.4493 -2.7702  0.3237
  177SLPC  H13Y20234   2.057   1.575   8.959 -0.4567  0.0799 -0.7001
  177SLPC  C31420235   2.256   1.637   8.916 -1.0053 -0.2672 -0.1351
  177SLPC  H14X20236   2.289   1.591   9.011 -2.6956  0.0585  0.6460
  177SLPC  H14Y20237   2.300   1.739   8.902  1.6563 -1.4537 -1.1408
  177SLPC  C31520238   2.294   1.575   8.786  0.6104  0.1974  0.6249
  177SLPC  H15X20239   2.278   1.638   8.696  0.3593 -1.5068 -0.5717
  177SLPC  H15Y20240   2.234   1.481   8.780  0.0153  0.6285 -0.3703
  177SLPC  C31620241   2.443   1.534   8.766  0.3665 -0.4493  0.3023
  177SLPC  H16X20242   2.482   1.462   8.841 -0.4500 -1.1210  0.0957
  177SLPC  H16Y20243   2.500   1.629   8.772 -2.2393  1.2077  0.3193
  177SLPC  C31720244   2.452   1.478   8.627  0.4199  0.0555  0.7525
  177SLPC  H17X20245   2.416   1.550   8.551 -0.1139 -1.1324 -0.1425
  177SLPC  H17Y20246   2.387   1.391   8.605 -0.4818  0.7626  0.5660
  177SLPC  C31820247   2.598   1.440   8.600  0.3843  0.4253  0.1818
  177SLPC  H18X20248   2.677   1.514   8.624  1.5946 -0.2564 -1.4901
  177SLPC  H18Y20249   2.614   1.415   8.492 -0.4800  4.2237 -0.9856
  177SLPC  H18Z20250   2.614   1.349   8.661  1.6310  1.3533  1.3149
  178SLPC     N20251   4.861   4.454  11.079 -0.3030  0.2884 -0.3303
  178SLPC   C1320252   4.741   4.451  11.167  0.0428 -0.4143  0.2357
  178SLPC  H13A20253   4.778   4.407  11.259  1.6954 -0.9600 -0.6337
  178SLPC  H13B20254   4.710   4.553  11.180  0.2410 -0.4823  1.4063
  178SLPC  H13C20255   4.663   4.394  11.119 -1.6456  1.5942  0.4907
  178SLPC   C1420256   4.911   4.312  11.051  0.0377 -0.5045 -0.6420
  178SLPC  H14A20257   4.842   4.269  10.980 -2.1144 -0.1377  1.1522
  178SLPC  H14B20258   5.014   4.310  11.017  0.1400  0.5627 -0.4347
  178SLPC  H14C20259   4.903   4.252  11.140 -0.2960  0.5400  0.0474
  178SLPC   C1520260   4.969   4.528  11.152 -0.0081  0.2361 -0.8378
  178SLPC  H15A20261   4.941   4.629  11.181 -0.2231 -0.0917  0.1506
  178SLPC  H15B20262   5.002   4.478  11.242  0.5675 -0.0911 -1.2251
  178SLPC  H15C20263   5.055   4.525  11.087 -0.2391 -0.4663 -1.1195
  178SLPC   C1220264   4.835   4.521  10.946  0.0631 -0.4638 -0.2407
  178SLPC  H12A20265   4.933   4.527  10.901 -0.0003  0.4462 -0.2797
  178SLPC  H12B20266   4.810   4.625  10.959 -1.4513 -0.6385 -1.4772
  178SLPC   C1120267   4.725   4.464  10.865 -0.5152  0.1571  0.7106
  178SLPC  H11A20268   4.754   4.359  10.845 -0.8037  0.3290 -0.7205
  178SLPC  H11B20269   4.729   4.505  10.762 -0.3169  1.5537  1.2440
  178SLPC     P20270   4.525   4.610  10.935 -0.5466 -0.1131 -0.0661
  178SLPC   O1320271   4.479   4.621  11.073  0.7345  0.2629  0.1625
  178SLPC   O1420272   4.617   4.712  10.883  0.5749 -0.4568  0.3954
  178SLPC   O1220273   4.598   4.477  10.928 -0.4827 -0.3989  0.8648
  178SLPC   O1120274   4.405   4.589  10.838 -0.0648 -0.4003  0.3499
  178SLPC    C120275   4.364   4.473  10.766  0.6130 -0.3349 -0.5173
  178SLPC    HA20276   4.385   4.383  10.827 -3.4266  0.4588  2.5399
  178SLPC    HB20277   4.254   4.481  10.748  0.7047  1.6535 -0.4082
  178SLPC    C220278   4.422   4.454  10.624  0.0578 -0.0694 -0.0337
  178SLPC    HS20279   4.531   4.470  10.639  0.1498  0.0481 -0.7718
  178SLPC   O2120280   4.357   4.552  10.543 -0.4592 -0.1705 -0.0205
  178SLPC   C2120281   4.431   4.597  10.443 -0.2146 -0.4047  0.4430
  178SLPC   O2220282   4.549   4.576  10.430  0.0250  0.1694  0.4259
  178SLPC   C2220283   4.360   4.696  10.352  0.1711 -0.0225 -0.5627
  178SLPC   H2R20284   4.273   4.738  10.407 -0.2184 -1.4174 -0.0755
  178SLPC   H2S20285   4.438   4.770  10.322  0.8229 -0.2753  0.4378
  178SLPC    C320286   4.398   4.306  10.579 -0.1671 -0.0742 -0.2068
  178SLPC    HX20287   4.293   4.277  10.603 -0.2965 -0.2756 -0.9676
  178SLPC    HY20288   4.462   4.238  10.640  0.1625  1.0178  0.6910
  178SLPC   O3120289   4.415   4.283  10.435 -0.4702 -0.3122  0.0522
  178SLPC   C3120290   4.541   4.256  10.412 -0.2697 -0.4043  0.0253
  178SLPC   O3220291   4.633   4.254  10.490 -0.6915  0.4282  0.7009
  178SLPC   C3220292   4.552   4.228  10.260 -0.1378  0.3592  0.0445
  178SLPC   H2X20293   4.524   4.326  10.216 -2.2681  0.2983  1.1419
  178SLPC   H2Y20294   4.472   4.154  10.238  0.2294  0.1127 -0.4944
  178SLPC   C2320295   4.301   4.617  10.234 -0.0972  0.3171  0.3887
  178SLPC   H3R20296   4.217   4.675  10.190  0.3654  1.3679  0.8576
  178SLPC   H3S20297   4.263   4.523  10.278 -1.8750  0.7481 -0.1247
  178SLPC   C2420298   4.407   4.604  10.117 -0.0513 -0.3934 -0.1141
  178SLPC   H4R20299   4.498   4.553  10.155  0.4940 -0.9909 -2.0634
  178SLPC   H4S20300   4.438   4.704  10.081 -3.0752  1.0396  0.9794
  178SLPC   C2520301   4.369   4.518   9.995  0.7190 -0.0033  0.1757
  178SLPC   H5R20302   4.367   4.410  10.024 -3.6017 -0.3147 -0.5917
  178SLPC   H5S20303   4.453   4.521   9.922  0.8823  2.3049  0.3746
  178SLPC   C2620304   4.241   4.551   9.925  0.0668 -0.3423  0.0444
  178SLPC   H6R20305   4.258   4.655   9.889  3.4193  0.3862  3.0802
  178SLPC   H6S20306   4.166   4.554  10.007  0.8738 -0.6461  0.8133
  178SLPC   C2720307   4.202   4.457   9.809  0.3020 -1.0010 -0.0062
  178SLPC   H7R20308   4.194   4.355   9.852 -1.1871 -0.1613  1.8770
  178SLPC   H7S20309   4.285   4.465   9.736  0.0179 -2.1037 -0.4620
  178SLPC   C2820310   4.061   4.491   9.752 -0.4271  0.1157 -0.3339
  178SLPC   H8R20311   4.000   4.475   9.844  1.0564 -0.1665  0.6429
  178SLPC   H8S20312   4.028   4.414   9.679  0.9998 -1.0132  0.1735
  178SLPC   C2920313   4.062   4.626   9.687 -0.2602  0.0672 -0.0753
  178SLPC   H9R20314   4.060   4.703   9.766 -2.2711  1.2562 -1.1845
  178SLPC  C21020315   4.034   4.654   9.558 -0.6735 -0.3993 -0.2822
  178SLPC  H10R20316   4.033   4.762   9.535  1.6200 -0.7847 -2.7000
  178SLPC  C21120317   3.998   4.559   9.446  0.0168 -0.3182  0.0885
  178SLPC  H11R20318   3.914   4.591   9.380  1.3422  0.6566 -1.1966
  178SLPC  H11S20319   3.970   4.457   9.481 -1.0760 -0.5308 -1.2986
  178SLPC  C21220320   4.114   4.550   9.354 -0.1535  0.3021  0.8016
  178SLPC  H12R20321   4.213   4.536   9.399 -0.0277  0.7978  0.6846
  178SLPC  C21320322   4.106   4.555   9.214 -0.1327 -0.1829 -0.5102
  178SLPC  H13R20323   4.198   4.536   9.157  0.3300  0.3404  0.0466
  178SLPC  C21420324   3.981   4.565   9.131 -0.7326  0.1003 -0.6149
  178SLPC  H14R20325   3.897   4.515   9.184 -0.5902 -0.0523 -0.5319
  178SLPC  H14S20326   3.998   4.486   9.055 -0.4307 -2.9174  2.3686
  178SLPC  C21520327   3.939   4.701   9.070 -0.7509 -0.3800 -0.0171
  178SLPC  H15R20328   3.930   4.777   9.149  1.4820  1.0518 -1.0294
  178SLPC  H15S20329   3.844   4.681   9.016  0.0416 -2.3997 -0.8105
  178SLPC  C21620330   4.042   4.759   8.969  0.2055 -0.6968 -0.1108
  178SLPC  H16R20331   4.146   4.740   9.004  0.3026 -0.7811 -0.4452
  178SLPC  H16S20332   4.038   4.868   8.989  1.5143 -0.7361  0.5088
  178SLPC  C21720333   4.005   4.719   8.833 -0.3356 -0.5693  0.2565
  178SLPC  H17R20334   4.056   4.794   8.769  0.8448 -0.3968  1.3610
  178SLPC  H17S20335   3.895   4.727   8.817 -0.1237 -1.7202 -2.2012
  178SLPC  C21820336   4.053   4.582   8.798 -0.2499  0.0349 -0.2769
  178SLPC  H18R20337   4.038   4.575   8.688 -2.5457 -0.7566  0.0228
  178SLPC  H18S20338   4.004   4.494   8.845  0.3256 -0.2099 -0.1243
  178SLPC  H18T20339   4.162   4.576   8.821 -0.1053 -0.0892 -0.9651
  178SLPC   C3320340   4.688   4.189  10.219 -0.0217  0.5083 -0.4388
  178SLPC   H3X20341   4.740   4.103  10.268 -0.5222  1.2268  1.4408
  178SLPC   H3Y20342   4.756   4.277  10.222  1.2886 -0.3484 -2.7432
  178SLPC   C3420343   4.704   4.152  10.070  0.2757 -0.4458  0.2258
  178SLPC   H4X20344   4.646   4.059  10.056  1.4921 -0.8657 -2.7108
  178SLPC   H4Y20345   4.809   4.140  10.037  0.3258  0.8394 -0.1349
  178SLPC   C3520346   4.643   4.259   9.985  0.7646  0.3625 -0.3290
  178SLPC   H5X20347   4.692   4.356  10.009  1.5073  0.0484 -0.5535
  178SLPC   H5Y20348   4.533   4.264   9.998  0.9560  1.7472  0.9959
  178SLPC   C3620349   4.652   4.233   9.832 -0.8689  0.1436 -0.1328
  178SLPC   H6X20350   4.609   4.133   9.809  0.5482 -0.1586 -1.6718
  178SLPC   H6Y20351   4.755   4.226   9.791 -0.8080 -1.6870  0.2673
  178SLPC   C3720352   4.582   4.351   9.763  0.7209 -0.3386  0.4292
  178SLPC   H7X20353   4.624   4.445   9.805 -0.7895  0.8910 -0.6990
  178SLPC   H7Y20354   4.475   4.346   9.791  0.1389 -0.9279 -1.7158
  178SLPC   C3820355   4.601   4.361   9.612 -0.6944 -0.1454  0.8491
  178SLPC   H8X20356   4.705   4.398   9.605 -0.7634  0.0630  0.9207
  178SLPC   H8Y20357   4.536   4.438   9.567 -0.5577  0.6487  1.9649
  178SLPC   C3920358   4.581   4.227   9.539 -0.5738 -0.5288 -0.3360
  178SLPC   H9X20359   4.479   4.186   9.556  0.5415 -3.3134  0.2124
  178SLPC   H9Y20360   4.654   4.153   9.580 -0.9473 -0.7333 -0.0419
  178SLPC  C31020361   4.615   4.248   9.395  0.4680 -0.3510 -0.1170
  178SLPC  H10X20362   4.712   4.296   9.375  0.1011  0.7947  0.7561
  178SLPC  H10Y20363   4.541   4.328   9.374 -1.0490 -1.7487 -0.3609
  178SLPC  C31120364   4.590   4.134   9.294  0.2860 -0.4167 -0.1583
  178SLPC  H11X20365   4.569   4.181   9.195  2.6251 -0.4848 -0.7332
  178SLPC  H11Y20366   4.501   4.075   9.323  0.0826 -0.2184 -0.3699
  178SLPC  C31220367   4.712   4.044   9.275  0.0713  0.5292 -0.2206
  178SLPC  H12X20368   4.670   3.963   9.212  0.0984  0.7999 -0.5887
  178SLPC  H12Y20369   4.738   3.992   9.370 -4.2626  0.0304  0.9409
  178SLPC  C31320370   4.835   4.104   9.204 -0.4603  0.4687 -0.0945
  178SLPC  H13X20371   4.920   4.034   9.214 -1.9098 -1.1716  1.5235
  178SLPC  H13Y20372   4.858   4.193   9.266 -1.3446  0.5360  0.1619
  178SLPC  C31420373   4.817   4.147   9.058  0.0090 -0.4155 -0.3563
  178SLPC  H14X20374   4.889   4.231   9.048  1.4421 -1.3410  1.5575
  178SLPC  H14Y20375   4.718   4.194   9.039 -0.2423 -0.7968 -0.0071
  178SLPC  C31520376   4.844   4.024   8.965 -0.2139 -0.5004 -0.2693
  178SLPC  H15X20377   4.908   3.949   9.016 -0.3033  0.1065  0.7766
  178SLPC  H15Y20378   4.746   3.973   8.950 -0.1142 -0.6190 -0.5192
  178SLPC  C31620379   4.891   4.062   8.819 -0.5678 -0.3492  1.3557
  178SLPC  H16X20380   4.867   3.971   8.761  3.0693 -1.7265  1.7231
  178SLPC  H16Y20381   4.999   4.088   8.817 -0.6106 -0.2311  0.2045
  178SLPC  C31720382   4.816   4.172   8.742 -0.0077 -0.0166 -0.1350
  178SLPC  H17X20383   4.832   4.267   8.798  0.2484  0.7959 -1.5516
  178SLPC  H17Y20384   4.707   4.153   8.733 -0.4188 -1.3833  4.6307
  178SLPC  C31820385   4.902   4.202   8.612 -0.0132  0.0835  0.1447
  178SLPC  H18X20386   4.844   4.286   8.567 -0.1647  0.1337  0.4305
  178SLPC  H18Y20387   4.905   4.113   8.546  1.4338  0.1694  0.0644
  178SLPC  H18Z20388   5.002   4.241   8.641 -0.3966  1.0506  0.2222
  179SLPC     N20389   1.534   1.557  10.775 -0.1364 -0.8544  0.3340
  179SLPC   C1320390   1.488   1.457  10.883  0.4167  1.0330  0.6611
  179SLPC  H13A20391   1.573   1.393  10.902  1.3773  2.3045  0.8021
  179SLPC  H13B20392   1.440   1.504  10.967 -2.9415  1.4823 -1.3346
  179SLPC  H13C20393   1.407   1.399  10.841  0.5102  0.0147  1.8399
  179SLPC   C1420394   1.645   1.632  10.845 -0.1005 -0.0234 -0.1575
  179SLPC  H14A20395   1.628   1.674  10.943 -0.8224 -1.4472  0.3713
  179SLPC  H14B20396   1.720   1.557  10.870  0.7548  0.2974 -1.6475
  179SLPC  H14C20397   1.690   1.701  10.775  0.3519 -0.8802 -0.7289
  179SLPC   C1520398   1.413   1.645  10.734 -0.6899 -0.0989 -0.3162
  179SLPC  H15A20399   1.333   1.583  10.698  0.2820 -1.4262 -0.2757
  179SLPC  H15B20400   1.383   1.708  10.817 -2.3608 -0.0908 -0.9054
  179SLPC  H15C20401   1.442   1.720  10.663 -2.4961  1.0347  0.0708
  179SLPC   C1220402   1.583   1.481  10.657  0.1223  0.5398 -0.1030
  179SLPC  H12A20403   1.667   1.420  10.684  0.3281  0.5661 -0.6800
  179SLPC  H12B20404   1.617   1.557  10.588 -1.5644 -2.4629 -4.7594
  179SLPC   C1120405   1.482   1.393  10.573 -0.0813 -0.3538 -0.6927
  179SLPC  H11A20406   1.438   1.318  10.643  2.6388 -0.9068  0.5613
  179SLPC  H11B20407   1.548   1.345  10.498  2.9503  0.8014  1.0664
  179SLPC     P20408   1.406   1.546  10.380  0.4834 -0.4667 -0.2879
  179SLPC   O1320409   1.278   1.608  10.338 -0.6835  0.8415 -0.5649
  179SLPC   O1420410   1.513   1.646  10.395  0.0118 -0.0815  0.5891
  179SLPC   O1220411   1.375   1.474  10.521 -0.2563 -0.1405  0.2485
  179SLPC   O1120412   1.447   1.428  10.287 -0.4597  0.1538  0.1206
  179SLPC    C120413   1.360   1.318  10.269 -0.1313 -0.4325  0.0486
  179SLPC    HA20414   1.334   1.278  10.369  1.1626  1.2058  1.0986
  179SLPC    HB20415   1.273   1.343  10.204 -0.2581 -0.8697  0.0435
  179SLPC    C220416   1.434   1.200  10.201  0.8358 -0.3254  0.5409
  179SLPC    HS20417   1.532   1.192  10.253  1.2996  2.1586  0.1349
  179SLPC   O2120418   1.441   1.238  10.064 -0.6741 -0.0278 -0.3469
  179SLPC   C2120419   1.530   1.159  10.007 -0.1517 -0.0566  0.8228
  179SLPC   O2220420   1.593   1.062  10.046 -0.1549 -1.0299 -0.6661
  179SLPC   C2220421   1.533   1.204   9.860 -0.2379 -0.3580 -0.3631
  179SLPC   H2R20422   1.428   1.233   9.836  0.0127  1.6559  0.7299
  179SLPC   H2S20423   1.588   1.300   9.864 -3.4939  1.6135  1.3050
  179SLPC    C320424   1.359   1.070  10.221  0.5410  0.4862  0.1396
  179SLPC    HX20425   1.353   1.048  10.330 -0.8756 -0.8510 -0.1704
  179SLPC    HY20426   1.401   0.980  10.172  0.8786  0.3733  0.6279
  179SLPC   O3120427   1.227   1.091  10.176 -0.3818 -0.0832  0.1785
  179SLPC   C3120428   1.154   0.985  10.160 -0.3417 -0.9683  0.2377
  179SLPC   O3220429   1.184   0.872  10.199  0.0370  0.0092  0.1521
  179SLPC   C3220430   1.035   1.024  10.078  0.5024  0.0818 -0.4794
  179SLPC   H2X20431   1.022   1.133  10.065 -0.0727 -0.0928 -1.4685
  179SLPC   H2Y20432   0.952   1.001  10.148  0.3105  1.3124 -0.2742
  179SLPC   C2320433   1.599   1.101   9.771 -0.4531  0.2134  0.2725
  179SLPC   H3R20434   1.552   1.003   9.793 -0.1712 -0.1851 -0.8081
  179SLPC   H3S20435   1.707   1.087   9.792 -0.6754  0.7752  1.8418
  179SLPC   C2420436   1.585   1.143   9.623  0.8393  0.5408 -0.3395
  179SLPC   H4R20437   1.651   1.231   9.610 -1.6358  2.5200 -0.4537
  179SLPC   H4S20438   1.480   1.177   9.604 -0.0645 -0.6532  2.1092
  179SLPC   C2520439   1.630   1.036   9.528 -0.5238  0.0271 -0.3842
  179SLPC   H5R20440   1.578   0.942   9.556 -0.5394  0.2336  0.2904
  179SLPC   H5S20441   1.740   1.020   9.530 -0.7863 -1.9978 -0.1747
  179SLPC   C2620442   1.601   1.064   9.386 -0.0151 -0.7341  0.0122
  179SLPC   H6R20443   1.685   1.128   9.351 -0.3556 -1.2333 -1.8777
  179SLPC   H6S20444   1.506   1.120   9.371  1.0972  1.1535 -0.2866
  179SLPC   C2720445   1.608   0.946   9.285  0.3961  0.4018 -0.3817
  179SLPC   H7R20446   1.522   0.885   9.320 -0.0198  0.4965 -1.2272
  179SLPC   H7S20447   1.697   0.883   9.306 -0.6241 -0.6525  0.9346
  179SLPC   C2820448   1.581   0.979   9.135 -0.5384  0.4190 -0.0680
  179SLPC   H8R20449   1.661   1.047   9.099 -1.4790  1.1338 -0.8482
  179SLPC   H8S20450   1.482   1.027   9.120  0.0023  1.5954  0.0327
  179SLPC   C2920451   1.588   0.856   9.056  0.1097  0.3052  0.0563
  179SLPC   H9R20452   1.593   0.770   9.125  1.1620  0.6929  0.4895
  179SLPC  C21020453   1.600   0.855   8.922  0.5425 -0.4468  0.3906
  179SLPC  H10R20454   1.599   0.758   8.869 -0.3066 -0.4108  0.3358
  179SLPC  C21120455   1.604   0.977   8.828  0.4165 -0.0759 -1.3047
  179SLPC  H11R20456   1.648   0.937   8.734  0.1639  0.8129 -1.8073
  179SLPC  H11S20457   1.669   1.055   8.872  0.2254 -0.9068  0.5430
  179SLPC  C21220458   1.463   1.036   8.817 -0.0781  0.5144 -0.1960
  179SLPC  H12R20459   1.410   1.060   8.910 -0.3951  0.4965 -0.3692
  179SLPC  C21320460   1.408   1.066   8.698 -0.1808 -0.2153  0.1491
  179SLPC  H13R20461   1.304   1.101   8.699  0.1910  0.9816 -0.8711
  179SLPC  C21420462   1.479   1.043   8.560  0.1794  0.8835  0.2220
  179SLPC  H14R20463   1.532   0.945   8.558 -1.8990 -0.3144  0.6473
  179SLPC  H14S20464   1.547   1.130   8.548 -0.6608  1.4398 -0.6658
  179SLPC  C21520465   1.384   1.053   8.432 -0.6487  0.0013 -0.4377
  179SLPC  H15R20466   1.306   1.129   8.455  2.4137  2.8250  1.5398
  179SLPC  H15S20467   1.334   0.957   8.409  1.1960 -1.1598  0.1741
  179SLPC  C21620468   1.466   1.080   8.307 -0.5457  0.2934 -0.2180
  179SLPC  H16R20469   1.537   0.995   8.306  0.5734  1.1959  0.1446
  179SLPC  H16S20470   1.519   1.177   8.314  0.1886 -0.2053  2.6011
  179SLPC  C21720471   1.387   1.051   8.172 -0.3475 -0.1243 -0.5678
  179SLPC  H17R20472   1.450   1.070   8.082  1.4347  0.6333  0.7747
  179SLPC  H17S20473   1.299   1.119   8.174 -1.0933 -0.9937 -2.0425
  179SLPC  C21820474   1.326   0.914   8.149 -1.3079 -0.2633  0.2107
  179SLPC  H18R20475   1.322   0.890   8.040 -1.3303 -2.4847  0.6520
  179SLPC  H18S20476   1.233   0.901   8.208 -1.4059 -0.7946 -0.0527
  179SLPC  H18T20477   1.406   0.841   8.173 -0.8570  0.3211  0.5027
  179SLPC   C3320478   1.019   0.952   9.944 -0.1092 -0.0316  0.2785
  179SLPC   H3X20479   0.918   0.973   9.903  0.1498  0.4034 -0.1460
  179SLPC   H3Y20480   1.027   0.842   9.953 -1.2236 -0.2263 -0.9445
  179SLPC   C3420481   1.122   0.998   9.835  0.1280  0.2610  0.0517
  179SLPC   H4X20482   1.219   0.945   9.843  0.3704  0.7548  0.3498
  179SLPC   H4Y20483   1.140   1.105   9.856  3.3492  0.0498 -1.0807
  179SLPC   C3520484   1.070   0.973   9.683 -0.7036  0.2202 -0.1456
  179SLPC   H5X20485   0.966   1.010   9.671 -0.4787  0.1758 -2.7177
  179SLPC   H5Y20486   1.072   0.863   9.673 -2.0782  0.1574  0.1400
  179SLPC   C3620487   1.165   1.024   9.576 -0.1240  0.0827  0.1927
  179SLPC   H6X20488   1.266   0.979   9.590 -1.0078 -2.8801 -1.8662
  179SLPC   H6Y20489   1.185   1.133   9.575 -1.4316  0.3570 -2.3367
  179SLPC   C3720490   1.116   0.992   9.427  0.2528  0.4458 -0.8269
  179SLPC   H7X20491   1.115   0.881   9.426 -0.0287  0.3995  1.1935
  179SLPC   H7Y20492   1.208   1.020   9.370  1.6220 -2.6618 -0.3391
  179SLPC   C3820493   0.980   1.044   9.384 -0.2965 -0.3621  0.3007
  179SLPC   H8X20494   0.943   1.126   9.449  1.9479  1.7976 -0.9528
  179SLPC   H8Y20495   0.910   0.959   9.395 -0.6207  0.0603  1.7054
  179SLPC   C3920496   0.969   1.090   9.243  1.3619 -0.8946 -0.1927
  179SLPC   H9X20497   1.010   1.194   9.248  0.3313 -0.5147  0.9149
  179SLPC   H9Y20498   0.863   1.113   9.221  1.5588 -0.2652 -0.5100
  179SLPC  C31020499   1.030   1.007   9.134  0.0299  0.3623  0.0948
  179SLPC  H10X20500   0.999   0.901   9.147  2.4688 -0.4283 -0.0703
  179SLPC  H10Y20501   1.139   1.007   9.116  0.1140 -0.9915  0.4319
  179SLPC  C31120502   0.971   1.069   9.001 -0.1964  0.3958  0.2500
  179SLPC  H11X20503   0.989   1.179   9.004  0.3994  0.3184 -0.3767
  179SLPC  H11Y20504   0.862   1.045   8.998 -0.5792  1.4721  2.7225
  179SLPC  C31220505   1.040   1.003   8.886 -0.2613  0.3088  0.2606
  179SLPC  H12X20506   1.031   0.893   8.897  0.1488  0.3086  0.6115
  179SLPC  H12Y20507   1.149   1.027   8.886  0.1724 -1.5385  0.2356
  179SLPC  C31320508   0.978   1.039   8.757 -0.0429  0.0537  0.3873
  179SLPC  H13X20509   0.990   1.148   8.740  0.2583 -0.4423 -3.3729
  179SLPC  H13Y20510   0.868   1.025   8.763  0.1188 -1.8751 -0.2900
  179SLPC  C31420511   1.031   0.961   8.631  0.5452 -0.2122 -0.3041
  179SLPC  H14X20512   1.021   0.853   8.657 -1.2439 -0.4639 -1.8277
  179SLPC  H14Y20513   1.138   0.989   8.623  0.1790  1.0004 -1.1938
  179SLPC  C31520514   0.948   1.011   8.509  0.0007 -0.1894 -0.1792
  179SLPC  H15X20515   0.844   0.977   8.529  0.2227 -1.0009 -0.3816
  179SLPC  H15Y20516   0.982   0.964   8.414  0.3648  0.1782 -0.2311
  179SLPC  C31620517   0.947   1.166   8.486 -0.2056  0.0563  0.2672
  179SLPC  H16X20518   1.046   1.214   8.507  0.1417 -0.2243 -0.6668
  179SLPC  H16Y20519   0.870   1.205   8.555 -2.0048  0.8622 -2.0449
  179SLPC  C31720520   0.893   1.199   8.342 -0.1728 -1.0771 -0.0009
  179SLPC  H17X20521   0.960   1.168   8.259 -2.7159  0.9628 -3.0673
  179SLPC  H17Y20522   0.892   1.310   8.329  0.4427 -1.0518  0.1400
  179SLPC  C31820523   0.757   1.143   8.302 -0.3027  0.0992  0.3710
  179SLPC  H18X20524   0.686   1.148   8.387  1.0149 -2.6620  1.7312
  179SLPC  H18Y20525   0.763   1.038   8.268 -2.3442 -0.0370  0.3246
  179SLPC  H18Z20526   0.719   1.194   8.211 -0.2417 -1.2530 -0.4364
  180SLPC     N20527   0.336   5.889  11.068  0.0879  0.1150  0.6368
  180SLPC   C1320528   0.476   5.906  11.016 -0.1207  0.3410  0.2867
  180SLPC  H13A20529   0.477   5.932  10.911  2.1549 -1.0146 -0.1045
  180SLPC  H13B20530   0.533   5.981  11.068  0.9298 -1.4166  1.7986
  180SLPC  H13C20531   0.534   5.816  11.033 -2.0769 -1.0820 -0.2355
  180SLPC   C1420532   0.269   6.025  11.068  0.3975  0.3830  0.3895
  180SLPC  H14A20533   0.268   6.068  10.969  1.7194  0.8404  0.5516
  180SLPC  H14B20534   0.170   6.013  11.110  0.3398 -0.5254  0.0057
  180SLPC  H14C20535   0.320   6.083  11.143  0.2496  0.2289  0.6105
  180SLPC   C1520536   0.340   5.840  11.208 -0.2117  0.0419  0.0933
  180SLPC  H15A20537   0.345   5.733  11.217  0.3615  0.0660  0.1062
  180SLPC  H15B20538   0.427   5.880  11.259  0.5526 -1.7409  0.2567
  180SLPC  H15C20539   0.247   5.861  11.259 -0.2690 -1.2160  0.5475
  180SLPC   C1220540   0.260   5.795  10.976 -0.3315 -0.0822 -0.0255
  180SLPC  H12A20541   0.163   5.786  11.023  1.3212 -0.7461  3.6572
  180SLPC  H12B20542   0.300   5.695  10.969 -1.3957 -0.7575  2.2574
  180SLPC   C1120543   0.240   5.845  10.829 -0.3775 -0.4980 -0.4451
  180SLPC  H11A20544   0.194   5.946  10.818  1.3483  0.4646  0.6714
  180SLPC  H11B20545   0.168   5.777  10.780 -1.2991  0.3487 -0.3005
  180SLPC     P20546   0.447   5.751  10.701 -0.0407  0.2901 -0.1919
  180SLPC   O1320547   0.573   5.818  10.655  0.3004  0.0139 -0.1105
  180SLPC   O1420548   0.454   5.642  10.797  0.8993 -0.2992  0.1487
  180SLPC   O1220549   0.357   5.864  10.759  0.1950 -0.2638  0.5026
  180SLPC   O1120550   0.378   5.694  10.575 -0.0760  0.6183  0.0314
  180SLPC    C120551   0.311   5.786  10.486  0.3729 -0.3406  0.5225
  180SLPC    HA20552   0.231   5.732  10.431 -0.9993  2.0215  0.0777
  180SLPC    HB20553   0.252   5.862  10.541 -1.5201 -1.0539 -0.4137
  180SLPC    C220554   0.404   5.835  10.371 -0.1830  0.1814 -0.1950
  180SLPC    HS20555   0.482   5.899  10.415  1.6924 -1.8717 -0.3544
  180SLPC   O2120556   0.322   5.892  10.270  0.1740  0.3085  0.4264
  180SLPC   C2120557   0.323   6.024  10.255  0.0821 -0.5064 -0.3899
  180SLPC   O2220558   0.392   6.101  10.312 -0.0872  0.4017 -0.6340
  180SLPC   C2220559   0.218   6.068  10.150  0.1510 -0.1866  0.6859
  180SLPC   H2R20560   0.157   5.979  10.125 -1.7863  1.5538 -1.2472
  180SLPC   H2S20561   0.161   6.148  10.201  1.2448  1.8111 -1.0620
  180SLPC    C320562   0.490   5.720  10.321 -0.3789 -0.3642  0.3356
  180SLPC    HX20563   0.420   5.636  10.300 -0.4888 -0.3982  0.8250
  180SLPC    HY20564   0.561   5.685  10.399 -0.6107  1.8409  1.6216
  180SLPC   O3120565   0.568   5.759  10.208 -0.0203  0.1925  0.0742
  180SLPC   C3120566   0.663   5.849  10.224  0.1449 -0.2797 -0.1760
  180SLPC   O3220567   0.698   5.906  10.321 -0.1503 -0.1259  0.1381
  180SLPC   C3220568   0.729   5.879  10.082 -0.1386 -0.1436 -0.7689
  180SLPC   H2X20569   0.693   5.982  10.059 -0.8234 -0.8839 -3.4343
  180SLPC   H2Y20570   0.682   5.808  10.010 -0.1383 -0.9522  0.0166
  180SLPC   C2320571   0.297   6.115  10.028  0.4498 -0.3490  0.3246
  180SLPC   H3R20572   0.372   6.192  10.056 -0.2753  1.0033 -1.2986
  180SLPC   H3S20573   0.225   6.169   9.963  0.1427 -0.9798  0.1406
  180SLPC   C2420574   0.368   6.002   9.951  0.2456  0.0380  0.3429
  180SLPC   H4R20575   0.299   5.915   9.953 -0.7655  0.8208  1.6181
  180SLPC   H4S20576   0.471   5.988   9.988  0.6807 -1.9294 -1.4085
  180SLPC   C2520577   0.372   6.047   9.799 -0.0344 -0.5889 -0.4512
  180SLPC   H5R20578   0.433   6.140   9.795 -1.0311  0.1916  1.3007
  180SLPC   H5S20579   0.274   6.090   9.768 -0.7962 -0.3102  2.1321
  180SLPC   C2620580   0.415   5.937   9.701  0.2517 -0.5996 -0.2557
  180SLPC   H6R20581   0.332   5.863   9.703 -1.5619  1.1291 -3.2070
  180SLPC   H6S20582   0.513   5.889   9.720  0.5325 -0.2839 -0.8640
  180SLPC   C2720583   0.408   5.971   9.546 -0.7251 -0.1317 -0.4007
  180SLPC   H7R20584   0.444   5.878   9.496 -1.7191  0.6570 -2.7342
  180SLPC   H7S20585   0.483   6.048   9.518 -2.5362  1.5368 -0.8041
  180SLPC   C2820586   0.273   6.007   9.497  0.3643  0.4075  0.7427
  180SLPC   H8R20587   0.212   6.060   9.573  2.5055  0.0251  2.8595
  180SLPC   H8S20588   0.226   5.907   9.478  1.8653 -0.1447 -0.2827
  180SLPC   C2920589   0.284   6.094   9.371  0.4685 -0.3182  0.4212
  180SLPC   H9R20590   0.318   6.197   9.388  3.5438 -1.5605  2.6827
  180SLPC  C21020591   0.286   6.038   9.244  0.4302 -0.3592 -0.6291
  180SLPC  H10R20592   0.309   6.095   9.152 -0.9133 -1.3876 -1.6442
  180SLPC  C21120593   0.281   5.893   9.211  0.4242 -0.5086  0.2533
  180SLPC  H11R20594   0.341   5.830   9.281  0.7929  0.4326  0.8126
  180SLPC  H11S20595   0.328   5.876   9.112  0.3451 -0.4811  0.2120
  180SLPC  C21220596   0.135   5.854   9.211  0.0055 -0.0534  0.3964
  180SLPC  H12R20597   0.080   5.896   9.296  2.4146  1.0819  1.4797
  180SLPC  C21320598   0.075   5.792   9.105 -0.3593 -0.1658 -0.2596
  180SLPC  H13R20599  -0.029   5.757   9.111  0.0688 -1.3050  0.9651
  180SLPC  C21420600   0.134   5.734   8.977 -0.0344 -0.4684  0.1335
  180SLPC  H14R20601   0.058   5.662   8.940 -0.8620  1.2193 -1.6584
  180SLPC  H14S20602   0.223   5.675   9.006 -1.2949 -1.8847  1.2618
  180SLPC  C21520603   0.147   5.839   8.867  0.1038 -0.5751  0.1847
  180SLPC  H15R20604   0.175   5.931   8.922  1.1423 -1.8541  1.9236
  180SLPC  H15S20605   0.039   5.856   8.845  0.0465  1.0024  1.4936
  180SLPC  C21620606   0.236   5.797   8.755  0.3256 -0.9077  0.0533
  180SLPC  H16R20607   0.264   5.691   8.770  2.1325 -0.3500  0.8827
  180SLPC  H16S20608   0.330   5.856   8.766 -0.2073  0.0936 -0.6354
  180SLPC  C21720609   0.167   5.835   8.623 -0.5222  0.2692 -0.4829
  180SLPC  H17R20610   0.075   5.775   8.606  0.2336 -0.6808 -1.3579
  180SLPC  H17S20611   0.227   5.796   8.538 -1.2108  0.5472 -1.1063
  180SLPC  C21820612   0.147   5.988   8.598  1.0291  0.0365 -0.5415
  180SLPC  H18R20613   0.243   6.044   8.598  2.7161 -2.6913  0.7786
  180SLPC  H18S20614   0.082   6.031   8.677  1.3969 -1.2570  0.4793
  180SLPC  H18T20615   0.095   6.003   8.501 -0.0575  1.3690  0.2015
  180SLPC   C3320616   0.890   5.883  10.072  0.0698  0.0903 -0.3853
  180SLPC   H3X20617   0.939   5.785  10.087  1.2039  0.4694 -1.4239
  180SLPC   H3Y20618   0.929   5.956  10.146  0.4621  1.2260 -1.6561
  180SLPC   C3420619   0.953   5.932   9.936 -0.3762  0.1907 -0.2242
  180SLPC   H4X20620   1.059   5.958   9.952 -0.7606  2.3219 -0.9243
  180SLPC   H4Y20621   0.901   6.023   9.900 -1.7328 -1.0358 -1.5428
  180SLPC   C3520622   0.958   5.827   9.821 -0.3106 -0.2622 -0.2786
  180SLPC   H5X20623   0.856   5.818   9.779  0.2173  0.7393 -1.8498
  180SLPC   H5Y20624   0.987   5.724   9.851  2.3450  0.6167  0.4463
  180SLPC   C3620625   1.047   5.863   9.704  0.0468 -0.1735  0.1989
  180SLPC   H6X20626   1.152   5.850   9.737  0.2243  1.8911  0.5677
  180SLPC   H6Y20627   1.034   5.969   9.675 -0.1380 -1.0754 -3.6764
  180SLPC   C3720628   1.007   5.778   9.581 -0.0665 -0.8634 -0.5450
  180SLPC   H7X20629   0.898   5.769   9.566  0.0171 -1.8916 -0.6749
  180SLPC   H7Y20630   1.035   5.673   9.607 -0.6733 -0.6398  1.0606
  180SLPC   C3820631   1.089   5.805   9.452 -0.2155 -0.2604 -0.3180
  180SLPC   H8X20632   1.186   5.854   9.475  0.2918 -0.6185 -1.5754
  180SLPC   H8Y20633   1.058   5.891   9.388  2.8634  0.4932 -0.9809
  180SLPC   C3920634   1.108   5.684   9.371 -0.6454 -0.4592 -0.1055
  180SLPC   H9X20635   1.009   5.637   9.356 -1.8626  2.0781 -0.6708
  180SLPC   H9Y20636   1.175   5.615   9.426  0.1508  1.0009  0.8179
  180SLPC  C31020637   1.170   5.713   9.237  0.0436  0.1435 -0.6191
  180SLPC  H10X20638   1.272   5.757   9.242 -0.5430  1.4664  0.0752
  180SLPC  H10Y20639   1.109   5.792   9.188 -1.0748  1.2678  2.4020
  180SLPC  C31120640   1.183   5.589   9.140 -0.1747 -0.4195 -1.0098
  180SLPC  H11X20641   1.141   5.498   9.187  0.8992  0.0062  0.8627
  180SLPC  H11Y20642   1.291   5.564   9.126  0.2553  0.2823  0.7635
  180SLPC  C31220643   1.132   5.606   8.995  0.4111  0.2911 -0.6917
  180SLPC  H12X20644   1.022   5.622   8.992  0.5510  1.7412  0.3567
  180SLPC  H12Y20645   1.145   5.504   8.954  1.8934 -0.3223  1.1317
  180SLPC  C31320646   1.197   5.724   8.915 -0.1768  0.2492  0.3856
  180SLPC  H13X20647   1.189   5.821   8.970  1.3421  0.8499 -0.4048
  180SLPC  H13Y20648   1.132   5.733   8.825  1.1620 -0.7821 -0.7167
  180SLPC  C31420649   1.346   5.703   8.873  0.4124  0.5571  0.3002
  180SLPC  H14X20650   1.416   5.676   8.955 -0.4965 -1.3409  0.5144
  180SLPC  H14Y20651   1.384   5.803   8.843 -1.4953  0.8171 -1.5021
  180SLPC  C31520652   1.374   5.604   8.762  0.8656 -0.5016 -0.1919
  180SLPC  H15X20653   1.334   5.658   8.673  0.3696  1.8227  1.3585
  180SLPC  H15Y20654   1.313   5.512   8.772  0.8453 -0.5934 -1.0534
  180SLPC  C31620655   1.522   5.566   8.732  0.2941 -0.1653 -0.7506
  180SLPC  H16X20656   1.554   5.537   8.834 -1.3203 -1.7319 -0.6531
  180SLPC  H16Y20657   1.572   5.662   8.707 -0.7382  0.2725 -1.2257
  180SLPC  C31720658   1.551   5.462   8.630  0.2140 -0.3198  0.6921
  180SLPC  H17X20659   1.659   5.436   8.635 -0.0267 -1.2595  1.2861
  180SLPC  H17Y20660   1.535   5.517   8.534  1.5416 -0.2347  0.4996
  180SLPC  C31820661   1.484   5.324   8.650 -0.5813  0.0043 -0.7005
  180SLPC  H18X20662   1.380   5.309   8.612 -0.7090  1.5568 -1.0348
  180SLPC  H18Y20663   1.478   5.296   8.758  0.8867 -0.9301 -0.8450
  180SLPC  H18Z20664   1.542   5.240   8.606  0.6155  1.1829 -1.4214
  181SLPC     N20665   2.000   3.944  11.037 -0.0308 -0.6171  0.2315
  181SLPC   C1320666   1.979   3.844  10.924  0.2114  0.1239 -0.8760
  181SLPC  H13A20667   1.953   3.908  10.841  1.5011  2.0431  0.1333
  181SLPC  H13B20668   2.071   3.790  10.905 -0.2394 -1.2529  0.6125
  181SLPC  H13C20669   1.896   3.775  10.935  0.0694  0.6913  2.8279
  181SLPC   C1420670   2.055   3.865  11.157  0.0378  0.1172  0.2370
  181SLPC  H14A20671   2.160   3.841  11.154  0.1600  0.7369 -2.0426
  181SLPC  H14B20672   2.050   3.925  11.247  1.3529 -0.7944  0.9420
  181SLPC  H14C20673   1.997   3.777  11.182 -0.4776  1.1116  2.9016
  181SLPC   C1520674   1.870   4.003  11.082  0.4238 -0.1723 -0.4605
  181SLPC  H15A20675   1.787   3.934  11.086  0.5882 -0.3409  0.3662
  181SLPC  H15B20676   1.887   4.055  11.176  1.5968  0.0490 -0.7828
  181SLPC  H15C20677   1.848   4.086  11.017  0.2511  0.5616  0.4999
  181SLPC   C1220678   2.102   4.055  11.008 -0.3834  0.1376 -0.1877
  181SLPC  H12A20679   2.198   4.007  10.996 -0.0786  0.9379 -1.0285
  181SLPC  H12B20680   2.104   4.111  11.100 -1.4142 -1.3830  0.8071
  181SLPC   C1120681   2.075   4.142  10.891  0.6685  0.7430  0.6856
  181SLPC  H11A20682   2.065   4.079  10.800  1.2935 -0.5315  1.4647
  181SLPC  H11B20683   2.165   4.203  10.868  1.5636 -0.8281 -0.1674
  181SLPC     P20684   1.979   4.343  11.011  0.0756 -0.5092  0.2357
  181SLPC   O1320685   1.855   4.387  11.075 -0.5293 -0.0861 -0.5389
  181SLPC   O1420686   2.084   4.311  11.112  0.0330 -0.2186 -0.0048
  181SLPC   O1220687   1.955   4.223  10.909 -0.7595 -0.0529  0.0569
  181SLPC   O1120688   2.020   4.462  10.912  0.3015  0.1025 -0.3594
  181SLPC    C120689   1.979   4.473  10.769 -0.2857  0.3589  0.2921
  181SLPC    HA20690   1.879   4.430  10.749 -0.7233  1.3346  0.3149
  181SLPC    HB20691   1.943   4.578  10.768  1.8988  1.1691  0.3719
  181SLPC    C220692   2.096   4.447  10.674 -0.3414  0.0686 -0.8645
  181SLPC    HS20693   2.086   4.521  10.591  2.8411  2.0247  0.3414
  181SLPC   O2120694   2.092   4.313  10.626 -0.0204  0.3245  0.1387
  181SLPC   C2120695   1.980   4.271  10.562  0.1272 -0.6128 -0.0765
  181SLPC   O2220696   1.892   4.346  10.524  0.4826  0.0412 -0.2086
  181SLPC   C2220697   1.989   4.124  10.541 -0.0392 -0.3842 -0.4557
  181SLPC   H2R20698   2.092   4.085  10.536 -0.5996 -1.9951 -0.0568
  181SLPC   H2S20699   1.931   4.076  10.624 -1.2475  0.3922 -0.8187
  181SLPC    C320700   2.234   4.482  10.728  0.1430 -0.8608 -0.0633
  181SLPC    HX20701   2.227   4.421  10.821 -2.2833 -0.2308  0.2329
  181SLPC    HY20702   2.229   4.586  10.767  0.8499 -1.0579  0.6092
  181SLPC   O3120703   2.348   4.455  10.644 -0.1452 -0.3466  0.0345
  181SLPC   C3120704   2.362   4.539  10.547  0.0859 -0.0563  0.0638
  181SLPC   O3220705   2.299   4.646  10.530 -0.3302  0.3920  0.5664
  181SLPC   C3220706   2.469   4.484  10.446 -0.3400 -0.2526 -0.5763
  181SLPC   H2X20707   2.527   4.408  10.503  1.4323  0.0838 -1.8645
  181SLPC   H2Y20708   2.539   4.570  10.440  0.8180 -1.1266 -0.1107
  181SLPC   C2320709   1.916   4.082  10.419 -0.2073  0.2020  0.1111
  181SLPC   H3R20710   1.807   4.099  10.423 -0.1134  0.6180  1.4850
  181SLPC   H3S20711   1.931   3.972  10.430  2.4957  0.3128 -1.6512
  181SLPC   C2420712   1.975   4.140  10.292  0.2130  0.0587  0.2483
  181SLPC   H4R20713   2.083   4.115  10.287 -0.1455 -1.6065  0.0756
  181SLPC   H4S20714   1.962   4.250  10.292 -2.2073 -0.1600  0.5624
  181SLPC   C2520715   1.922   4.092  10.161 -0.9874 -0.4222  0.3987
  181SLPC   H5R20716   1.826   4.144  10.137 -2.1502 -1.9701  1.4899
  181SLPC   H5S20717   1.894   3.985  10.156 -1.7082 -0.2775  1.0286
  181SLPC   C2620718   2.012   4.127  10.045  0.4746  0.7729  0.1040
  181SLPC   H6R20719   2.118   4.107  10.072  1.5600  0.7417 -3.6101
  181SLPC   H6S20720   2.010   4.238  10.037 -1.5485  0.8969  1.5862
  181SLPC   C2720721   1.989   4.053   9.915 -0.2433  0.1005  0.1529
  181SLPC   H7R20722   1.987   3.943   9.932 -1.2271 -0.5518 -3.3994
  181SLPC   H7S20723   2.078   4.068   9.851 -0.0849  2.7288  0.8906
  181SLPC   C2820724   1.856   4.093   9.860 -0.4641  0.7849  0.1714
  181SLPC   H8R20725   1.854   4.200   9.832  0.2133  0.7864  0.1127
  181SLPC   H8S20726   1.776   4.067   9.932 -0.3246 -2.0114 -0.5613
  181SLPC   C2920727   1.844   4.001   9.738  0.2946 -0.9012 -0.6036
  181SLPC   H9R20728   1.887   3.900   9.747 -0.0264 -1.1471 -1.6071
  181SLPC  C21020729   1.785   4.021   9.619 -0.6336  0.4073 -0.2745
  181SLPC  H10R20730   1.801   3.946   9.540  0.7863 -2.1545  2.2606
  181SLPC  C21120731   1.716   4.148   9.589  0.3010 -0.9148  0.9306
  181SLPC  H11R20732   1.785   4.193   9.516 -0.2435 -2.7793 -0.8100
  181SLPC  H11S20733   1.707   4.223   9.671 -4.4347  0.1052 -0.2307
  181SLPC  C21220734   1.575   4.134   9.534  0.1996  0.4564  0.4460
  181SLPC  H12R20735   1.511   4.077   9.602 -0.4890 -1.3209 -1.5853
  181SLPC  C21320736   1.525   4.180   9.418 -0.0204  0.1880  0.0699
  181SLPC  H13R20737   1.415   4.182   9.411 -0.0714 -2.3431 -0.7729
  181SLPC  C21420738   1.602   4.265   9.319 -0.0882  0.1249 -0.5284
  181SLPC  H14R20739   1.672   4.340   9.362 -1.4949  0.0571  2.0628
  181SLPC  H14S20740   1.524   4.333   9.278 -0.3495 -0.3698 -0.8517
  181SLPC  C21520741   1.668   4.194   9.198 -0.3683  0.3591  0.1859
  181SLPC  H15R20742   1.601   4.128   9.138 -0.2694  0.3605  0.0749
  181SLPC  H15S20743   1.737   4.134   9.262 -0.0235  0.9210  0.3471
  181SLPC  C21620744   1.752   4.293   9.109 -0.1265  0.0156 -0.2044
  181SLPC  H16R20745   1.813   4.356   9.176  1.3421 -2.2079  0.6764
  181SLPC  H16S20746   1.682   4.349   9.043 -0.1796 -0.3607 -0.4710
  181SLPC  C21720747   1.864   4.236   9.021  0.8276 -0.7662 -0.3869
  181SLPC  H17R20748   1.911   4.322   8.968 -2.7469  1.0843 -0.8579
  181SLPC  H17S20749   1.825   4.157   8.953  1.6541 -0.1519 -1.6256
  181SLPC  C21820750   1.975   4.169   9.096  0.3926  0.5852 -0.2891
  181SLPC  H18R20751   1.996   4.218   9.194 -2.3361 -2.2469  1.8925
  181SLPC  H18S20752   2.071   4.158   9.042  0.9802 -0.5843  0.9229
  181SLPC  H18T20753   1.949   4.065   9.125 -2.7999  0.9170 -1.5878
  181SLPC   C3320754   2.410   4.421  10.318 -0.1756  0.4699  0.6296
  181SLPC   H3X20755   2.350   4.330  10.336 -1.9585  1.9233  2.4224
  181SLPC   H3Y20756   2.503   4.393  10.263  0.7248  1.2279  1.7224
  181SLPC   C3420757   2.338   4.523  10.231  0.3965 -0.5593 -0.5147
  181SLPC   H4X20758   2.410   4.606  10.218 -1.3661  1.3515  1.2641
  181SLPC   H4Y20759   2.255   4.567  10.290  3.3972  2.0099  2.1474
  181SLPC   C3520760   2.280   4.447  10.107  0.3741  0.0994 -0.6552
  181SLPC   H5X20761   2.215   4.360  10.131  2.0064 -0.5873  1.7019
  181SLPC   H5Y20762   2.366   4.409  10.047 -0.3572 -0.2333 -1.5110
  181SLPC   C3620763   2.206   4.548  10.018  0.8743  0.3622  0.0682
  181SLPC   H6X20764   2.272   4.629   9.980  0.0528 -0.5086 -3.5407
  181SLPC   H6Y20765   2.131   4.602  10.081  0.8930  1.4642 -0.8165
  181SLPC   C3720766   2.142   4.473   9.901 -0.1818  0.2001 -0.3724
  181SLPC   H7X20767   2.084   4.383   9.930 -0.2312  0.6422  0.9700
  181SLPC   H7Y20768   2.231   4.437   9.845  1.6752 -1.3487  3.1950
  181SLPC   C3820769   2.048   4.552   9.804 -0.2994 -0.2427  0.3484
  181SLPC   H8X20770   2.001   4.477   9.737 -1.6582  0.2312  0.7444
  181SLPC   H8Y20771   2.104   4.626   9.742 -0.0246 -0.9306 -0.2356
  181SLPC   C3920772   1.933   4.621   9.874  1.0964  0.0075  0.7449
  181SLPC   H9X20773   1.962   4.692   9.955  1.2890 -1.4192  1.9613
  181SLPC   H9Y20774   1.869   4.548   9.928  0.7235 -0.1991  0.0320
  181SLPC  C31020775   1.840   4.703   9.779 -0.0273 -0.0750  0.2551
  181SLPC  H10X20776   1.902   4.787   9.740  0.9036 -0.0579  1.7162
  181SLPC  H10Y20777   1.757   4.753   9.834  0.6831  1.8243 -0.3190
  181SLPC  C31120778   1.782   4.622   9.662 -0.3566  0.0736  0.0501
  181SLPC  H11X20779   1.734   4.537   9.714 -1.1919 -0.8781 -2.1614
  181SLPC  H11Y20780   1.872   4.599   9.600 -0.3050  3.1492 -1.1773
  181SLPC  C31220781   1.688   4.685   9.566  0.6306 -0.7331 -0.3546
  181SLPC  H12X20782   1.617   4.740   9.633 -1.2492 -1.6076 -1.5392
  181SLPC  H12Y20783   1.643   4.591   9.527 -1.8866 -0.8864  2.4621
  181SLPC  C31320784   1.740   4.781   9.467  0.5414 -0.5232 -0.0757
  181SLPC  H13X20785   1.808   4.847   9.526  0.4905  1.1316 -1.7758
  181SLPC  H13Y20786   1.662   4.852   9.431 -0.1607 -0.6217  1.1908
  181SLPC  C31420787   1.829   4.718   9.355  0.1295 -0.1247  0.0049
  181SLPC  H14X20788   1.765   4.635   9.318 -1.2616  0.5493  0.7976
  181SLPC  H14Y20789   1.920   4.679   9.403  1.1810  2.1333 -0.0246
  181SLPC  C31520790   1.863   4.818   9.248 -0.5963  0.2209  0.7672
  181SLPC  H15X20791   1.900   4.912   9.293  1.6940 -0.0392 -0.3995
  181SLPC  H15Y20792   1.777   4.845   9.183 -1.2644 -4.0772 -0.4624
  181SLPC  C31620793   1.973   4.762   9.159 -0.4000 -0.4224 -0.3515
  181SLPC  H16X20794   2.072   4.753   9.210 -0.5901  0.5614  0.1940
  181SLPC  H16Y20795   1.990   4.832   9.075  0.6956 -1.0621 -0.6964
  181SLPC  C31720796   1.941   4.632   9.092 -0.0744 -0.2323  0.3826
  181SLPC  H17X20797   1.845   4.636   9.035  0.1065 -1.0389  0.0011
  181SLPC  H17Y20798   1.925   4.553   9.168 -1.6285 -1.4035 -1.1031
  181SLPC  C31820799   2.046   4.582   8.990  0.7029 -0.0167 -0.6968
  181SLPC  H18X20800   1.996   4.576   8.891 -1.0092  0.5685  0.0947
  181SLPC  H18Y20801   2.083   4.484   9.027  1.1243 -0.2253 -1.6496
  181SLPC  H18Z20802   2.133   4.650   8.992  0.0673  0.8412 -1.3477
  182SLPC     N20803   1.204   6.262  10.724  0.3190  0.0187 -0.0169
  182SLPC   C1320804   1.207   6.393  10.775  0.2653 -0.6090  0.9611
  182SLPC  H13A20805   1.308   6.428  10.756  0.1344  0.4170  2.0616
  182SLPC  H13B20806   1.127   6.455  10.736  0.5884 -1.0872 -0.5298
  182SLPC  H13C20807   1.201   6.402  10.882 -0.2676 -0.4160  0.9166
  182SLPC   C1420808   1.069   6.216  10.749 -0.8650  0.6037 -0.5352
  182SLPC  H14A20809   1.008   6.298  10.716  0.0609  1.9996  1.0788
  182SLPC  H14B20810   1.045   6.128  10.691 -3.0753  1.1332 -0.5085
  182SLPC  H14C20811   1.046   6.190  10.851  0.7476 -0.4249 -0.3905
  182SLPC   C1520812   1.297   6.168  10.793  0.7759 -0.3318 -0.2825
  182SLPC  H15A20813   1.302   6.073  10.741 -0.6242  0.8811 -2.8363
  182SLPC  H15B20814   1.396   6.207  10.776 -0.3049  1.1423 -4.3111
  182SLPC  H15C20815   1.268   6.154  10.896  0.5189  1.6397 -0.0448
  182SLPC   C1220816   1.226   6.272  10.571 -0.1428  0.4090 -0.1677
  182SLPC  H12A20817   1.150   6.341  10.536  0.5042  0.8545 -0.7323
  182SLPC  H12B20818   1.207   6.173  10.532 -0.6126  0.7098 -0.7261
  182SLPC   C1120819   1.362   6.319  10.514  0.7353 -0.2739 -0.3237
  182SLPC  H11A20820   1.345   6.348  10.408 -0.0504  0.5156  0.0169
  182SLPC  H11B20821   1.422   6.225  10.514  1.8191  0.3246  2.1623
  182SLPC     P20822   1.564   6.423  10.658 -0.0334  0.0720  0.0420
  182SLPC   O1320823   1.589   6.556  10.714 -0.1952 -0.2768 -0.2795
  182SLPC   O1420824   1.572   6.314  10.760  0.3183 -0.1956 -0.3571
  182SLPC   O1220825   1.428   6.427  10.587  0.0016  0.2243 -0.2360
  182SLPC   O1120826   1.668   6.385  10.552 -0.1350  0.1267  0.4270
  182SLPC    C120827   1.735   6.255  10.537 -0.4895 -0.1992  0.0058
  182SLPC    HA20828   1.678   6.175  10.589  0.8577 -0.1406  1.7039
  182SLPC    HB20829   1.745   6.229  10.430 -1.5416  0.8662 -0.3680
  182SLPC    C220830   1.881   6.256  10.590  0.0539 -0.1349 -0.5521
  182SLPC    HS20831   1.878   6.296  10.693 -0.1626 -0.9269 -0.2440
  182SLPC   O2120832   1.962   6.340  10.509 -0.4058 -0.3839  0.0158
  182SLPC   C2120833   2.094   6.372  10.556  0.1474 -0.4581 -0.6878
  182SLPC   O2220834   2.149   6.316  10.649  0.2418 -0.2436 -0.0122
  182SLPC   C2220835   2.159   6.480  10.475  0.6620 -0.0420  0.2390
  182SLPC   H2R20836   2.128   6.569  10.533  0.0568 -0.3304  0.3670
  182SLPC   H2S20837   2.269   6.477  10.484  0.7120  0.8696 -0.0151
  182SLPC    C320838   1.936   6.112  10.603  0.1457 -0.3722 -0.2772
  182SLPC    HX20839   1.887   6.045  10.677 -1.9483  0.4539 -0.8461
  182SLPC    HY20840   2.040   6.126  10.641 -0.5023  0.0919  1.4219
  182SLPC   O3120841   1.945   6.047  10.476 -0.0537  0.5549  0.2313
  182SLPC   C3120842   1.849   5.971  10.434 -0.5834 -0.1680  0.9696
  182SLPC   O3220843   1.740   5.951  10.488 -0.1028 -0.0122  0.5854
  182SLPC   C3220844   1.894   5.918  10.291  0.7811  0.0000 -0.2770
  182SLPC   H2X20845   1.875   5.809  10.287 -1.3991  0.2339  1.7889
  182SLPC   H2Y20846   2.003   5.939  10.278  0.9370 -0.6096  0.0178
  182SLPC   C2320847   2.114   6.491  10.331 -0.4964  0.3384  0.4878
  182SLPC   H3R20848   2.171   6.571  10.278 -0.1919 -1.2439 -1.7304
  182SLPC   H3S20849   2.009   6.526  10.318 -0.7062  0.0937  1.4279
  182SLPC   C2420850   2.128   6.355  10.246 -0.5629  0.2630 -0.7486
  182SLPC   H4R20851   2.047   6.290  10.287  0.0613  0.0912  0.2317
  182SLPC   H4S20852   2.227   6.312  10.273  1.1525  4.6549  0.7406
  182SLPC   C2520853   2.103   6.377  10.099  0.2042 -0.2965  0.6566
  182SLPC   H5R20854   2.119   6.278  10.052  0.6502 -0.2171  0.6355
  182SLPC   H5S20855   2.185   6.442  10.061 -0.3236  0.6741  1.1304
  182SLPC   C2620856   1.964   6.434  10.063  0.2221 -0.3047 -0.2789
  182SLPC   H6R20857   1.963   6.545  10.071 -1.2653 -0.2595 -0.7804
  182SLPC   H6S20858   1.881   6.390  10.123 -0.9010 -0.8433 -2.1475
  182SLPC   C2720859   1.939   6.403   9.916 -0.6636 -0.1726 -0.3352
  182SLPC   H7R20860   1.897   6.300   9.918 -0.7641 -0.1189  1.2110
  182SLPC   H7S20861   2.040   6.406   9.869 -0.4024 -0.2611  0.2136
  182SLPC   C2820862   1.836   6.496   9.848 -0.3741  0.8037 -0.2164
  182SLPC   H8R20863   1.763   6.517   9.929  1.6622  0.4861  1.8065
  182SLPC   H8S20864   1.776   6.442   9.772 -1.2208  0.7217  0.4879
  182SLPC   C2920865   1.890   6.632   9.808  0.4425  0.4900 -0.8038
  182SLPC   H9R20866   1.968   6.671   9.875 -0.2512  2.8575 -1.2955
  182SLPC  C21020867   1.854   6.705   9.704 -0.3399  0.3227  0.5750
  182SLPC  H10R20868   1.904   6.802   9.694  2.6805 -1.2131 -0.3599
  182SLPC  C21120869   1.763   6.658   9.593 -0.4916  0.9162 -0.1294
  182SLPC  H11R20870   1.730   6.746   9.535 -1.7717  0.7658  0.3440
  182SLPC  H11S20871   1.672   6.618   9.641 -1.9671  2.5949 -1.4172
  182SLPC  C21220872   1.833   6.567   9.497 -0.1080  0.1504  1.0717
  182SLPC  H12R20873   1.864   6.471   9.540  2.7719 -0.0263 -1.1057
  182SLPC  C21320874   1.884   6.599   9.371 -0.7753  0.5425 -0.7255
  182SLPC  H13R20875   1.926   6.509   9.323 -1.0712 -0.1322  0.2506
  182SLPC  C21420876   1.871   6.727   9.298  0.7559 -0.2550 -0.1687
  182SLPC  H14R20877   1.970   6.747   9.252  1.4902 -2.2544  0.4256
  182SLPC  H14S20878   1.864   6.806   9.376  1.5726 -0.2751 -0.0604
  182SLPC  C21520879   1.765   6.735   9.184 -0.0407 -0.2863  1.1945
  182SLPC  H15R20880   1.769   6.835   9.136 -1.0085 -0.7476  0.1230
  182SLPC  H15S20881   1.662   6.717   9.221 -2.1274  0.9566 -3.3380
  182SLPC  C21620882   1.791   6.640   9.068  0.3957  0.0370  0.3551
  182SLPC  H16R20883   1.777   6.534   9.097 -1.2382  0.3288  0.7131
  182SLPC  H16S20884   1.901   6.637   9.050  0.5552  1.6753  0.8882
  182SLPC  C21720885   1.710   6.677   8.948  0.4130  0.1548  0.4451
  182SLPC  H17R20886   1.786   6.722   8.880  1.3996 -2.2878 -0.2054
  182SLPC  H17S20887   1.621   6.739   8.969  0.5496  0.3937  0.3260
  182SLPC  C21820888   1.652   6.547   8.878  0.0808  0.4221 -0.2400
  182SLPC  H18R20889   1.608   6.583   8.782  0.8782  0.0497 -0.7630
  182SLPC  H18S20890   1.579   6.497   8.944  0.8596 -1.2993 -0.6014
  182SLPC  H18T20891   1.739   6.480   8.857 -0.8691 -2.3628  3.6538
  182SLPC   C3320892   1.809   5.988  10.179 -0.2579 -0.7305 -0.3297
  182SLPC   H3X20893   1.829   6.097  10.181 -1.4670 -0.4949  1.0989
  182SLPC   H3Y20894   1.700   6.002  10.199 -0.2225  2.9815 -1.9788
  182SLPC   C3420895   1.817   5.924  10.041  0.8987  0.0765  0.4610
  182SLPC   H4X20896   1.792   5.815  10.038  1.2916  0.0036 -0.4925
  182SLPC   H4Y20897   1.920   5.921   9.999  1.0731 -1.7155  0.9008
  182SLPC   C3520898   1.723   6.001   9.950 -0.3164 -0.0294 -0.2053
  182SLPC   H5X20899   1.725   6.105   9.990  0.8461 -0.2945  0.4733
  182SLPC   H5Y20900   1.617   5.969   9.961  0.3405 -2.1129  0.4378
  182SLPC   C3620901   1.767   5.984   9.806  0.3503 -0.2231 -0.7015
  182SLPC   H6X20902   1.768   5.875   9.784  1.1479 -0.8962  2.2189
  182SLPC   H6Y20903   1.874   6.011   9.794  0.6916 -0.8349  0.7610
  182SLPC   C3720904   1.688   6.062   9.707 -0.6178 -0.2364  0.5267
  182SLPC   H7X20905   1.681   6.167   9.744 -0.0056  0.6698 -1.7876
  182SLPC   H7Y20906   1.582   6.028   9.707 -0.7638  0.1162  2.2485
  182SLPC   C3820907   1.743   6.057   9.556 -0.0156  0.4556  0.4346
  182SLPC   H8X20908   1.652   6.073   9.493  0.4308  0.3078 -0.2604
  182SLPC   H8Y20909   1.778   5.953   9.535 -1.0893 -0.4563  2.7612
  182SLPC   C3920910   1.858   6.153   9.522  0.4601  0.2956  0.0408
  182SLPC   H9X20911   1.934   6.148   9.603  0.7171  0.7181 -0.1708
  182SLPC   H9Y20912   1.809   6.253   9.526 -3.8103 -1.4975 -1.4553
  182SLPC  C31020913   1.917   6.133   9.382 -0.2009  0.4964 -0.4771
  182SLPC  H10X20914   1.844   6.169   9.307  0.8994  2.0183 -0.8697
  182SLPC  H10Y20915   1.935   6.026   9.357 -2.4458  0.0912 -0.5831
  182SLPC  C31120916   2.045   6.224   9.368  0.2549 -0.1748 -0.1128
  182SLPC  H11X20917   2.132   6.173   9.415  1.2351 -1.8942 -3.4593
  182SLPC  H11Y20918   2.027   6.315   9.429  0.9634  0.4480 -0.8039
  182SLPC  C31220919   2.068   6.253   9.220  0.1414  0.5714 -0.4196
  182SLPC  H12X20920   1.980   6.286   9.162  0.5587  1.0479 -0.7979
  182SLPC  H12Y20921   2.086   6.153   9.173  0.5926  1.1206 -1.4513
  182SLPC  C31320922   2.194   6.332   9.189  0.7740 -0.0354 -0.1004
  182SLPC  H13X20923   2.277   6.307   9.258 -0.6949 -0.2609  1.6362
  182SLPC  H13Y20924   2.162   6.437   9.203 -0.6341 -0.5960  1.1344
  182SLPC  C31420925   2.263   6.314   9.053 -0.0677  0.6253 -0.2607
  182SLPC  H14X20926   2.283   6.209   9.024 -1.1500 -0.2327  1.8889
  182SLPC  H14Y20927   2.352   6.381   9.050  0.1189  0.3678 -0.5674
  182SLPC  C31520928   2.170   6.379   8.941 -0.6062  0.0902 -0.2940
  182SLPC  H15X20929   2.170   6.489   8.956 -0.2273  0.0601 -0.0454
  182SLPC  H15Y20930   2.064   6.346   8.939 -1.1131  1.6833 -1.2541
  182SLPC  C31620931   2.231   6.367   8.798 -0.2964  0.4619 -0.1100
  182SLPC  H16X20932   2.277   6.267   8.784 -1.5126 -0.0453 -0.6527
  182SLPC  H16Y20933   2.317   6.437   8.803 -0.3487  0.5597 -0.5145
  182SLPC  C31720934   2.133   6.403   8.692 -0.0691 -0.4616  0.3099
  182SLPC  H17X20935   2.184   6.465   8.615 -1.9592  1.0529  0.2119
  182SLPC  H17Y20936   2.060   6.476   8.733  1.0985  1.6353 -1.0993
  182SLPC  C31820937   2.065   6.275   8.626  0.1308  0.6973  0.4932
  182SLPC  H18X20938   1.983   6.236   8.690 -0.0413 -2.7953 -1.6347
  182SLPC  H18Y20939   2.130   6.185   8.618  1.4356  1.7089 -0.7182
  182SLPC  H18Z20940   2.034   6.296   8.522  1.2391 -0.4001 -0.0864
  183SLPC     N20941   1.454   3.267  11.259 -0.3120 -0.4133 -0.2707
  183SLPC   C1320942   1.590   3.251  11.323  0.0896 -0.2097 -0.3798
  183SLPC  H13A20943   1.645   3.162  11.295  0.8169 -0.3741  1.4249
  183SLPC  H13B20944   1.657   3.329  11.290 -0.7552  0.4130 -0.6371
  183SLPC  H13C20945   1.583   3.250  11.431  0.0554  1.8032 -0.3325
  183SLPC   C1420946   1.383   3.387  11.312  0.4090 -0.2553  0.0761
  183SLPC  H14A20947   1.365   3.375  11.418 -0.1921  0.1430  0.0193
  183SLPC  H14B20948   1.450   3.472  11.308  1.2467 -0.8752  0.4350
  183SLPC  H14C20949   1.297   3.421  11.258 -0.4449  0.3643  1.7541
  183SLPC   C1520950   1.378   3.146  11.291 -0.2254 -0.4103 -0.0161
  183SLPC  H15A20951   1.270   3.154  11.290 -0.0958  1.6630 -0.0878
  183SLPC  H15B20952   1.408   3.061  11.231 -1.8955 -0.4028 -0.9243
  183SLPC  H15C20953   1.401   3.113  11.392 -0.9818 -1.5319 -0.1859
  183SLPC   C1220954   1.462   3.295  11.106  0.5163  0.1248 -0.5016
  183SLPC  H12A20955   1.367   3.316  11.059 -1.0386  0.2417  2.4941
  183SLPC  H12B20956   1.496   3.202  11.063 -2.0795 -1.2984  0.3019
  183SLPC   C1120957   1.569   3.401  11.058  0.1651  0.2557 -0.2342
  183SLPC  H11A20958   1.539   3.421  10.953 -1.3456 -0.6321 -0.0003
  183SLPC  H11B20959   1.657   3.335  11.069  0.4734  0.6748 -0.1497
  183SLPC     P20960   1.708   3.595  11.148  0.2088 -0.3219  0.0152
  183SLPC   O1320961   1.697   3.709  11.233  0.4467  0.0703 -0.1250
  183SLPC   O1420962   1.807   3.498  11.188 -0.1475  0.5870  0.0968
  183SLPC   O1220963   1.563   3.527  11.133  0.4933 -0.2951 -0.7315
  183SLPC   O1120964   1.737   3.649  11.001 -0.5996  0.2070 -0.0476
  183SLPC    C120965   1.644   3.706  10.906 -0.3749  0.4032 -0.2139
  183SLPC    HA20966   1.544   3.664  10.928  0.4066 -1.0101  0.8399
  183SLPC    HB20967   1.653   3.816  10.911 -1.8126  0.4849  2.2905
  183SLPC    C220968   1.684   3.669  10.763  0.3236  0.3268  0.4605
  183SLPC    HS20969   1.640   3.570  10.737  0.7683 -0.3452  2.0992
  183SLPC   O2120970   1.825   3.690  10.749 -0.2952 -0.8700  0.4774
  183SLPC   C2120971   1.887   3.617  10.659  1.1124  0.9651 -0.2138
  183SLPC   O2220972   1.846   3.516  10.605 -0.3288 -0.0309 -0.0459
  183SLPC   C2220973   2.029   3.670  10.634  0.4708  0.0345  0.5667
  183SLPC   H2R20974   2.032   3.767  10.689 -3.7341  1.4207 -1.2652
  183SLPC   H2S20975   2.099   3.592  10.671 -0.4622 -1.2872 -0.3730
  183SLPC    C320976   1.604   3.755  10.654  0.3912 -0.2488 -0.2430
  183SLPC    HX20977   1.639   3.860  10.661  1.3086 -0.4799 -1.1540
  183SLPC    HY20978   1.495   3.747  10.676  0.3151  1.3870  0.0979
  183SLPC   O3120979   1.614   3.699  10.523  0.5037 -0.2426 -0.4553
  183SLPC   C3120980   1.652   3.779  10.420  0.7344 -0.8264 -0.3549
  183SLPC   O3220981   1.636   3.899  10.425 -0.2277 -0.5459  0.5240
  183SLPC   C3220982   1.696   3.702  10.299  0.0768 -0.6217  0.3285
  183SLPC   H2X20983   1.625   3.617  10.301 -0.8396  0.1374  1.9208
  183SLPC   H2Y20984   1.796   3.655  10.312 -0.5691 -2.0679  0.2970
  183SLPC   C2320985   2.050   3.697  10.482 -1.1296  0.2039  0.6227
  183SLPC   H3R20986   1.968   3.755  10.435 -0.5446  1.2552  0.8720
  183SLPC   H3S20987   2.055   3.599  10.430  0.9501  0.7086 -0.2587
  183SLPC   C2420988   2.178   3.776  10.449 -0.0312 -0.4267 -0.2067
  183SLPC   H4R20989   2.277   3.733  10.474 -0.8958 -2.2406  0.2730
  183SLPC   H4S20990   2.177   3.864  10.518  0.9851 -1.9655  1.8668
  183SLPC   C2520991   2.172   3.825  10.303 -0.2862  0.5885 -0.1906
  183SLPC   H5R20992   2.208   3.930  10.293  0.7674  0.0632 -2.6508
  183SLPC   H5S20993   2.067   3.830  10.269 -0.4031 -1.7498 -0.2812
  183SLPC   C2620994   2.258   3.739  10.206 -0.3997 -0.2239 -0.3301
  183SLPC   H6R20995   2.266   3.646  10.267 -2.2491  0.6164  1.3000
  183SLPC   H6S20996   2.354   3.784  10.175  1.0356 -1.6159  1.8105
  183SLPC   C2720997   2.174   3.708  10.072 -0.1103  0.1274 -0.2135
  183SLPC   H7R20998   2.140   3.801  10.022  0.7091  2.1300  2.6988
  183SLPC   H7S20999   2.092   3.643  10.110  2.4693 -2.9053  0.6041
  183SLPC   C2821000   2.255   3.631   9.965 -0.6095 -0.7018 -0.1312
  183SLPC   H8R21001   2.177   3.600   9.892 -0.5032  2.3997 -1.7168
  183SLPC   H8S21002   2.292   3.543  10.021  0.9138 -0.6636 -1.0293
  183SLPC   C2921003   2.374   3.701   9.912  0.1061  0.7866 -0.5018
  183SLPC   H9R21004   2.413   3.776   9.982 -0.0564 -0.3008  0.8023
  183SLPC  C21021005   2.443   3.669   9.800 -0.1775 -0.3576 -0.1672
  183SLPC  H10R21006   2.528   3.736   9.779 -0.7103  0.0304 -1.1871
  183SLPC  C21121007   2.396   3.566   9.704 -0.2443 -0.2562  0.4467
  183SLPC  H11R21008   2.370   3.619   9.610  0.0700  0.2316  0.6346
  183SLPC  H11S21009   2.310   3.510   9.747  1.5539 -1.8524  2.1744
  183SLPC  C21221010   2.504   3.465   9.679 -0.1241 -0.4413 -0.2262
  183SLPC  H12R21011   2.592   3.462   9.746  1.5424  0.4910 -2.2439
  183SLPC  C21321012   2.519   3.388   9.570  0.2291 -0.4156  0.7960
  183SLPC  H13R21013   2.593   3.307   9.566  1.2347  0.5071 -2.3372
  183SLPC  C21421014   2.427   3.384   9.451  0.2615 -0.5945  0.2646
  183SLPC  H14R21015   2.380   3.482   9.432 -2.7724 -1.9284  0.2557
  183SLPC  H14S21016   2.330   3.331   9.466 -0.1245  0.3670  1.2368
  183SLPC  C21521017   2.501   3.348   9.322  0.2974 -0.0889  0.2372
  183SLPC  H15R21018   2.557   3.252   9.325  2.6242  1.1081 -1.5043
  183SLPC  H15S21019   2.585   3.419   9.308  0.0457  0.4827  1.4797
  183SLPC  C21621020   2.410   3.354   9.199 -0.0505 -0.1457 -0.3629
  183SLPC  H16R21021   2.359   3.452   9.201 -2.6216 -1.4014  2.4499
  183SLPC  H16S21022   2.321   3.288   9.207  0.6804 -1.2226 -0.8555
  183SLPC  C21721023   2.488   3.331   9.065  0.3650  0.1777  0.6568
  183SLPC  H17R21024   2.558   3.249   9.091 -1.4422 -0.7417  3.0104
  183SLPC  H17S21025   2.535   3.426   9.032  1.4662 -0.3495  0.6624
  183SLPC  C21821026   2.395   3.289   8.943  0.4374 -0.1631  0.0394
  183SLPC  H18R21027   2.339   3.199   8.976  2.0074 -0.8007  1.0790
  183SLPC  H18S21028   2.461   3.267   8.856  2.6898  2.2410  0.9963
  183SLPC  H18T21029   2.324   3.371   8.919 -0.0589  0.4050  3.0664
  183SLPC   C3321030   1.669   3.770  10.162  0.2472 -0.8684 -0.1724
  183SLPC   H3X21031   1.698   3.877  10.160 -2.1989 -0.1097  0.8448
  183SLPC   H3Y21032   1.564   3.762  10.127  0.0965  1.6086 -0.4978
  183SLPC   C3421033   1.753   3.698  10.056 -0.0025 -0.1047  0.5860
  183SLPC   H4X21034   1.859   3.683  10.085 -0.1010 -0.3568  0.8284
  183SLPC   H4Y21035   1.754   3.774   9.976  0.8021  1.3589  1.9336
  183SLPC   C3521036   1.681   3.577   9.997 -0.1954 -0.3124 -0.0968
  183SLPC   H5X21037   1.596   3.606   9.932  1.0097  0.3211 -1.4546
  183SLPC   H5Y21038   1.643   3.523  10.086 -2.4151  0.2409 -0.6561
  183SLPC   C3621039   1.775   3.484   9.911 -0.0936  0.1762  1.0127
  183SLPC   H6X21040   1.738   3.381   9.891  0.3770 -0.0920  1.5032
  183SLPC   H6Y21041   1.873   3.462   9.958  1.7175 -0.3463 -2.6326
  183SLPC   C3721042   1.795   3.543   9.769 -0.0168 -0.0797  0.1463
  183SLPC   H7X21043   1.847   3.641   9.783  1.7306 -0.9740  0.2091
  183SLPC   H7Y21044   1.698   3.560   9.718  1.3372 -0.4801 -2.8002
  183SLPC   C3821045   1.882   3.460   9.670  0.2125 -0.1861  0.0382
  183SLPC   H8X21046   1.829   3.364   9.654 -0.9481  0.3617  0.4466
  183SLPC   H8Y21047   1.979   3.432   9.715  1.4667  3.5494  0.0145
  183SLPC   C3921048   1.924   3.515   9.533 -0.2982 -0.5142 -0.1145
  183SLPC   H9X21049   1.844   3.574   9.484  0.0056 -1.7046 -2.1494
  183SLPC   H9Y21050   1.945   3.432   9.462  2.1629  0.2545 -0.3756
  183SLPC  C31021051   2.034   3.617   9.553  0.4902  0.7183  0.0962
  183SLPC  H10X21052   2.132   3.567   9.572  0.3015  0.9178  1.6788
  183SLPC  H10Y21053   2.015   3.665   9.651  3.4137 -3.2998  2.9903
  183SLPC  C31121054   2.031   3.715   9.437 -0.5401 -0.4659  0.4773
  183SLPC  H11X21055   1.936   3.773   9.433 -0.4609 -0.4094 -1.2179
  183SLPC  H11Y21056   2.051   3.677   9.335 -1.3207  0.6601 -0.1167
  183SLPC  C31221057   2.141   3.818   9.461  0.0177  0.0434  0.0216
  183SLPC  H12X21058   2.237   3.769   9.488  0.6618  1.4896  0.3958
  183SLPC  H12Y21059   2.124   3.879   9.553  0.5276  0.0623  0.1066
  183SLPC  C31321060   2.167   3.908   9.335  0.5305  0.1340 -0.5014
  183SLPC  H13X21061   2.216   4.001   9.373  0.9935  1.2091 -3.4381
  183SLPC  H13Y21062   2.069   3.946   9.297 -1.2114 -0.3313  3.0511
  183SLPC  C31421063   2.267   3.847   9.239  0.1456 -0.1033  0.5599
  183SLPC  H14X21064   2.234   3.745   9.209 -0.0438 -0.3060  1.4135
  183SLPC  H14Y21065   2.357   3.818   9.298 -0.1586 -0.6909  0.7495
  183SLPC  C31521066   2.309   3.930   9.112  1.0735  0.1016 -0.9095
  183SLPC  H15X21067   2.329   4.029   9.158 -1.7791  1.3256 -2.0104
  183SLPC  H15Y21068   2.229   3.937   9.035 -0.1290 -0.6380  0.2367
  183SLPC  C31621069   2.433   3.867   9.062  0.4451 -0.5082 -0.2116
  183SLPC  H16X21070   2.519   3.888   9.130 -0.5961  2.6399  0.2755
  183SLPC  H16Y21071   2.459   3.924   8.971 -2.0772  1.3833  0.1578
  183SLPC  C31721072   2.434   3.713   9.031 -0.2732 -0.1037 -0.0104
  183SLPC  H17X21073   2.335   3.669   9.055 -1.5806  1.7023 -1.7134
  183SLPC  H17Y21074   2.518   3.663   9.083 -1.6632 -1.8032  0.6784
  183SLPC  C31821075   2.443   3.701   8.877 -0.1530 -0.0308 -0.3874
  183SLPC  H18X21076   2.360   3.754   8.824  1.0202  0.7186 -1.5315
  183SLPC  H18Y21077   2.439   3.594   8.847 -2.9908 -0.0524 -0.2459
  183SLPC  H18Z21078   2.537   3.748   8.841  2.0116 -1.8347  2.5028
  184SLPC     N21079   5.860   0.532  11.033  0.1802  0.2234  0.0358
  184SLPC   C1321080   5.794   0.645  11.103  0.1732 -0.9275 -0.5193
  184SLPC  H13A21081   5.851   0.735  11.084  1.7478 -1.4257  1.5190
  184SLPC  H13B21082   5.689   0.656  11.079  0.0224 -0.0664  0.4605
  184SLPC  H13C21083   5.806   0.624  11.208 -0.7732 -2.8675 -0.7544
  184SLPC   C1421084   5.828   0.397  11.091  1.2261 -0.1906 -0.0451
  184SLPC  H14A21085   5.886   0.318  11.046  0.4169 -0.2446 -1.0164
  184SLPC  H14B21086   5.853   0.398  11.196 -0.4712 -2.9106  0.4762
  184SLPC  H14C21087   5.725   0.368  11.074  2.0072 -3.2704 -0.0348
  184SLPC   C1521088   6.007   0.548  11.059  0.2606 -0.1595  0.2135
  184SLPC  H15A21089   6.047   0.626  10.995 -0.8991  0.8022  0.6156
  184SLPC  H15B21090   6.042   0.554  11.161 -0.0011  0.1998  0.2848
  184SLPC  H15C21091   6.053   0.458  11.020 -1.0513 -0.4498 -0.7546
  184SLPC   C1221092   5.832   0.538  10.882  0.5012  0.2449 -0.1584
  184SLPC  H12A21093   5.726   0.518  10.869  1.1404 -2.0070 -3.0788
  184SLPC  H12B21094   5.870   0.451  10.829 -4.6800 -1.6520 -1.4238
  184SLPC   C1121095   5.853   0.673  10.815 -0.1250 -0.6960 -0.0961
  184SLPC  H11A21096   5.870   0.655  10.707 -1.7342 -0.7906 -0.3572
  184SLPC  H11B21097   5.945   0.726  10.848 -0.2506 -0.2424 -0.4615
  184SLPC     P21098   5.592   0.734  10.764  0.3421  0.3237  0.3912
  184SLPC   O1321099   5.520   0.612  10.818  0.3585 -0.3936 -0.2824
  184SLPC   O1421100   5.512   0.853  10.778  0.3422 -0.0455  0.2195
  184SLPC   O1221101   5.735   0.751  10.839  0.0384  0.0379  0.2859
  184SLPC   O1121102   5.629   0.702  10.616 -0.0173 -0.6083  0.2249
  184SLPC    C121103   5.685   0.803  10.521 -0.3162 -0.5801 -0.3280
  184SLPC    HA21104   5.641   0.904  10.536 -1.7058 -1.0319 -1.1461
  184SLPC    HB21105   5.794   0.808  10.540 -0.4490 -0.3159  0.3864
  184SLPC    C221106   5.663   0.758  10.371 -0.4941  1.1382  0.1534
  184SLPC    HS21107   5.765   0.768  10.328 -0.2306  0.6910  0.6706
  184SLPC   O2121108   5.574   0.844  10.293 -0.0437 -0.0045  0.4826
  184SLPC   C2121109   5.621   0.894  10.179  0.6800  0.3699  0.3722
  184SLPC   O2221110   5.740   0.889  10.142 -0.1255  0.6237 -0.0243
  184SLPC   C2221111   5.519   0.973  10.089 -0.4439 -0.3273  0.3823
  184SLPC   H2R21112   5.486   0.903  10.009  0.7218  0.3921 -0.7777
  184SLPC   H2S21113   5.429   1.008  10.144 -0.1166 -1.6612  1.8393
  184SLPC    C321114   5.606   0.607  10.354  0.2146 -0.0818 -0.0071
  184SLPC    HX21115   5.512   0.593  10.411 -0.8943  1.8219 -1.2362
  184SLPC    HY21116   5.685   0.541  10.394  0.7560  0.0104 -0.9043
  184SLPC   O3121117   5.575   0.581  10.217 -0.1451 -0.3044 -0.7527
  184SLPC   C3121118   5.675   0.517  10.148  0.2375  0.8175 -0.4976
  184SLPC   O3221119   5.776   0.480  10.200  0.5057  0.7166 -0.5144
  184SLPC   C3221120   5.634   0.494  10.006  0.2611  0.3207  0.0418
  184SLPC   H2X21121   5.650   0.587   9.948  0.8258  0.1270 -0.1203
  184SLPC   H2Y21122   5.529   0.459   9.991 -0.9646  2.4723  2.7584
  184SLPC   C2321123   5.591   1.099  10.028  0.4124 -0.2052 -0.3582
  184SLPC   H3R21124   5.696   1.088   9.993  0.3083 -2.0347 -0.1650
  184SLPC   H3S21125   5.597   1.175  10.109 -0.7193 -1.2284  0.7349
  184SLPC   C2421126   5.503   1.177   9.922  0.4592 -0.3768 -0.3886
  184SLPC   H4R21127   5.396   1.182   9.953  0.5159  1.6680 -0.4493
  184SLPC   H4S21128   5.504   1.116   9.830 -1.3913 -0.3775 -0.4498
  184SLPC   C2521129   5.547   1.327   9.905 -0.6551  0.7846 -0.1207
  184SLPC   H5R21130   5.649   1.346   9.945 -1.2140 -1.5170  2.7871
  184SLPC   H5S21131   5.477   1.387   9.967  0.2005  0.9055  0.7578
  184SLPC   C2621132   5.528   1.380   9.762 -0.1831 -0.2875 -0.0183
  184SLPC   H6R21133   5.424   1.354   9.734 -0.0015 -0.7977 -0.2270
  184SLPC   H6S21134   5.605   1.348   9.688  1.3828  3.7228 -0.3537
  184SLPC   C2721135   5.545   1.536   9.760  0.7045  0.0168 -0.4919
  184SLPC   H7R21136   5.645   1.555   9.805  0.1307 -1.4010  1.5308
  184SLPC   H7S21137   5.466   1.574   9.829  0.2202  1.4798 -1.8087
  184SLPC   C2821138   5.508   1.596   9.623 -0.0111 -0.3980 -0.1751
  184SLPC   H8R21139   5.400   1.590   9.598 -0.3398  1.6355  0.5684
  184SLPC   H8S21140   5.564   1.544   9.543 -0.6070  3.4318 -3.3801
  184SLPC   C2921141   5.544   1.740   9.640  0.0318 -0.2306 -0.2276
  184SLPC   H9R21142   5.506   1.787   9.732 -1.4765  2.1277 -1.9490
  184SLPC  C21021143   5.610   1.819   9.557 -0.0999 -0.5040 -0.3177
  184SLPC  H10R21144   5.631   1.924   9.586 -1.9735 -0.3174  0.4927
  184SLPC  C21121145   5.670   1.771   9.428 -0.4121  0.6239  0.3070
  184SLPC  H11R21146   5.633   1.669   9.402  3.1436 -0.9279  0.7182
  184SLPC  H11S21147   5.780   1.756   9.432 -0.6124 -1.1594  0.0852
  184SLPC  C21221148   5.626   1.853   9.309  0.4778 -0.2263  0.1307
  184SLPC  H12R21149   5.544   1.923   9.332  0.7378 -0.1165  0.7536
  184SLPC  C21321150   5.674   1.848   9.178  0.1416 -0.1257 -0.9486
  184SLPC  H13R21151   5.635   1.922   9.107  1.7802  2.5121  0.7349
  184SLPC  C21421152   5.782   1.753   9.123  0.8723 -0.5516  0.0596
  184SLPC  H14R21153   5.744   1.649   9.120 -0.4244 -0.0756 -0.5909
  184SLPC  H14S21154   5.878   1.763   9.179 -0.0196 -1.0166  1.7412
  184SLPC  C21521155   5.817   1.795   8.978 -0.3060 -0.1434 -0.3945
  184SLPC  H15R21156   5.908   1.742   8.942  1.2121  0.6570  1.9877
  184SLPC  H15S21157   5.835   1.905   8.973 -2.7830  0.2750 -1.7801
  184SLPC  C21621158   5.699   1.766   8.891  0.7744 -0.2955  0.0630
  184SLPC  H16R21159   5.612   1.834   8.902 -1.0630 -2.6588  1.2915
  184SLPC  H16S21160   5.652   1.671   8.926  0.9849  0.0664  1.4012
  184SLPC  C21721161   5.745   1.754   8.741  0.3651 -0.1066 -1.1706
  184SLPC  H17R21162   5.816   1.668   8.746 -1.0722 -1.3288 -1.2521
  184SLPC  H17S21163   5.796   1.850   8.718  0.0412  0.0732 -1.1398
  184SLPC  C21821164   5.639   1.713   8.642 -0.2250  0.0199  0.3092
  184SLPC  H18R21165   5.695   1.689   8.549  0.7452  1.3240  0.5348
  184SLPC  H18S21166   5.561   1.791   8.630 -0.1788  0.4175  2.2692
  184SLPC  H18T21167   5.582   1.622   8.673 -0.9508 -0.7564 -2.9267
  184SLPC   C3321168   5.735   0.391   9.949 -0.6078  0.5147 -0.3446
  184SLPC   H3X21169   5.725   0.295  10.003 -2.1385  0.6058 -0.4233
  184SLPC   H3Y21170   5.839   0.426   9.964 -0.5645 -0.1269  0.9944
  184SLPC   C3421171   5.710   0.361   9.803 -0.6543  0.2107  0.3034
  184SLPC   H4X21172   5.700   0.454   9.743 -0.1086  0.7047  0.9551
  184SLPC   H4Y21173   5.617   0.303   9.790 -0.5072 -0.0654  0.4770
  184SLPC   C3521174   5.830   0.290   9.736 -0.3136  0.2964 -0.0858
  184SLPC   H5X21175   5.881   0.203   9.782  0.7111  0.9381  0.0216
  184SLPC   H5Y21176   5.918   0.356   9.722  1.1609 -1.3464  1.0816
  184SLPC   C3621177   5.795   0.248   9.589 -0.2284  0.4158 -0.1674
  184SLPC   H6X21178   5.697   0.197   9.591  0.9227 -1.9538 -0.8649
  184SLPC   H6Y21179   5.861   0.163   9.562 -2.0557 -0.4343 -2.2578
  184SLPC   C3721180   5.800   0.358   9.489  1.0816  0.9343 -0.1359
  184SLPC   H7X21181   5.903   0.399   9.495  1.7413 -0.8490  2.3317
  184SLPC   H7Y21182   5.735   0.443   9.521  0.3970  0.6316 -0.7042
  184SLPC   C3821183   5.759   0.323   9.348 -0.1621 -0.8403 -0.2450
  184SLPC   H8X21184   5.658   0.281   9.368 -0.7498 -0.5489 -2.3459
  184SLPC   H8Y21185   5.834   0.247   9.317  1.2268  1.4887 -3.1281
  184SLPC   C3921186   5.743   0.439   9.249 -0.3129 -0.5133  0.0591
  184SLPC   H9X21187   5.714   0.396   9.150  2.7547 -1.9055 -0.3556
  184SLPC   H9Y21188   5.850   0.462   9.233 -0.4916  1.6467  1.5543
  184SLPC  C31021189   5.657   0.555   9.293 -0.1920  0.4263 -0.2202
  184SLPC  H10X21190   5.702   0.591   9.388  0.6238  1.7464 -1.0643
  184SLPC  H10Y21191   5.556   0.512   9.310  0.4016 -2.1247 -2.5302
  184SLPC  C31121192   5.643   0.684   9.211 -0.3693  0.3280  0.4885
  184SLPC  H11X21193   5.745   0.729   9.205 -0.6874  1.1192  0.9188
  184SLPC  H11Y21194   5.578   0.757   9.262  0.0201  0.5634  0.6543
  184SLPC  C31221195   5.596   0.656   9.072  0.4270 -0.2527 -0.0762
  184SLPC  H12X21196   5.492   0.619   9.056  0.0910  0.1452  1.1276
  184SLPC  H12Y21197   5.655   0.579   9.018 -1.7231 -1.4837 -0.8179
  184SLPC  C31321198   5.614   0.792   8.988  0.0570 -1.0484 -0.0558
  184SLPC  H13X21199   5.565   0.778   8.889 -0.9256  1.5578 -0.0092
  184SLPC  H13Y21200   5.722   0.802   8.962 -0.0702  0.6521 -0.0553
  184SLPC  C31421201   5.549   0.911   9.057 -0.7689  0.1608  0.3109
  184SLPC  H14X21202   5.599   0.938   9.153  1.1200 -0.4469 -0.4651
  184SLPC  H14Y21203   5.443   0.883   9.071 -0.7290 -0.2591 -0.2240
  184SLPC  C31521204   5.548   1.042   8.979  0.3676  0.7435  0.2377
  184SLPC  H15X21205   5.502   1.119   9.044  1.5689  0.8637  0.9725
  184SLPC  H15Y21206   5.484   1.034   8.888  2.2821  2.9928 -1.4560
  184SLPC  C31621207   5.685   1.090   8.923 -0.4848  0.1478 -0.5659
  184SLPC  H16X21208   5.719   1.032   8.835 -1.2259  0.6625 -1.2078
  184SLPC  H16Y21209   5.750   1.083   9.013 -0.5921  2.4306 -0.2415
  184SLPC  C31721210   5.686   1.236   8.874  0.1417 -0.0341 -0.2249
  184SLPC  H17X21211   5.792   1.259   8.847 -0.1059 -0.3164 -1.4803
  184SLPC  H17Y21212   5.668   1.313   8.952  3.1841  1.3963 -0.7849
  184SLPC  C31821213   5.598   1.259   8.755 -0.4299 -0.4336  0.2093
  184SLPC  H18X21214   5.497   1.219   8.780  0.3884 -1.2277  2.3988
  184SLPC  H18Y21215   5.640   1.208   8.665 -0.9110  0.2018 -0.3861
  184SLPC  H18Z21216   5.583   1.368   8.738 -0.6582 -0.3139  1.1340
  185SLPC     N21217   4.666   4.449   6.324 -0.0524 -0.0177  0.4332
  185SLPC   C1321218   4.674   4.338   6.428  0.1607  0.0548 -0.8226
  185SLPC  H13A21219   4.587   4.342   6.492  0.6576  0.2278 -0.1484
  185SLPC  H13B21220   4.673   4.242   6.378  1.0328  1.1893 -3.1784
  185SLPC  H13C21221   4.754   4.347   6.499 -0.6820 -3.1928  0.7177
  185SLPC   C1421222   4.531   4.435   6.248  0.5399 -0.1902  0.5012
  185SLPC  H14A21223   4.518   4.335   6.209  0.6775  0.6957 -1.9873
  185SLPC  H14B21224   4.440   4.458   6.301  0.4140  2.8793 -0.8048
  185SLPC  H14C21225   4.542   4.496   6.160 -1.6998 -0.1647  0.2015
  185SLPC   C1521226   4.783   4.431   6.233  0.2728  0.9276 -0.3960
  185SLPC  H15A21227   4.791   4.332   6.192 -0.5304  1.1778 -1.1912
  185SLPC  H15B21228   4.782   4.500   6.150  0.6682  0.8156 -0.4952
  185SLPC  H15C21229   4.871   4.457   6.289 -0.0878 -0.5690  0.9166
  185SLPC   C1221230   4.663   4.574   6.403 -0.1320  0.1656 -0.3546
  185SLPC  H12A21231   4.734   4.579   6.485  0.0540  2.6200 -0.6118
  185SLPC  H12B21232   4.562   4.575   6.442 -0.7097 -5.0554 -0.9376
  185SLPC   C1121233   4.675   4.705   6.334 -0.1692 -0.2367 -0.0529
  185SLPC  H11A21234   4.636   4.781   6.405 -2.0127  0.9119 -2.1535
  185SLPC  H11B21235   4.613   4.709   6.242 -1.5688 -2.2049  0.7141
  185SLPC     P21236   4.862   4.879   6.294 -0.2321 -0.3380  0.0075
  185SLPC   O1321237   4.978   4.889   6.207 -0.3236 -0.3312 -0.4703
  185SLPC   O1421238   4.753   4.973   6.259 -0.0765  0.2045 -0.1654
  185SLPC   O1221239   4.811   4.731   6.295  0.5561  0.3724 -0.0753
  185SLPC   O1121240   4.919   4.926   6.435 -0.0668  0.3238 -0.2025
  185SLPC    C121241   4.968   4.825   6.525 -0.2003  0.0520  0.2055
  185SLPC    HA21242   5.001   4.737   6.466 -1.0520  2.1759 -3.7877
  185SLPC    HB21243   5.058   4.868   6.573 -0.0095 -0.5931  0.4321
  185SLPC    C221244   4.868   4.801   6.642  0.1107 -0.0168 -0.3273
  185SLPC    HS21245   4.781   4.762   6.585  0.4694  0.8815 -1.5281
  185SLPC   O2121246   4.856   4.916   6.731  0.0756 -0.8589  0.6303
  185SLPC   C2121247   4.733   4.937   6.769  0.5913 -0.0959 -0.1898
  185SLPC   O2221248   4.637   4.862   6.748 -0.6370 -0.3289  0.4593
  185SLPC   C2221249   4.717   5.061   6.865  0.1330  0.2280  0.7257
  185SLPC   H2R21250   4.817   5.109   6.871  0.1800  0.3810 -0.9158
  185SLPC   H2S21251   4.648   5.134   6.817 -0.7587 -0.8969  0.2375
  185SLPC    C321252   4.929   4.690   6.730  0.6744  0.3905  0.6018
  185SLPC    HX21253   5.018   4.740   6.774  0.4596  1.3270  0.0041
  185SLPC    HY21254   4.956   4.607   6.661 -2.7470 -1.2127  0.9987
  185SLPC   O3121255   4.843   4.633   6.830 -0.8683 -0.3023 -0.4547
  185SLPC   C3121256   4.753   4.547   6.789  0.3216 -0.3402  0.5231
  185SLPC   O3221257   4.735   4.512   6.673 -1.1155 -0.3061 -0.0150
  185SLPC   C3221258   4.675   4.497   6.903  0.1941  0.2888 -0.0842
  185SLPC   H2X21259   4.738   4.503   6.995  1.9783  1.6310 -1.3107
  185SLPC   H2Y21260   4.639   4.393   6.891  1.7197 -0.8651  3.5544
  185SLPC   C2321261   4.657   5.023   6.998  0.1247 -0.7241  0.3756
  185SLPC   H3R21262   4.572   4.954   6.978 -1.4244  0.7018  1.6945
  185SLPC   H3S21263   4.621   5.119   7.042 -0.4276 -0.7796  0.0511
  185SLPC   C2421264   4.759   4.960   7.094  0.2453 -0.4877  0.2611
  185SLPC   H4R21265   4.838   5.034   7.116  0.1366 -0.2238 -0.1998
  185SLPC   H4S21266   4.810   4.875   7.044 -3.2614 -2.0663 -1.0125
  185SLPC   C2521267   4.688   4.919   7.233 -0.2903  0.1906  1.4904
  185SLPC   H5R21268   4.607   4.850   7.200  0.5601 -0.2802  0.3059
  185SLPC   H5S21269   4.639   5.012   7.270 -0.7458 -0.3264  2.2215
  185SLPC   C2621270   4.785   4.849   7.325 -0.9718  0.0544  0.3960
  185SLPC   H6R21271   4.741   4.811   7.420 -0.3970 -0.9920  0.2634
  185SLPC   H6S21272   4.860   4.925   7.355  0.9224 -2.0723  1.3584
  185SLPC   C2721273   4.874   4.734   7.264  0.0458  0.0765  0.7376
  185SLPC   H7R21274   4.943   4.777   7.188 -1.5226 -1.9340 -2.0213
  185SLPC   H7S21275   4.802   4.670   7.209 -0.2186  2.7189 -2.3043
  185SLPC   C2821276   4.954   4.658   7.366  0.2605 -0.0805  0.7385
  185SLPC   H8R21277   4.889   4.633   7.452  0.1685  0.5948  0.8719
  185SLPC   H8S21278   5.029   4.727   7.411 -0.3604  0.1110  1.5082
  185SLPC   C2921279   5.024   4.536   7.315  0.2848 -0.4691 -0.0040
  185SLPC   H9R21280   5.080   4.551   7.221  0.0827 -2.2533 -0.4329
  185SLPC  C21021281   5.019   4.412   7.365 -0.1412 -0.7583 -0.2719
  185SLPC  H10R21282   5.072   4.334   7.309  0.6839 -2.0872  2.1840
  185SLPC  C21121283   4.943   4.365   7.485 -0.3046  0.4013  0.2958
  185SLPC  H11R21284   4.924   4.257   7.471 -0.6564  0.2945  1.5208
  185SLPC  H11S21285   4.840   4.407   7.482 -0.1819  0.6938 -2.6587
  185SLPC  C21221286   5.016   4.397   7.612  1.3938 -0.1347 -1.2037
  185SLPC  H12R21287   5.085   4.483   7.615  0.5460  0.5576 -1.1900
  185SLPC  C21321288   5.008   4.319   7.717 -0.8489 -0.5244  0.2064
  185SLPC  H13R21289   5.054   4.369   7.804  0.1442  2.7293 -1.9611
  185SLPC  C21421290   4.934   4.187   7.739 -0.5856  0.3532 -0.3946
  185SLPC  H14R21291   5.009   4.105   7.735 -0.8772 -0.0662  1.6865
  185SLPC  H14S21292   4.848   4.177   7.669 -0.9938 -0.3912  0.2049
  185SLPC  C21521293   4.872   4.190   7.881  1.0717  0.1307  0.0257
  185SLPC  H15R21294   4.784   4.257   7.890  3.4016  3.0666  3.6984
  185SLPC  H15S21295   4.950   4.223   7.953  0.8310  0.3918  0.1691
  185SLPC  C21621296   4.833   4.055   7.945  0.6745  0.2587 -0.3669
  185SLPC  H16R21297   4.779   4.083   8.038  0.5789  1.5602 -0.8016
  185SLPC  H16S21298   4.930   4.014   7.980  0.4710  1.6374  1.9751
  185SLPC  C21721299   4.743   3.965   7.849 -0.3823 -0.0267 -0.2533
  185SLPC  H17R21300   4.808   3.952   7.760  1.8786  1.0036  1.1767
  185SLPC  H17S21301   4.661   4.026   7.804 -0.0399 -1.1024 -2.4495
  185SLPC  C21821302   4.695   3.841   7.908  0.8402  0.9416 -0.0252
  185SLPC  H18R21303   4.645   3.856   8.006 -2.1249  2.2357 -1.5661
  185SLPC  H18S21304   4.775   3.765   7.917  1.3899  1.5003 -0.1086
  185SLPC  H18T21305   4.614   3.792   7.849  1.7280 -0.3941 -0.1602
  185SLPC   C3321306   4.549   4.586   6.925 -0.2739  0.5013  0.2025
  185SLPC   H3X21307   4.485   4.571   6.836  0.0715 -3.3331  0.4549
  185SLPC   H3Y21308   4.587   4.690   6.935  3.9188 -0.9084  0.9494
  185SLPC   C3421309   4.465   4.547   7.049 -0.1557  0.3324 -0.2341
  185SLPC   H4X21310   4.405   4.455   7.032  1.0367 -0.9343  2.0428
  185SLPC   H4Y21311   4.385   4.624   7.056 -0.2160  0.3583 -1.0467
  185SLPC   C3521312   4.536   4.537   7.191  0.0471  0.4218 -0.9785
  185SLPC   H5X21313   4.581   4.636   7.213 -1.1040  0.6207  0.6706
  185SLPC   H5Y21314   4.619   4.464   7.191 -0.4929 -0.2144  0.2538
  185SLPC   C3621315   4.441   4.498   7.312  0.6931 -0.2184 -0.2326
  185SLPC   H6X21316   4.415   4.392   7.294  0.2301  0.1222 -1.6759
  185SLPC   H6Y21317   4.353   4.566   7.306 -0.0138 -1.1791 -1.0173
  185SLPC   C3721318   4.506   4.513   7.452 -0.4280 -0.5504 -0.3079
  185SLPC   H7X21319   4.544   4.615   7.471 -1.8084 -0.4858  2.5470
  185SLPC   H7Y21320   4.599   4.452   7.458  1.2327  1.8465 -0.4709
  185SLPC   C3821321   4.405   4.463   7.567  0.2340  0.0424  0.2516
  185SLPC   H8X21322   4.328   4.399   7.518  2.3178 -1.0381 -1.8635
  185SLPC   H8Y21323   4.349   4.551   7.603  0.4714 -1.3935  4.6757
  185SLPC   C3921324   4.465   4.386   7.683  0.7641  0.4854  0.1884
  185SLPC   H9X21325   4.530   4.453   7.744  0.6958  1.4942 -0.8091
  185SLPC   H9Y21326   4.530   4.303   7.649  3.0467  1.8321  0.9972
  185SLPC  C31021327   4.353   4.329   7.781  0.2354  0.5935  0.1194
  185SLPC  H10X21328   4.291   4.273   7.708  0.4093  2.8229 -1.8982
  185SLPC  H10Y21329   4.291   4.403   7.836  0.6262  0.1571  1.1584
  185SLPC  C31121330   4.414   4.234   7.888 -0.0749 -0.2019 -0.3340
  185SLPC  H11X21331   4.469   4.301   7.959 -0.5620 -1.3074  1.1363
  185SLPC  H11Y21332   4.484   4.160   7.844  1.3047  0.2310  1.0240
  185SLPC  C31221333   4.309   4.159   7.979  0.6015 -0.0584  0.8927
  185SLPC  H12X21334   4.372   4.082   8.028  0.2667 -0.7518  0.2477
  185SLPC  H12Y21335   4.238   4.114   7.907  1.3194 -1.3272  0.9431
  185SLPC  C31321336   4.236   4.247   8.087 -0.2351  0.8583  0.1218
  185SLPC  H13X21337   4.126   4.253   8.077 -0.9249 -3.7610  2.2105
  185SLPC  H13Y21338   4.291   4.343   8.093 -1.4066  1.4499  2.2290
  185SLPC  C31421339   4.247   4.167   8.218  0.3045  0.4937  0.6195
  185SLPC  H14X21340   4.354   4.143   8.236  0.5199  1.5220  0.7454
  185SLPC  H14Y21341   4.196   4.070   8.199 -0.2623  0.2738  2.9159
  185SLPC  C31521342   4.187   4.239   8.344 -0.3516 -0.4819  0.4901
  185SLPC  H15X21343   4.113   4.305   8.294  0.7416  1.5161  1.3624
  185SLPC  H15Y21344   4.251   4.319   8.386 -1.1774  0.0127  0.8268
  185SLPC  C31621345   4.144   4.153   8.454 -0.3345  0.7731 -0.1519
  185SLPC  H16X21346   4.228   4.109   8.510  0.2914  2.1011 -0.0054
  185SLPC  H16Y21347   4.089   4.061   8.426  0.4069  0.0674  0.6876
  185SLPC  C31721348   4.057   4.240   8.539 -0.1298 -0.0415 -1.1132
  185SLPC  H17X21349   3.967   4.275   8.485 -1.8138  2.5339  2.8752
  185SLPC  H17Y21350   4.108   4.330   8.581 -0.3178 -0.0981 -0.7615
  185SLPC  C31821351   3.998   4.169   8.662 -0.0426 -0.3375  0.7194
  185SLPC  H18X21352   3.948   4.239   8.733  0.6017 -1.8468  2.7670
  185SLPC  H18Y21353   4.077   4.108   8.711  2.1239  0.6726 -1.3467
  185SLPC  H18Z21354   3.922   4.106   8.612 -0.7889  0.6377  0.6052
  186SLPC     N21355   4.266   1.263   6.186  0.4246  0.0610  0.0209
  186SLPC   C1321356   4.390   1.342   6.165  0.4627  0.5668  0.1245
  186SLPC  H13A21357   4.475   1.293   6.211  1.5053  1.8033 -0.4065
  186SLPC  H13B21358   4.399   1.355   6.058  1.4503  0.9886  0.2460
  186SLPC  H13C21359   4.384   1.441   6.208  1.0492  0.9455 -0.6417
  186SLPC   C1421360   4.231   1.270   6.329 -0.1996  1.0275  0.9343
  186SLPC  H14A21361   4.320   1.268   6.390  0.0805  0.6142  0.5104
  186SLPC  H14B21362   4.173   1.361   6.342 -2.8534 -0.6792  1.8794
  186SLPC  H14C21363   4.157   1.200   6.366  1.2870 -0.2408  1.5699
  186SLPC   C1521364   4.287   1.122   6.150 -0.8249  0.3451  0.7582
  186SLPC  H15A21365   4.206   1.057   6.179 -0.8774  0.7823  1.6259
  186SLPC  H15B21366   4.278   1.108   6.043  2.8551  2.2954  0.0156
  186SLPC  H15C21367   4.379   1.073   6.179 -1.0249 -1.0405 -0.7675
  186SLPC   C1221368   4.152   1.322   6.103 -0.2861  0.6289 -0.4485
  186SLPC  H12A21369   4.070   1.252   6.108  1.3656 -1.4419 -0.9538
  186SLPC  H12B21370   4.177   1.327   5.998  0.2592  0.6062 -0.3233
  186SLPC   C1121371   4.097   1.459   6.145  0.1027 -0.2195 -0.3060
  186SLPC  H11A21372   4.033   1.500   6.065 -0.9202  0.5276  0.8533
  186SLPC  H11B21373   4.185   1.526   6.161 -1.4003  1.2590  2.6511
  186SLPC     P21374   3.859   1.453   6.249 -0.1264  0.0066  0.5549
  186SLPC   O1321375   3.823   1.557   6.152  0.1090  0.2255 -0.1794
  186SLPC   O1421376   3.817   1.315   6.224  0.0593 -0.1328 -0.2735
  186SLPC   O1221377   4.016   1.456   6.262 -0.5872  0.5963  0.6726
  186SLPC   O1121378   3.797   1.508   6.384 -0.3886 -0.6527  0.4666
  186SLPC    C121379   3.895   1.519   6.496 -0.4921 -0.1064 -0.2316
  186SLPC    HA21380   3.984   1.580   6.474 -1.2016  1.7108  1.5974
  186SLPC    HB21381   3.850   1.585   6.573  0.3367  0.3312 -0.1124
  186SLPC    C221382   3.943   1.387   6.564  0.3161  0.3080  0.2746
  186SLPC    HS21383   3.976   1.314   6.487  0.6394 -0.7687  1.4088
  186SLPC   O2121384   3.821   1.329   6.618  0.5005 -0.0737  0.5256
  186SLPC   C2121385   3.802   1.201   6.620 -0.3257 -0.0072  0.0319
  186SLPC   O2221386   3.880   1.120   6.582  0.0506  0.2137  0.0217
  186SLPC   C2221387   3.680   1.164   6.698 -0.2354  0.4330 -0.3784
  186SLPC   H2R21388   3.667   1.240   6.779 -0.5043 -2.5452  2.6155
  186SLPC   H2S21389   3.590   1.165   6.633  0.7203  0.1906 -1.7357
  186SLPC    C321390   4.069   1.398   6.653 -0.0211 -0.4321 -0.5400
  186SLPC    HX21391   4.154   1.426   6.586 -0.2870 -1.2580 -1.2292
  186SLPC    HY21392   4.093   1.301   6.702  1.6223  0.5252  0.6631
  186SLPC   O3121393   4.053   1.510   6.744 -0.3012 -0.7702 -0.4539
  186SLPC   C3121394   4.103   1.499   6.872  0.4720  0.2326 -0.4663
  186SLPC   O3221395   4.157   1.401   6.916  0.2239  0.3797 -0.0188
  186SLPC   C3221396   4.070   1.630   6.947  0.3061 -0.5528  0.2625
  186SLPC   H2X21397   3.987   1.665   6.883  2.5721 -1.3853 -3.4260
  186SLPC   H2Y21398   4.155   1.700   6.932 -0.9613  0.5710 -2.0814
  186SLPC   C2321399   3.704   1.023   6.763 -0.1799 -0.3631  0.3763
  186SLPC   H3R21400   3.778   1.030   6.846 -1.7262  0.7572  1.7299
  186SLPC   H3S21401   3.721   0.942   6.689  3.2184 -2.5457  3.1678
  186SLPC   C2421402   3.572   0.983   6.828  0.4691  0.5676  0.3667
  186SLPC   H4R21403   3.484   0.987   6.761  1.6275  0.5351 -1.2133
  186SLPC   H4S21404   3.547   1.053   6.911 -3.1105 -0.8784  0.6654
  186SLPC   C2521405   3.591   0.847   6.891  0.1043  0.1415 -0.3085
  186SLPC   H5R21406   3.680   0.853   6.957 -0.8038 -3.4346  1.4665
  186SLPC   H5S21407   3.618   0.766   6.820 -1.6331 -0.3192 -0.4725
  186SLPC   C2621408   3.475   0.826   6.990 -0.0974  0.3412 -0.2614
  186SLPC   H6R21409   3.374   0.808   6.948 -0.7013  1.6735  0.5813
  186SLPC   H6S21410   3.459   0.922   7.043  1.1125 -0.0235  0.8046
  186SLPC   C2721411   3.522   0.734   7.100  1.1452 -0.1670 -0.5297
  186SLPC   H7R21412   3.608   0.782   7.152  1.1819  0.1862 -0.9092
  186SLPC   H7S21413   3.553   0.633   7.064  1.3173 -0.6522  0.8971
  186SLPC   C2821414   3.416   0.713   7.213 -0.4310 -0.1464 -0.4142
  186SLPC   H8R21415   3.337   0.651   7.166 -0.4884 -0.9245  0.6633
  186SLPC   H8S21416   3.378   0.810   7.249 -0.7681 -0.2909 -0.3810
  186SLPC   C2921417   3.474   0.634   7.331  0.3231  0.4716 -0.1568
  186SLPC   H9R21418   3.496   0.531   7.297 -2.2402 -0.5647  1.0781
  186SLPC  C21021419   3.481   0.661   7.462  0.1632  1.0321 -0.3862
  186SLPC  H10R21420   3.507   0.579   7.530 -0.4523  0.8983 -0.3018
  186SLPC  C21121421   3.439   0.790   7.534 -0.1632  0.0823  0.4840
  186SLPC  H11R21422   3.352   0.770   7.600  0.6797  1.6623  2.1538
  186SLPC  H11S21423   3.413   0.874   7.465 -0.0601 -0.4480 -0.2092
  186SLPC  C21221424   3.550   0.841   7.615 -0.3732  0.1185  0.3600
  186SLPC  H12R21425   3.568   0.787   7.709 -0.4654 -0.6495 -0.0566
  186SLPC  C21321426   3.622   0.949   7.588 -0.3798 -0.0721 -0.7132
  186SLPC  H13R21427   3.693   0.982   7.666 -1.8219 -0.0933  0.6545
  186SLPC  C21421428   3.610   1.049   7.476 -0.4485 -0.0512  0.3117
  186SLPC  H14R21429   3.615   1.145   7.531  1.3714 -0.5435  1.0715
  186SLPC  H14S21430   3.513   1.047   7.423 -2.0252  0.1853  2.9638
  186SLPC  C21521431   3.727   1.037   7.373 -0.0615 -0.6533  0.4866
  186SLPC  H15R21432   3.684   0.952   7.316  0.1543 -0.0617 -0.5699
  186SLPC  H15S21433   3.824   1.003   7.416 -0.3491 -1.4911  0.4948
  186SLPC  C21621434   3.740   1.160   7.284  0.2592 -0.9693 -0.0366
  186SLPC  H16R21435   3.780   1.246   7.341  0.2367  0.3034 -1.8522
  186SLPC  H16S21436   3.636   1.181   7.251 -0.8516 -1.4677  2.8418
  186SLPC  C21721437   3.831   1.139   7.162  0.5561 -0.1751 -0.4797
  186SLPC  H17R21438   3.784   1.056   7.104  0.6080  0.2088 -1.0821
  186SLPC  H17S21439   3.934   1.117   7.195  0.4830  0.6801  0.3494
  186SLPC  C21821440   3.829   1.261   7.062  0.1159  0.4207  0.1575
  186SLPC  H18R21441   3.893   1.250   6.972 -0.8517  4.1223 -1.1514
  186SLPC  H18S21442   3.859   1.355   7.112 -0.4286  1.2175 -0.9731
  186SLPC  H18T21443   3.732   1.277   7.010  1.5868  1.6818 -2.3402
  186SLPC   C3321444   4.049   1.617   7.103 -0.2519  0.2847  0.3551
  186SLPC   H3X21445   4.139   1.570   7.148 -0.1791 -1.2812 -1.3144
  186SLPC   H3Y21446   3.957   1.557   7.122 -0.4401  0.0055 -1.2533
  186SLPC   C3421447   4.027   1.756   7.157 -0.1210 -0.3044  0.6618
  186SLPC   H4X21448   3.953   1.812   7.096  1.0868  2.0819  1.2681
  186SLPC   H4Y21449   4.122   1.809   7.135 -0.3072  0.4433  1.5860
  186SLPC   C3521450   4.011   1.759   7.310 -0.0143 -0.9342 -0.2001
  186SLPC   H5X21451   3.935   1.683   7.334  1.5116 -2.3255  0.3774
  186SLPC   H5Y21452   3.976   1.857   7.350  0.2113 -0.9601  0.0648
  186SLPC   C3621453   4.142   1.723   7.385 -0.2208 -0.2514  0.2886
  186SLPC   H6X21454   4.213   1.807   7.367  0.2129 -0.5709  0.4621
  186SLPC   H6Y21455   4.173   1.623   7.348 -1.4617 -0.2839 -0.7319
  186SLPC   C3721456   4.111   1.718   7.536 -0.1434 -0.5143 -0.3935
  186SLPC   H7X21457   4.075   1.615   7.558 -1.3330 -0.8927 -3.5933
  186SLPC   H7Y21458   4.040   1.796   7.569  1.3985 -0.0173  1.9829
  186SLPC   C3821459   4.239   1.751   7.614  0.8115 -0.1110 -0.0330
  186SLPC   H8X21460   4.263   1.856   7.587  2.3775 -0.9030 -1.9867
  186SLPC   H8Y21461   4.323   1.690   7.572  0.6456  0.0274 -0.5767
  186SLPC   C3921462   4.226   1.723   7.763  0.0144  0.3998  0.6976
  186SLPC   H9X21463   4.195   1.618   7.784  0.2590  0.5458  1.8577
  186SLPC   H9Y21464   4.142   1.789   7.793  0.1067  0.4037  0.9531
  186SLPC  C31021465   4.346   1.770   7.845  0.3782 -0.6061 -0.3183
  186SLPC  H10X21466   4.363   1.877   7.821 -0.3346 -1.1522 -3.6425
  186SLPC  H10Y21467   4.439   1.730   7.801  0.3529  0.7781 -1.7362
  186SLPC  C31121468   4.331   1.742   7.992  0.3752  0.3317  0.2335
  186SLPC  H11X21469   4.234   1.776   8.034 -0.7396  0.9213 -2.5846
  186SLPC  H11Y21470   4.412   1.797   8.044  0.5240  0.6105 -0.2888
  186SLPC  C31221471   4.347   1.595   8.031 -0.1442 -0.2767 -0.0910
  186SLPC  H12X21472   4.453   1.563   8.023 -0.0189 -0.2422  1.1407
  186SLPC  H12Y21473   4.285   1.538   7.959  0.5563 -1.2083  0.0289
  186SLPC  C31321474   4.306   1.565   8.180 -0.4098 -0.3703 -0.1043
  186SLPC  H13X21475   4.199   1.579   8.207  0.1610  2.7482  0.9317
  186SLPC  H13Y21476   4.359   1.646   8.235 -0.2477 -0.5471  0.0025
  186SLPC  C31421477   4.351   1.424   8.224  0.0944  0.0161  0.1754
  186SLPC  H14X21478   4.332   1.413   8.333  1.7113 -0.5695  0.4344
  186SLPC  H14Y21479   4.461   1.414   8.206  0.2821 -0.3966  1.4853
  186SLPC  C31521480   4.269   1.306   8.164  0.2687 -0.5800 -0.9028
  186SLPC  H15X21481   4.272   1.328   8.055 -0.2573 -0.3800 -0.8796
  186SLPC  H15Y21482   4.165   1.305   8.203  0.5994  3.3641  0.6030
  186SLPC  C31621483   4.330   1.174   8.208  0.5881 -0.7178 -0.8022
  186SLPC  H16X21484   4.440   1.181   8.193  0.2520  1.3738 -2.9749
  186SLPC  H16Y21485   4.293   1.091   8.143 -0.3906 -0.5082 -0.5219
  186SLPC  C31721486   4.286   1.145   8.355  0.0004 -0.3198  0.3306
  186SLPC  H17X21487   4.183   1.103   8.353  0.3020 -1.0761  0.3701
  186SLPC  H17Y21488   4.281   1.240   8.413  1.4773  0.0470 -0.0961
  186SLPC  C31821489   4.369   1.047   8.429 -0.7850  0.1447  0.1591
  186SLPC  H18X21490   4.474   1.078   8.445 -0.2386 -1.0805 -0.8654
  186SLPC  H18Y21491   4.359   0.940   8.399 -2.5593 -0.1253  1.5065
  186SLPC  H18Z21492   4.336   1.046   8.535 -1.0846 -2.3972  0.1017
  187SLPC     N21493   5.292   4.652   6.063  0.6051 -0.0061 -0.8512
  187SLPC   C1321494   5.432   4.603   6.090  1.0050  0.0622  0.0168
  187SLPC  H13A21495   5.442   4.501   6.054 -0.4660 -0.6387  1.4332
  187SLPC  H13B21496   5.510   4.669   6.057  0.2769  1.5744  1.1765
  187SLPC  H13C21497   5.445   4.591   6.196  0.2541 -0.7605  0.0267
  187SLPC   C1421498   5.208   4.541   6.126 -0.0424 -1.0100 -0.1217
  187SLPC  H14A21499   5.216   4.446   6.075 -1.2624 -0.3036 -1.7202
  187SLPC  H14B21500   5.225   4.530   6.232 -0.5101 -1.6984 -0.1117
  187SLPC  H14C21501   5.104   4.567   6.115  0.2161  0.5463  0.7613
  187SLPC   C1521502   5.281   4.671   5.921 -0.5533  0.8504  0.2535
  187SLPC  H15A21503   5.350   4.752   5.903  0.9335  0.0590  1.9981
  187SLPC  H15B21504   5.298   4.577   5.872  1.9521  1.0643  0.6025
  187SLPC  H15C21505   5.187   4.711   5.887  0.1119  1.5114 -0.8565
  187SLPC   C1221506   5.261   4.781   6.128  0.3309  0.0533  0.5735
  187SLPC  H12A21507   5.173   4.820   6.079  1.6959 -0.0108 -2.1090
  187SLPC  H12B21508   5.340   4.848   6.098  0.0108  1.6237  2.9728
  187SLPC   C1121509   5.246   4.783   6.278 -0.5704  0.1379 -0.6078
  187SLPC  H11A21510   5.150   4.735   6.307  1.1259 -3.6296 -0.6541
  187SLPC  H11B21511   5.237   4.890   6.307 -1.8443  0.1569 -1.0276
  187SLPC     P21512   5.368   4.647   6.480 -0.0966 -0.2517  0.0671
  187SLPC   O1321513   5.265   4.542   6.490 -0.3762 -0.4031  0.3244
  187SLPC   O1421514   5.514   4.611   6.498 -0.1627  0.1957  0.0286
  187SLPC   O1221515   5.358   4.720   6.339  0.1698  0.2394 -0.1706
  187SLPC   O1121516   5.336   4.754   6.589 -0.1178 -0.2080  0.0128
  187SLPC    C121517   5.383   4.892   6.573  0.5454  0.0346 -0.3524
  187SLPC    HA21518   5.481   4.893   6.521  0.9925 -1.5367  0.3763
  187SLPC    HB21519   5.311   4.947   6.508 -1.8674 -2.1668  0.2710
  187SLPC    C221520   5.387   4.969   6.701 -0.2098 -0.9268 -0.3764
  187SLPC    HS21521   5.423   5.071   6.676 -0.1445 -0.9872 -0.5299
  187SLPC   O2121522   5.461   4.913   6.810 -0.4208 -0.3480 -0.2064
  187SLPC   C2121523   5.586   4.954   6.821  0.2396 -0.1608 -0.1288
  187SLPC   O2221524   5.641   5.038   6.750 -0.0312 -0.1489 -0.1496
  187SLPC   C2221525   5.648   4.896   6.949  0.0960  0.5141 -0.2497
  187SLPC   H2R21526   5.632   4.786   6.943  0.5679  0.2576  2.1704
  187SLPC   H2S21527   5.755   4.925   6.958  0.1052  0.0464  1.6837
  187SLPC    C321528   5.245   4.972   6.769 -0.8610 -0.5140 -0.3266
  187SLPC    HX21529   5.200   4.878   6.809 -0.1153 -0.7572 -0.0493
  187SLPC    HY21530   5.181   5.024   6.694  0.8748  2.1879 -0.0750
  187SLPC   O3121531   5.255   5.065   6.885  0.1117  0.0927 -0.1887
  187SLPC   C3121532   5.177   5.178   6.878 -0.0590  1.1422 -0.2308
  187SLPC   O3221533   5.081   5.187   6.801  0.1955 -0.6338 -0.5582
  187SLPC   C3221534   5.227   5.279   6.979  0.4375  0.4164  0.0253
  187SLPC   H2X21535   5.214   5.379   6.932  0.0312 -0.5567 -2.0465
  187SLPC   H2Y21536   5.337   5.283   6.993  0.5258 -2.6691  1.0337
  187SLPC   C2321537   5.584   4.956   7.073  0.3794  0.4590 -0.2577
  187SLPC   H3R21538   5.476   4.931   7.078  0.3894 -0.4295 -3.1173
  187SLPC   H3S21539   5.601   5.066   7.073  1.9667  0.2744 -2.0395
  187SLPC   C2421540   5.630   4.888   7.198 -0.3171  0.5132  0.5505
  187SLPC   H4R21541   5.741   4.893   7.197 -0.2892  0.5047 -1.6485
  187SLPC   H4S21542   5.603   4.780   7.197 -2.3555  0.9648 -1.3373
  187SLPC   C2521543   5.566   4.948   7.324 -0.9916 -0.6193 -0.0501
  187SLPC   H5R21544   5.456   4.947   7.308 -0.5942 -1.0404 -3.6603
  187SLPC   H5S21545   5.603   5.051   7.339  0.9379 -1.2361 -0.3156
  187SLPC   C2621546   5.595   4.862   7.446  0.4519  0.8125  1.0216
  187SLPC   H6R21547   5.704   4.847   7.455  0.2903 -2.8619 -1.0588
  187SLPC   H6S21548   5.547   4.762   7.434  1.5116  0.1857  1.8392
  187SLPC   C2721549   5.543   4.913   7.577 -0.4225  0.0472  0.4812
  187SLPC   H7R21550   5.438   4.938   7.550 -2.1177 -3.1647  3.1837
  187SLPC   H7S21551   5.573   5.012   7.617 -2.1094  0.3152  1.1689
  187SLPC   C2821552   5.565   4.817   7.695 -0.8880  0.2917 -0.0796
  187SLPC   H8R21553   5.543   4.714   7.659  3.1540 -0.8408  0.2901
  187SLPC   H8S21554   5.493   4.841   7.777 -0.0854 -0.8042  0.9896
  187SLPC   C2921555   5.713   4.809   7.741  0.2202 -0.4275 -0.0313
  187SLPC   H9R21556   5.779   4.775   7.660 -0.6775 -0.1674 -0.8809
  187SLPC  C21021557   5.756   4.848   7.865  0.0300 -1.0097  0.0515
  187SLPC  H10R21558   5.864   4.854   7.885  0.1367  2.9524 -0.9292
  187SLPC  C21121559   5.679   4.911   7.978 -0.4153  0.2865 -0.0157
  187SLPC  H11R21560   5.603   4.975   7.927  0.2539 -0.6667 -2.3348
  187SLPC  H11S21561   5.750   4.974   8.036  0.8906 -1.1011 -0.0324
  187SLPC  C21221562   5.614   4.808   8.067 -0.2725 -0.4515 -0.2908
  187SLPC  H12R21563   5.550   4.748   8.002 -1.1905  0.4968 -0.2833
  187SLPC  C21321564   5.634   4.773   8.190  1.0389  0.4550  0.2279
  187SLPC  H13R21565   5.565   4.694   8.223 -1.4692  2.1680 -0.5827
  187SLPC  C21421566   5.720   4.840   8.296  0.2338 -0.5342  0.0391
  187SLPC  H14R21567   5.696   4.801   8.397 -3.2743 -2.1312 -1.2788
  187SLPC  H14S21568   5.689   4.947   8.291 -1.7580 -0.9050  2.4537
  187SLPC  C21521569   5.866   4.805   8.272  0.1546 -0.4130 -0.5279
  187SLPC  H15R21570   5.939   4.852   8.342 -0.7125 -1.1279  0.9010
  187SLPC  H15S21571   5.890   4.846   8.171 -1.3565  2.5503  0.1967
  187SLPC  C21621572   5.901   4.658   8.301 -0.4764 -0.3684  0.4886
  187SLPC  H16R21573   5.830   4.598   8.240  0.7579 -0.5151 -0.8584
  187SLPC  H16S21574   5.889   4.631   8.408 -0.9546  0.9892  0.7928
  187SLPC  C21721575   6.046   4.620   8.255 -0.6753  0.7187  0.0173
  187SLPC  H17R21576   6.047   4.617   8.144 -1.1566 -0.2658  0.0328
  187SLPC  H17S21577   6.063   4.518   8.295 -0.6151  0.9678  0.6293
  187SLPC  C21821578   6.167   4.705   8.298  0.0360 -0.3547 -0.0470
  187SLPC  H18R21579   6.142   4.813   8.302  0.0227 -0.3825  0.7675
  187SLPC  H18S21580   6.259   4.685   8.240  1.1637  1.9150  0.8727
  187SLPC  H18T21581   6.199   4.683   8.402  0.5075 -1.4814 -0.4129
  187SLPC   C3321582   5.139   5.266   7.108  0.3583  0.5059  0.0273
  187SLPC   H3X21583   5.035   5.247   7.072  0.2427 -0.1151  0.6720
  187SLPC   H3Y21584   5.140   5.358   7.170 -1.0723  0.0798  0.7341
  187SLPC   C3421585   5.177   5.148   7.203 -0.2800  0.0242 -0.3672
  187SLPC   H4X21586   5.284   5.165   7.226 -0.4042 -2.3823  2.5219
  187SLPC   H4Y21587   5.182   5.056   7.141 -1.7700  1.4777 -2.8109
  187SLPC   C3521588   5.095   5.133   7.333  0.3241  0.0605 -0.5717
  187SLPC   H5X21589   4.992   5.116   7.295  0.2199  1.7346 -1.1337
  187SLPC   H5Y21590   5.091   5.226   7.395  0.8862 -1.8508  2.5842
  187SLPC   C3621591   5.132   5.023   7.430  0.4566  0.0938 -0.1968
  187SLPC   H6X21592   5.241   5.022   7.448  0.2727  0.4485  1.0300
  187SLPC   H6Y21593   5.105   4.925   7.383 -3.5015  1.4638 -1.1959
  187SLPC   C3721594   5.053   5.045   7.562 -0.2940  0.1518  0.2167
  187SLPC   H7X21595   5.028   5.150   7.588 -4.7986 -0.6638 -0.0380
  187SLPC   H7Y21596   4.951   5.011   7.535 -0.2181  0.1565 -0.0715
  187SLPC   C3821597   5.098   4.963   7.683 -0.3812  0.6008  0.2570
  187SLPC   H8X21598   5.018   4.978   7.758 -2.7954 -2.6270 -1.4282
  187SLPC   H8Y21599   5.188   5.016   7.720 -1.5426  2.0495  1.0980
  187SLPC   C3921600   5.115   4.817   7.669 -0.1689 -0.3967 -0.4933
  187SLPC   H9X21601   5.204   4.783   7.611  2.0608  1.5815  1.5404
  187SLPC   H9Y21602   5.031   4.764   7.620  1.6125 -2.7530 -1.1677
  187SLPC  C31021603   5.152   4.754   7.805 -0.9159 -0.1850  0.4262
  187SLPC  H10X21604   5.239   4.813   7.840 -0.7203  0.3068 -0.8127
  187SLPC  H10Y21605   5.199   4.655   7.789 -1.5997 -1.1440  3.5974
  187SLPC  C31121606   5.044   4.752   7.906  0.0221  0.1927  0.5772
  187SLPC  H11X21607   5.013   4.858   7.921 -0.3409  0.1687  0.0135
  187SLPC  H11Y21608   5.099   4.714   7.995  1.1759  0.1839 -0.1203
  187SLPC  C31221609   4.928   4.669   7.864 -0.3331  0.3895 -0.6689
  187SLPC  H12X21610   4.948   4.560   7.880  1.7001  0.7355 -0.5038
  187SLPC  H12Y21611   4.901   4.683   7.757  2.2532 -0.5270 -1.5231
  187SLPC  C31321612   4.800   4.702   7.948 -0.4916  0.8586 -0.0819
  187SLPC  H13X21613   4.712   4.664   7.892  1.2303 -0.1117 -2.2821
  187SLPC  H13Y21614   4.788   4.813   7.946 -0.5022  0.8716  0.4173
  187SLPC  C31421615   4.800   4.644   8.091 -0.6233  0.1725  0.4939
  187SLPC  H14X21616   4.720   4.694   8.151  0.4480 -0.6960  2.7731
  187SLPC  H14Y21617   4.891   4.668   8.149 -0.3816 -0.5350  0.4145
  187SLPC  C31521618   4.778   4.491   8.089  0.0156 -0.7244  0.3854
  187SLPC  H15X21619   4.869   4.431   8.070  0.5332  0.2952 -0.4589
  187SLPC  H15Y21620   4.714   4.466   8.002  1.4050  0.6923 -1.1202
  187SLPC  C31621621   4.716   4.452   8.223 -0.0654  0.1537 -0.2990
  187SLPC  H16X21622   4.662   4.535   8.272  0.6113  0.9183 -0.8194
  187SLPC  H16Y21623   4.803   4.423   8.287  0.3320  1.7622 -0.0822
  187SLPC  C31721624   4.624   4.324   8.214 -0.2932 -0.2569  0.2159
  187SLPC  H17X21625   4.653   4.255   8.133  0.2633 -0.1969  0.3567
  187SLPC  H17Y21626   4.520   4.358   8.198  0.4660  3.7733  2.4204
  187SLPC  C31821627   4.622   4.237   8.339  0.2605 -0.5793  0.5126
  187SLPC  H18X21628   4.552   4.155   8.312 -0.6216 -0.5394  2.4867
  187SLPC  H18Y21629   4.568   4.291   8.420 -0.9855  2.2668 -2.0230
  187SLPC  H18Z21630   4.724   4.202   8.364  0.7047  0.8217  0.7414
  188SLPC     N21631   6.263   4.807   6.259  0.0539 -0.2976  0.5001
  188SLPC   C1321632   6.131   4.735   6.231  0.4513 -0.0123  0.1667
  188SLPC  H13A21633   6.107   4.770   6.131 -0.0291  0.0174  0.2934
  188SLPC  H13B21634   6.136   4.628   6.235 -1.2495 -0.1228 -0.1331
  188SLPC  H13C21635   6.049   4.761   6.296 -0.9247  0.6794 -1.7519
  188SLPC   C1421636   6.374   4.740   6.178  0.0928  0.0932  0.1401
  188SLPC  H14A21637   6.368   4.768   6.074 -1.3195  1.8607  0.6469
  188SLPC  H14B21638   6.466   4.771   6.225  0.1400 -2.2807  1.7629
  188SLPC  H14C21639   6.366   4.633   6.184  0.7067  0.0453  0.1566
  188SLPC   C1521640   6.289   4.802   6.401 -0.1520  0.8092 -0.8443
  188SLPC  H15A21641   6.220   4.854   6.466  0.3172 -0.0265  0.3526
  188SLPC  H15B21642   6.305   4.700   6.432 -0.1200  0.0940 -3.0997
  188SLPC  H15C21643   6.383   4.852   6.423 -0.5429  0.7430  1.2293
  188SLPC   C1221644   6.248   4.950   6.208  0.4202 -0.5681 -0.1116
  188SLPC  H12A21645   6.172   4.995   6.270  0.3522 -0.7553 -0.0569
  188SLPC  H12B21646   6.212   4.955   6.107 -0.6779  2.2098  0.3463
  188SLPC   C1121647   6.371   5.046   6.216 -0.0843  0.4352  0.1463
  188SLPC  H11A21648   6.359   5.130   6.144  2.3814  0.0562 -0.8023
  188SLPC  H11B21649   6.461   4.992   6.179 -0.7235 -0.2954 -0.3807
  188SLPC     P21650   6.308   5.192   6.424 -0.5065 -0.4718  0.1617
  188SLPC   O1321651   6.318   5.324   6.351  0.3463  0.4632 -0.2789
  188SLPC   O1421652   6.175   5.132   6.447 -0.2270 -0.1166  0.0410
  188SLPC   O1221653   6.396   5.093   6.353 -0.9091 -0.7634 -0.2150
  188SLPC   O1121654   6.384   5.197   6.563  0.0954 -0.3010  0.1652
  188SLPC    C121655   6.511   5.270   6.573  0.2034  0.8674 -0.7358
  188SLPC    HA21656   6.572   5.251   6.482 -0.8283 -0.8155 -1.1062
  188SLPC    HB21657   6.492   5.380   6.579  0.3687  1.0145 -2.4432
  188SLPC    C221658   6.598   5.250   6.703 -0.9210  0.7333 -0.1602
  188SLPC    HS21659   6.677   5.177   6.675 -0.1631  1.5421 -0.1692
  188SLPC   O2121660   6.518   5.203   6.814 -0.5256  0.1761 -0.1634
  188SLPC   C2121661   6.587   5.117   6.892  0.4377 -0.7385  0.1732
  188SLPC   O2221662   6.705   5.088   6.885 -0.2118  0.9593 -0.5582
  188SLPC   C2221663   6.497   5.053   6.990 -0.2503  0.3399 -0.4147
  188SLPC   H2R21664   6.435   5.127   7.045 -1.8658 -1.9162  0.9415
  188SLPC   H2S21665   6.426   4.990   6.933  0.5314  1.0631 -2.3005
  188SLPC    C321666   6.671   5.383   6.739  0.0074  0.0100  0.9588
  188SLPC    HX21667   6.597   5.442   6.797 -0.3003  0.6642 -0.0708
  188SLPC    HY21668   6.683   5.451   6.652  0.0527 -0.3610  0.6669
  188SLPC   O3121669   6.789   5.371   6.816 -0.2432  0.7894  0.2695
  188SLPC   C3121670   6.892   5.322   6.751  0.2554  0.8026  0.0374
  188SLPC   O3221671   6.892   5.303   6.631 -0.0804  1.0908  0.6988
  188SLPC   C3221672   7.011   5.294   6.851  0.2943 -0.1591 -0.3579
  188SLPC   H2X21673   7.090   5.262   6.779 -0.4308 -2.0625 -0.3685
  188SLPC   H2Y21674   6.987   5.208   6.916  3.0755  0.5116  1.7319
  188SLPC   C2321675   6.565   4.976   7.101 -0.6627 -0.0511  0.1382
  188SLPC   H3R21676   6.638   4.913   7.047  1.8359  1.4341  1.6067
  188SLPC   H3S21677   6.484   4.906   7.131 -1.7267  1.1475  0.1423
  188SLPC   C2421678   6.627   5.058   7.212 -0.1742  0.5485 -0.5799
  188SLPC   H4R21679   6.697   5.134   7.169 -1.3381  0.4612 -2.8160
  188SLPC   H4S21680   6.687   4.995   7.281  0.5650  1.6876 -0.1574
  188SLPC   C2521681   6.531   5.136   7.302 -0.3325  0.0238 -0.2538
  188SLPC   H5R21682   6.432   5.089   7.287  0.0936 -1.3826  1.1550
  188SLPC   H5S21683   6.521   5.236   7.254 -0.5848  0.0724 -0.0998
  188SLPC   C2621684   6.550   5.130   7.452  0.0420 -0.4971 -0.5169
  188SLPC   H6R21685   6.656   5.158   7.472  0.0175  0.2723 -1.3737
  188SLPC   H6S21686   6.547   5.026   7.490  0.2306  0.1056  1.2309
  188SLPC   C2721687   6.441   5.205   7.522 -1.2428 -0.5578 -0.3146
  188SLPC   H7R21688   6.342   5.182   7.477 -1.0820 -3.3357  0.5310
  188SLPC   H7S21689   6.461   5.311   7.498  2.4299 -0.8339  0.9575
  188SLPC   C2821690   6.443   5.173   7.679  0.0976  0.4113 -0.1899
  188SLPC   H8R21691   6.454   5.068   7.712 -1.2517  1.1076  2.8061
  188SLPC   H8S21692   6.345   5.205   7.722 -0.2405 -1.7009  0.7374
  188SLPC   C2921693   6.560   5.245   7.744  0.1653  0.6731 -0.8510
  188SLPC   H9R21694   6.659   5.218   7.705  0.7181 -0.6966  1.3464
  188SLPC  C21021695   6.554   5.321   7.862 -0.0539  0.1194  0.0244
  188SLPC  H10R21696   6.647   5.348   7.913 -0.4208 -0.2721  0.9328
  188SLPC  C21121697   6.426   5.341   7.943 -0.2460 -0.8779  1.0577
  188SLPC  H11R21698   6.445   5.340   8.052  0.1070  1.0090  1.0595
  188SLPC  H11S21699   6.366   5.249   7.931  0.3136 -1.0548 -0.8341
  188SLPC  C21221700   6.347   5.473   7.917  0.5269  0.2782 -0.4915
  188SLPC  H12R21701   6.266   5.466   7.842 -0.0102  1.5472 -0.0650
  188SLPC  C21321702   6.353   5.589   7.992 -1.0355 -0.4055  0.1817
  188SLPC  H13R21703   6.290   5.673   7.959 -2.6270 -1.5139  0.2862
  188SLPC  C21421704   6.444   5.622   8.105 -0.4660  0.8501  0.2866
  188SLPC  H14R21705   6.553   5.616   8.082 -0.3342 -2.9961  1.1613
  188SLPC  H14S21706   6.433   5.539   8.179  0.5178  0.9306  0.5344
  188SLPC  C21521707   6.393   5.753   8.167  0.1954 -0.0012  0.4976
  188SLPC  H15R21708   6.397   5.843   8.101  0.6527  1.3527  2.2859
  188SLPC  H15S21709   6.464   5.769   8.251 -0.1606  0.7609  0.6553
  188SLPC  C21621710   6.254   5.747   8.228  0.3980  0.2953  0.5493
  188SLPC  H16R21711   6.267   5.676   8.313 -0.1305  0.3287  0.6589
  188SLPC  H16S21712   6.194   5.704   8.145  2.3417 -2.2877  0.3332
  188SLPC  C21721713   6.201   5.876   8.281 -0.1530 -0.1997  0.6349
  188SLPC  H17R21714   6.216   5.951   8.201  2.8394 -0.2470  1.0340
  188SLPC  H17S21715   6.251   5.920   8.370 -0.4759 -1.5752  1.5416
  188SLPC  C21821716   6.048   5.866   8.307 -0.5408 -0.7195 -0.4664
  188SLPC  H18R21717   6.004   5.807   8.224 -0.3104  0.2226 -1.2727
  188SLPC  H18S21718   5.994   5.962   8.319  1.5032  0.3865  0.4367
  188SLPC  H18T21719   6.038   5.810   8.403  2.1630  0.3991  0.5508
  188SLPC   C3321720   7.043   5.419   6.932 -0.8030 -0.3766 -0.2870
  188SLPC   H3X21721   6.958   5.446   6.998  0.5468 -1.4219  1.9774
  188SLPC   H3Y21722   7.056   5.505   6.862  3.0802 -0.0598  0.5552
  188SLPC   C3421723   7.162   5.387   7.024  0.5545  0.5086  0.3404
  188SLPC   H4X21724   7.240   5.364   6.949 -0.8855 -2.8600 -0.3202
  188SLPC   H4Y21725   7.134   5.301   7.088  1.0839 -1.1594 -1.5630
  188SLPC   C3521726   7.203   5.501   7.119  0.1176  0.1616  0.6462
  188SLPC   H5X21727   7.117   5.512   7.188 -0.5247 -2.0180  0.2608
  188SLPC   H5Y21728   7.224   5.597   7.067 -2.0531  0.7877  0.8471
  188SLPC   C3621729   7.331   5.461   7.195 -0.7498 -0.0968 -0.6611
  188SLPC   H6X21730   7.423   5.477   7.134  0.2154  0.9119  1.0024
  188SLPC   H6Y21731   7.321   5.359   7.237  0.5134  0.0746  0.0977
  188SLPC   C3721732   7.353   5.567   7.304 -0.3124 -0.4035 -0.4906
  188SLPC   H7X21733   7.274   5.555   7.381  0.3742 -0.9816  0.1346
  188SLPC   H7Y21734   7.340   5.666   7.255 -0.5742 -0.4770 -0.5677
  188SLPC   C3821735   7.486   5.553   7.379 -0.1587  0.4252  0.8006
  188SLPC   H8X21736   7.554   5.512   7.301  0.6574 -2.1306  2.7055
  188SLPC   H8Y21737   7.474   5.474   7.457 -0.6811 -0.9732 -0.6195
  188SLPC   C3921738   7.542   5.680   7.444 -0.2340 -0.6624  0.7901
  188SLPC   H9X21739   7.524   5.749   7.358 -0.6098 -0.8950  0.6781
  188SLPC   H9Y21740   7.650   5.670   7.467 -0.2232  0.0542  1.0520
  188SLPC  C31021741   7.458   5.731   7.554 -0.3965 -0.2297  0.0409
  188SLPC  H10X21742   7.372   5.786   7.512 -1.0375  0.5426  2.2180
  188SLPC  H10Y21743   7.511   5.809   7.613  1.2741 -0.1934 -1.4323
  188SLPC  C31121744   7.419   5.639   7.669 -0.1264  0.3466 -0.2806
  188SLPC  H11X21745   7.505   5.612   7.734  0.7958 -0.2768 -1.7092
  188SLPC  H11Y21746   7.379   5.541   7.638  4.3911 -1.8650  0.0559
  188SLPC  C31221747   7.331   5.713   7.771 -0.3872  0.3774 -0.4329
  188SLPC  H12X21748   7.237   5.751   7.724 -0.7779 -0.2713 -0.1896
  188SLPC  H12Y21749   7.381   5.805   7.809 -1.6876  1.3396 -0.9422
  188SLPC  C31321750   7.281   5.622   7.888 -0.9302  0.4197 -0.2807
  188SLPC  H13X21751   7.370   5.601   7.951 -0.1581  0.4915 -1.3298
  188SLPC  H13Y21752   7.242   5.521   7.864  1.3806 -1.3186  2.6408
  188SLPC  C31421753   7.178   5.699   7.976  0.0351 -0.9898  0.6484
  188SLPC  H14X21754   7.113   5.748   7.901  1.5737  0.4643  0.2202
  188SLPC  H14Y21755   7.226   5.773   8.043 -1.0040  1.0093 -0.7006
  188SLPC  C31521756   7.082   5.604   8.058 -0.4231 -0.4845  0.7839
  188SLPC  H15X21757   7.150   5.561   8.134 -1.0760  1.0155  2.2931
  188SLPC  H15Y21758   7.060   5.528   7.980 -1.3675 -0.2499  0.8034
  188SLPC  C31621759   6.964   5.659   8.132 -0.3906  0.1581  0.6534
  188SLPC  H16X21760   6.884   5.669   8.055  0.5569 -2.2392 -0.7408
  188SLPC  H16Y21761   6.977   5.759   8.179  1.0868 -1.6712  4.6357
  188SLPC  C31721762   6.919   5.567   8.249 -1.0111  0.1581 -0.6192
  188SLPC  H17X21763   6.844   5.626   8.307 -0.7577 -0.7794  0.6780
  188SLPC  H17Y21764   6.998   5.554   8.325 -2.2994 -0.1934  0.6984
  188SLPC  C31821765   6.862   5.433   8.206  0.7129  0.2620  0.0647
  188SLPC  H18X21766   6.781   5.446   8.131  2.2064  0.6914 -1.5387
  188SLPC  H18Y21767   6.816   5.369   8.284 -0.6903 -0.3565 -1.2197
  188SLPC  H18Z21768   6.943   5.373   8.162  1.6174  1.5328 -0.0636
  189SLPC     N21769   1.682   4.214   6.125  0.3461  0.8305 -0.8534
  189SLPC   C1321770   1.722   4.346   6.071 -0.5112 -0.2033 -0.3588
  189SLPC  H13A21771   1.764   4.346   5.972  0.9268  1.6132  0.1944
  189SLPC  H13B21772   1.637   4.412   6.066 -1.1817 -0.7796  2.1047
  189SLPC  H13C21773   1.784   4.403   6.139 -1.3221  1.7680 -1.2146
  189SLPC   C1421774   1.810   4.138   6.158  0.4594 -1.4331 -0.6830
  189SLPC  H14A21775   1.866   4.197   6.229  1.2789 -1.7077 -1.0946
  189SLPC  H14B21776   1.782   4.043   6.200 -0.8826 -1.0434 -0.6232
  189SLPC  H14C21777   1.868   4.114   6.070  0.3593  0.1859 -1.2435
  189SLPC   C1521778   1.602   4.138   6.028 -0.1136 -0.3720 -0.0258
  189SLPC  H15A21779   1.505   4.179   6.007 -1.5677 -0.7269  4.7749
  189SLPC  H15B21780   1.658   4.126   5.936 -0.6090  0.8861 -0.5103
  189SLPC  H15C21781   1.580   4.040   6.069 -0.5344 -0.0134  0.6251
  189SLPC   C1221782   1.601   4.214   6.256  0.2876 -0.1694 -0.3747
  189SLPC  H12A21783   1.595   4.115   6.298  1.5168 -0.6819 -1.3223
  189SLPC  H12B21784   1.498   4.240   6.241  0.1429 -0.5911 -0.1231
  189SLPC   C1121785   1.644   4.308   6.372 -0.3226 -0.0375  0.4144
  189SLPC  H11A21786   1.743   4.277   6.410 -0.0627 -0.4507 -0.5675
  189SLPC  H11B21787   1.574   4.295   6.457  0.8087  0.5205  1.4450
  189SLPC     P21788   1.541   4.546   6.306  0.1084 -0.0694 -0.8701
  189SLPC   O1321789   1.605   4.681   6.323  0.7157 -0.2167  0.1754
  189SLPC   O1421790   1.467   4.518   6.181  0.2312 -0.4605 -0.0828
  189SLPC   O1221791   1.656   4.447   6.333  0.6031 -0.8431 -0.2062
  189SLPC   O1121792   1.442   4.516   6.416  0.2948  0.4574 -0.0533
  189SLPC    C121793   1.408   4.594   6.536 -0.0977  0.1911  0.1894
  189SLPC    HA21794   1.375   4.698   6.520 -0.7004 -0.0554 -0.2065
  189SLPC    HB21795   1.319   4.543   6.581  1.4055 -1.6837  1.2181
  189SLPC    C221796   1.517   4.576   6.643 -0.5178 -0.3936  0.5689
  189SLPC    HS21797   1.612   4.617   6.604  0.1902  1.4813  3.8142
  189SLPC   O2121798   1.546   4.446   6.682  0.4125  0.1280  0.6454
  189SLPC   C2121799   1.668   4.418   6.721  0.8239  0.1532  0.6209
  189SLPC   O2221800   1.762   4.497   6.729 -0.4225 -0.3610 -0.0691
  189SLPC   C2221801   1.682   4.274   6.749  0.2924  0.3458  0.8294
  189SLPC   H2R21802   1.594   4.217   6.712  1.6281 -0.1497 -1.8183
  189SLPC   H2S21803   1.770   4.230   6.698 -0.1375  0.6225 -0.1906
  189SLPC    C321804   1.474   4.674   6.763 -0.2128  0.5142 -0.5360
  189SLPC    HX21805   1.369   4.647   6.789  0.2341 -0.0312  0.7891
  189SLPC    HY21806   1.470   4.778   6.723 -0.2122  1.5473  1.9145
  189SLPC   O3121807   1.544   4.655   6.889  0.1166  0.5522  0.1753
  189SLPC   C3121808   1.650   4.734   6.904  0.6289 -0.9742 -0.9259
  189SLPC   O3221809   1.675   4.833   6.833  0.5942  0.5420  0.9857
  189SLPC   C3221810   1.729   4.712   7.033  0.2425 -0.0246 -1.2919
  189SLPC   H2X21811   1.819   4.777   7.029 -0.3919  0.9055 -0.9763
  189SLPC   H2Y21812   1.763   4.606   7.038  0.0013 -0.1283 -1.8491
  189SLPC   C2321813   1.701   4.254   6.893  0.2754  0.4336  0.0087
  189SLPC   H3R21814   1.801   4.297   6.917  1.0822 -0.0166 -2.3355
  189SLPC   H3S21815   1.710   4.144   6.908  2.5047  0.6291  0.4820
  189SLPC   C2421816   1.602   4.316   6.985  0.3909  1.2235  0.5242
  189SLPC   H4R21817   1.504   4.269   6.963  1.8788 -1.5454 -0.6552
  189SLPC   H4S21818   1.596   4.425   6.960 -0.6541  0.2693 -4.5452
  189SLPC   C2521819   1.638   4.284   7.133  0.0098  0.7571  0.1486
  189SLPC   H5R21820   1.579   4.348   7.201  2.0139  1.1638  1.5944
  189SLPC   H5S21821   1.745   4.292   7.160 -0.3758 -1.0751  2.5856
  189SLPC   C2621822   1.612   4.132   7.158 -0.0271 -0.0082  0.2247
  189SLPC   H6R21823   1.679   4.060   7.107  0.0878 -0.1324  0.5527
  189SLPC   H6S21824   1.513   4.109   7.112  0.6157  0.5090 -1.5097
  189SLPC   C2721825   1.616   4.116   7.309  0.1928  0.2450 -0.5097
  189SLPC   H7R21826   1.550   4.193   7.354 -0.8375 -0.0174 -1.5167
  189SLPC   H7S21827   1.720   4.135   7.342  1.0117 -1.3845 -1.9831
  189SLPC   C2821828   1.566   3.972   7.354 -0.0568 -0.5497 -0.1386
  189SLPC   H8R21829   1.616   3.942   7.449 -1.7792 -0.7792  0.7396
  189SLPC   H8S21830   1.605   3.914   7.267 -3.5705 -1.2483 -1.4210
  189SLPC   C2921831   1.414   3.964   7.360 -0.2746 -0.0520 -0.1291
  189SLPC   H9R21832   1.356   3.977   7.268  0.0184 -1.2984 -0.5074
  189SLPC  C21021833   1.346   3.940   7.469 -0.2010  0.2481 -0.3170
  189SLPC  H10R21834   1.236   3.940   7.465 -0.2396 -0.6358  0.4073
  189SLPC  C21121835   1.387   3.904   7.612 -0.2448 -0.2335  0.4180
  189SLPC  H11R21836   1.496   3.890   7.625  0.0129 -2.8844 -3.2505
  189SLPC  H11S21837   1.355   3.802   7.643  2.3413 -0.3844  3.0046
  189SLPC  C21221838   1.327   4.005   7.710 -0.1432 -0.8827 -0.2368
  189SLPC  H12R21839   1.366   4.106   7.692 -1.0089 -0.5796 -0.4892
  189SLPC  C21321840   1.243   3.970   7.810 -0.0876 -0.1834 -0.1365
  189SLPC  H13R21841   1.196   4.047   7.873 -0.6025 -0.1142 -0.5941
  189SLPC  C21421842   1.202   3.827   7.832 -0.1702  0.2724 -0.1240
  189SLPC  H14R21843   1.296   3.769   7.819  0.0965  0.5937  0.3377
  189SLPC  H14S21844   1.129   3.788   7.759 -0.8886  0.5611  0.4284
  189SLPC  C21521845   1.150   3.805   7.974  0.1360 -0.2754  0.2701
  189SLPC  H15R21846   1.098   3.885   8.031 -2.7474 -1.4658 -0.5023
  189SLPC  H15S21847   1.246   3.799   8.030 -0.1159  3.9624  1.5001
  189SLPC  C21621848   1.088   3.669   7.984  0.7154  0.3555  0.5324
  189SLPC  H16R21849   1.155   3.586   7.950  0.6094  0.1416  0.8419
  189SLPC  H16S21850   0.995   3.663   7.923  0.6511 -1.8378  0.7477
  189SLPC  C21721851   1.052   3.640   8.131  0.0363  0.3334 -0.7193
  189SLPC  H17R21852   0.985   3.723   8.159  0.8892  1.4750 -1.9226
  189SLPC  H17S21853   1.141   3.652   8.196 -0.6799 -1.3299  0.6630
  189SLPC  C21821854   0.983   3.502   8.175  0.0194 -0.1674 -0.2064
  189SLPC  H18R21855   0.884   3.474   8.133 -0.6896  0.7692  0.7669
  189SLPC  H18S21856   0.970   3.505   8.285 -3.1613 -2.0116 -0.4132
  189SLPC  H18T21857   1.051   3.417   8.157 -2.0389 -1.6748 -1.2880
  189SLPC   C3321858   1.635   4.731   7.161  0.2210 -0.0510 -0.6064
  189SLPC   H3X21859   1.568   4.643   7.155 -2.2253  1.7501 -1.4258
  189SLPC   H3Y21860   1.589   4.832   7.163  2.2139  0.8947  0.6297
  189SLPC   C3421861   1.708   4.732   7.298  0.9633 -0.3096 -0.2282
  189SLPC   H4X21862   1.766   4.827   7.292 -0.5828  0.5779 -2.2505
  189SLPC   H4Y21863   1.772   4.641   7.289 -0.9626 -1.8872  1.1537
  189SLPC   C3521864   1.618   4.713   7.416  0.4973  0.5030  0.3109
  189SLPC   H5X21865   1.587   4.606   7.411 -1.8710  1.1024  0.9905
  189SLPC   H5Y21866   1.529   4.779   7.419  1.6664  2.1014  1.3680
  189SLPC   C3621867   1.708   4.732   7.539 -0.4935  0.3466 -0.5228
  189SLPC   H6X21868   1.779   4.814   7.516  0.9741 -1.0333 -1.0712
  189SLPC   H6Y21869   1.776   4.649   7.567 -0.2003  1.1155  1.2138
  189SLPC   C3721870   1.629   4.773   7.664 -0.2961  0.2014  0.8250
  189SLPC   H7X21871   1.565   4.688   7.697 -3.9594  1.2844 -2.6271
  189SLPC   H7Y21872   1.551   4.844   7.629  0.0709  0.2869  0.1562
  189SLPC   C3821873   1.725   4.810   7.776  0.1449 -0.4378  0.0427
  189SLPC   H8X21874   1.766   4.913   7.771 -0.1152 -0.3784 -1.7624
  189SLPC   H8Y21875   1.819   4.750   7.768 -0.9964 -2.4654  1.2232
  189SLPC   C3921876   1.656   4.782   7.909  0.2869  0.9007  0.5385
  189SLPC   H9X21877   1.632   4.675   7.924  0.5723  0.7079 -0.2985
  189SLPC   H9Y21878   1.556   4.830   7.914  0.7273  1.6925  2.8154
  189SLPC  C31021879   1.732   4.828   8.030 -0.4262 -0.1085  0.8752
  189SLPC  H10X21880   1.758   4.936   8.032  4.3348 -0.9385 -1.3201
  189SLPC  H10Y21881   1.835   4.788   8.013 -1.3019 -2.6289  1.0343
  189SLPC  C31121882   1.675   4.782   8.165 -0.0719 -0.0573 -0.1310
  189SLPC  H11X21883   1.759   4.768   8.237  0.8260 -1.2914 -1.3673
  189SLPC  H11Y21884   1.628   4.682   8.174 -0.2379  0.2062  3.6765
  189SLPC  C31221885   1.575   4.888   8.218  0.4127 -0.4521 -0.0941
  189SLPC  H12X21886   1.492   4.906   8.148  1.3447  1.5495 -0.7666
  189SLPC  H12Y21887   1.630   4.984   8.221 -1.4508  0.6530  0.0778
  189SLPC  C31321888   1.519   4.867   8.360 -0.5378 -0.7163 -0.2138
  189SLPC  H13X21889   1.479   4.763   8.366  1.0657 -1.4627 -1.6500
  189SLPC  H13Y21890   1.441   4.945   8.377 -0.9064 -0.3173 -3.2521
  189SLPC  C31421891   1.638   4.893   8.463  0.0693 -0.5441 -0.8600
  189SLPC  H14X21892   1.668   5.000   8.458 -2.1370  0.0673 -2.6558
  189SLPC  H14Y21893   1.728   4.832   8.441  0.5591 -0.3565  0.4872
  189SLPC  C31521894   1.592   4.873   8.609 -0.3843  0.3576 -0.3532
  189SLPC  H15X21895   1.534   4.778   8.611  2.1016 -1.2504  1.5688
  189SLPC  H15Y21896   1.523   4.958   8.632  1.5794  2.4319 -1.6881
  189SLPC  C31621897   1.708   4.870   8.716  0.4929 -0.4167  0.4537
  189SLPC  H16X21898   1.769   4.777   8.715 -2.1298 -2.2457 -0.2383
  189SLPC  H16Y21899   1.649   4.883   8.809 -1.2986  2.3210 -0.9557
  189SLPC  C31721900   1.800   4.992   8.715  0.2132 -0.3426 -0.9989
  189SLPC  H17X21901   1.742   5.086   8.718  1.0172  0.2929 -3.2094
  189SLPC  H17Y21902   1.862   4.997   8.623  2.2742 -0.6031  0.2914
  189SLPC  C31821903   1.907   4.997   8.826 -0.0948  0.4472 -0.6372
  189SLPC  H18X21904   1.864   5.001   8.929 -0.9041 -0.9746 -0.8903
  189SLPC  H18Y21905   1.986   5.072   8.804  2.3237 -0.9513  2.4371
  189SLPC  H18Z21906   1.967   4.904   8.833 -0.1550  0.5281  2.5155
  190SLPC     N21907   3.797   3.767   6.396 -0.0899 -0.3616  0.1374
  190SLPC   C1321908   3.915   3.854   6.404 -0.7555 -0.2748  0.0100
  190SLPC  H13A21909   3.975   3.843   6.494  0.4082  1.6539 -0.4608
  190SLPC  H13B21910   3.978   3.831   6.320  0.0452  0.9944  0.2323
  190SLPC  H13C21911   3.880   3.956   6.413 -3.0298 -1.1257  1.6404
  190SLPC   C1421912   3.847   3.628   6.407  0.1960  0.3870 -0.2208
  190SLPC  H14A21913   3.872   3.601   6.508  0.7043  0.1386 -0.4062
  190SLPC  H14B21914   3.772   3.553   6.385  0.4946 -0.4095  1.3556
  190SLPC  H14C21915   3.935   3.610   6.346  1.0796 -0.9234  1.3800
  190SLPC   C1521916   3.725   3.781   6.259 -0.3383 -0.1336  0.6474
  190SLPC  H15A21917   3.667   3.872   6.259 -0.7916 -0.4103 -0.2843
  190SLPC  H15B21918   3.791   3.781   6.173 -1.6988  0.7971 -0.4286
  190SLPC  H15C21919   3.658   3.697   6.250 -0.9614  0.4821 -0.6612
  190SLPC   C1221920   3.702   3.784   6.512  0.2274 -0.2523 -0.6402
  190SLPC  H12A21921   3.765   3.761   6.597  2.3166  0.1379 -2.0121
  190SLPC  H12B21922   3.622   3.712   6.511  0.9561 -1.1118  0.3415
  190SLPC   C1121923   3.647   3.925   6.540  0.1778 -0.1022  0.5885
  190SLPC  H11A21924   3.732   3.987   6.577  0.0162  0.8229 -0.5291
  190SLPC  H11B21925   3.568   3.910   6.617  0.9015  0.4059  1.4527
  190SLPC     P21926   3.442   4.007   6.394 -0.2401  0.0028  0.3423
  190SLPC   O1321927   3.426   4.099   6.280 -0.0313  0.4378 -0.2651
  190SLPC   O1421928   3.369   3.880   6.381  0.5486  0.0428  0.0544
  190SLPC   O1221929   3.591   3.974   6.420  0.0017 -0.2432 -0.2685
  190SLPC   O1121930   3.405   4.075   6.533 -0.3458  0.5843  0.3670
  190SLPC    C121931   3.477   4.169   6.609  0.5004 -0.0194  0.2283
  190SLPC    HA21932   3.588   4.158   6.605  0.6902  1.6461  0.2499
  190SLPC    HB21933   3.467   4.272   6.570  0.3714  0.3610  1.2420
  190SLPC    C221934   3.441   4.165   6.757  0.4175 -0.5858  1.0739
  190SLPC    HS21935   3.497   4.074   6.789  1.1502 -1.5693 -2.5915
  190SLPC   O2121936   3.298   4.150   6.768  0.0089 -0.4087 -0.0903
  190SLPC   C2121937   3.252   4.034   6.788 -0.0377  0.2024 -0.1413
  190SLPC   O2221938   3.321   3.931   6.788 -0.1204 -0.1316  0.1244
  190SLPC   C2221939   3.102   4.038   6.805 -1.0340  0.7524 -0.1847
  190SLPC   H2R21940   3.067   4.138   6.770  0.7054  0.6397 -2.4567
  190SLPC   H2S21941   3.068   3.971   6.723 -0.1429  0.3346 -0.2188
  190SLPC    C321942   3.480   4.292   6.826 -0.0555  0.7361 -0.1067
  190SLPC    HX21943   3.433   4.378   6.773  0.2184  0.4662 -0.7981
  190SLPC    HY21944   3.589   4.305   6.809  0.2981  1.1470  2.2138
  190SLPC   O3121945   3.460   4.312   6.971  0.6798  0.4146 -0.3059
  190SLPC   C3121946   3.540   4.238   7.041  0.1974 -0.3455 -0.7523
  190SLPC   O3221947   3.632   4.167   7.007  0.0404 -0.4113 -0.2465
  190SLPC   C3221948   3.494   4.255   7.194 -0.1257 -0.5430  0.5108
  190SLPC   H2X21949   3.395   4.207   7.212 -0.0929 -0.7523  0.1514
  190SLPC   H2Y21950   3.489   4.359   7.232 -0.8358  0.0124 -1.0322
  190SLPC   C2321951   3.039   3.996   6.937 -0.5690  0.2757  0.3703
  190SLPC   H3R21952   3.081   3.894   6.950  1.9017  0.8657 -2.0208
  190SLPC   H3S21953   2.928   3.997   6.931 -0.4932  0.2609 -2.0787
  190SLPC   C2421954   3.090   4.066   7.059  0.0593  0.1641  0.4490
  190SLPC   H4R21955   3.063   4.174   7.061 -1.1816 -0.1103  2.6286
  190SLPC   H4S21956   3.201   4.067   7.067  0.0160  1.5427  1.2015
  190SLPC   C2521957   3.050   4.009   7.194 -0.4978 -0.3642 -0.2876
  190SLPC   H5R21958   3.064   3.899   7.199  3.4024  0.0448  1.7329
  190SLPC   H5S21959   2.944   4.041   7.194 -1.0173 -1.7635 -3.2566
  190SLPC   C2621960   3.131   4.061   7.314 -0.2955  0.0244 -1.1575
  190SLPC   H6R21961   3.143   4.172   7.312 -2.8034  0.5252  2.2648
  190SLPC   H6S21962   3.235   4.022   7.309  0.3048  1.2523  0.5984
  190SLPC   C2721963   3.074   4.004   7.444  0.3429 -1.0494  0.0256
  190SLPC   H7R21964   3.153   4.006   7.522  1.3045  0.4210 -0.9181
  190SLPC   H7S21965   3.048   3.899   7.418 -0.0244 -1.3675  1.5827
  190SLPC   C2821966   2.962   4.099   7.483  0.7219 -0.1905 -1.1011
  190SLPC   H8R21967   2.887   4.102   7.401  1.8718  1.9953 -2.1523
  190SLPC   H8S21968   3.008   4.200   7.491 -2.1898  1.1547 -0.0090
  190SLPC   C2921969   2.891   4.050   7.607 -0.0263 -0.0624 -0.1185
  190SLPC   H9R21970   2.791   4.012   7.585 -0.7552  0.6234  1.7807
  190SLPC  C21021971   2.920   4.069   7.733  0.2154 -0.2013  0.2289
  190SLPC  H10R21972   2.866   4.011   7.809 -0.3799  0.0899  0.0339
  190SLPC  C21121973   3.038   4.156   7.782 -0.2780  0.1060 -0.2410
  190SLPC  H11R21974   2.994   4.249   7.825  1.6868  0.7877  0.3916
  190SLPC  H11S21975   3.095   4.177   7.688  2.3196 -0.7025  1.0721
  190SLPC  C21221976   3.130   4.085   7.880  0.0456  0.5554 -0.0338
  190SLPC  H12R21977   3.199   4.009   7.842 -1.8455 -0.2948 -1.9877
  190SLPC  C21321978   3.125   4.106   8.008  0.1026 -0.4042 -0.1736
  190SLPC  H13R21979   3.193   4.058   8.080 -0.5813 -1.2328 -0.0622
  190SLPC  C21421980   3.033   4.206   8.082 -0.0350  0.5344 -0.6413
  190SLPC  H14R21981   2.927   4.178   8.067  0.1235 -0.1066 -0.5685
  190SLPC  H14S21982   3.056   4.306   8.040  0.0813  0.6186 -0.3800
  190SLPC  C21521983   3.049   4.237   8.233  0.1593 -0.9375 -0.6534
  190SLPC  H15R21984   3.014   4.341   8.244  0.0774 -0.9350 -0.9298
  190SLPC  H15S21985   3.157   4.223   8.255 -0.0426  0.1972  1.3011
  190SLPC  C21621986   2.964   4.147   8.316  0.0985  0.5435  0.6696
  190SLPC  H16R21987   2.984   4.041   8.289 -0.0616  0.4672  0.8504
  190SLPC  H16S21988   2.857   4.165   8.295 -0.0598  0.0724  1.0584
  190SLPC  C21721989   2.976   4.171   8.465  0.3147  0.4128  0.0839
  190SLPC  H17R21990   2.947   4.278   8.475 -0.3030  0.2895 -0.3640
  190SLPC  H17S21991   3.080   4.140   8.490  0.3946 -0.2397 -1.0079
  190SLPC  C21821992   2.871   4.091   8.548 -0.8614 -0.9348  0.0724
  190SLPC  H18R21993   2.899   3.984   8.558 -0.3646 -0.7719  0.4599
  190SLPC  H18S21994   2.770   4.118   8.511 -0.4643 -1.0031 -1.1271
  190SLPC  H18T21995   2.876   4.142   8.646 -0.2026 -1.3953  0.2800
  190SLPC   C3321996   3.589   4.182   7.300 -0.4668 -0.1173  0.0263
  190SLPC   H3X21997   3.689   4.229   7.310 -1.6408  2.1048  2.6958
  190SLPC   H3Y21998   3.590   4.079   7.257  1.8897  0.9767 -2.8300
  190SLPC   C3421999   3.521   4.164   7.433  0.0587 -0.0740 -0.0510
  190SLPC   H4X22000   3.574   4.078   7.480 -2.0958  0.4956  3.8273
  190SLPC   H4Y22001   3.417   4.130   7.411 -0.4931  0.8347  1.0625
  190SLPC   C3522002   3.525   4.289   7.521  0.0906  0.1935 -0.7398
  190SLPC   H5X22003   3.485   4.375   7.463 -1.2462 -0.2417 -0.5024
  190SLPC   H5Y22004   3.631   4.311   7.548 -0.0075 -0.8793  0.6508
  190SLPC   C3622005   3.448   4.256   7.658  0.3353  0.1438 -0.7936
  190SLPC   H6X22006   3.482   4.157   7.695 -0.0870  0.7257  1.2814
  190SLPC   H6Y22007   3.338   4.247   7.641  0.4739 -0.2185 -1.5297
  190SLPC   C3722008   3.466   4.370   7.758 -0.3403 -0.7121  0.2193
  190SLPC   H7X22009   3.435   4.468   7.717  0.1484  0.8020  3.1389
  190SLPC   H7Y22010   3.575   4.373   7.780  0.2438  0.6591 -2.4578
  190SLPC   C3822011   3.391   4.354   7.892  0.1976 -0.1089 -0.2352
  190SLPC   H8X22012   3.414   4.260   7.946 -0.8500 -0.3413 -0.1642
  190SLPC   H8Y22013   3.282   4.358   7.869  0.0049  0.4792  0.7220
  190SLPC   C3922014   3.415   4.471   7.978 -0.0126 -0.1087  0.3409
  190SLPC   H9X22015   3.395   4.561   7.915 -1.2798 -0.8594 -0.3792
  190SLPC   H9Y22016   3.523   4.471   8.004  0.4097  0.4815 -1.2984
  190SLPC  C31022017   3.317   4.487   8.091  0.0489 -0.4882  0.9577
  190SLPC  H10X22018   3.315   4.395   8.153  0.7855  0.5869  2.6614
  190SLPC  H10Y22019   3.210   4.496   8.060  0.5214 -1.6031 -1.1797
  190SLPC  C31122020   3.355   4.610   8.175  0.5417  0.0457 -0.3284
  190SLPC  H11X22021   3.349   4.704   8.116 -0.5362 -0.0714 -0.4248
  190SLPC  H11Y22022   3.462   4.591   8.198  0.3226 -0.0279  0.6640
  190SLPC  C31222023   3.266   4.613   8.304 -0.5422 -1.0015  0.3812
  190SLPC  H12X22024   3.322   4.540   8.365 -0.3894 -2.2967 -1.2404
  190SLPC  H12Y22025   3.161   4.580   8.287 -0.2045 -2.0027  0.1888
  190SLPC  C31322026   3.258   4.752   8.386 -0.0311  0.0696 -0.7711
  190SLPC  H13X22027   3.222   4.718   8.485 -0.7491 -2.4458 -1.8311
  190SLPC  H13Y22028   3.175   4.813   8.343 -0.4274  0.0855  0.0037
  190SLPC  C31422029   3.396   4.810   8.398 -0.0915  0.3206 -0.0149
  190SLPC  H14X22030   3.452   4.821   8.303 -1.3125 -2.8924 -1.2485
  190SLPC  H14Y22031   3.449   4.743   8.469  0.2441  1.2505  0.6299
  190SLPC  C31522032   3.385   4.950   8.464 -0.0239  0.0329  0.1320
  190SLPC  H15X22033   3.355   4.931   8.569  1.2277 -0.4423  0.4209
  190SLPC  H15Y22034   3.305   5.005   8.409  0.5767 -1.1092 -2.0282
  190SLPC  C31622035   3.517   5.037   8.450  0.0780 -0.0480 -0.3305
  190SLPC  H16X22036   3.563   5.028   8.349 -3.4566 -0.6812 -2.0612
  190SLPC  H16Y22037   3.587   4.992   8.523 -1.3917 -2.7936 -0.5079
  190SLPC  C31722038   3.477   5.185   8.481  0.3762  0.8440 -0.3187
  190SLPC  H17X22039   3.562   5.244   8.520  0.4881 -0.1190  0.9683
  190SLPC  H17Y22040   3.397   5.191   8.558  0.9029 -0.7309  0.3924
  190SLPC  C31822041   3.421   5.241   8.349  0.1689  0.5912  0.1362
  190SLPC  H18X22042   3.334   5.184   8.311  0.5978 -1.0653  1.5204
  190SLPC  H18Y22043   3.501   5.235   8.273  0.6237 -0.1956  0.6616
  190SLPC  H18Z22044   3.379   5.344   8.351  1.4299  1.2448 -2.6933
  191SLPC     N22045   0.356   0.611   5.424 -0.7631  0.1392 -0.6334
  191SLPC   C1322046   0.322   0.643   5.279 -0.0249  0.7602 -0.4717
  191SLPC  H13A22047   0.390   0.596   5.210  0.0655 -0.3493  0.3536
  191SLPC  H13B22048   0.229   0.598   5.246  0.7096 -0.9695 -0.2578
  191SLPC  H13C22049   0.305   0.749   5.265 -3.3082  0.0649 -3.2989
  191SLPC   C1422050   0.242   0.646   5.507 -0.0026  0.0127 -0.9001
  191SLPC  H14A22051   0.262   0.621   5.610 -2.9587 -1.0029 -0.4704
  191SLPC  H14B22052   0.215   0.750   5.495  1.1475  0.4338 -0.0401
  191SLPC  H14C22053   0.154   0.585   5.489 -0.3029  0.4456 -0.9200
  191SLPC   C1522054   0.479   0.678   5.447  0.6577  0.3002 -0.1105
  191SLPC  H15A22055   0.461   0.784   5.434  3.4260  0.6423 -1.9476
  191SLPC  H15B22056   0.524   0.662   5.544  1.5952  0.1149 -0.5685
  191SLPC  H15C22057   0.553   0.644   5.376 -2.0769 -1.4737 -2.3380
  191SLPC   C1222058   0.375   0.456   5.436 -0.7241  0.2610  0.0150
  191SLPC  H12A22059   0.471   0.435   5.391  0.6629  0.0905  2.8120
  191SLPC  H12B22060   0.295   0.414   5.378  1.0915  2.5144 -4.6769
  191SLPC   C1122061   0.397   0.393   5.571 -0.3117 -0.2846 -0.1750
  191SLPC  H11A22062   0.392   0.282   5.578  0.4288 -0.2536  1.0956
  191SLPC  H11B22063   0.317   0.422   5.642  0.7819  0.2883  0.8591
  191SLPC     P22064   0.534   0.523   5.763  0.4674  0.0488  0.2150
  191SLPC   O1322065   0.427   0.466   5.845 -0.2085  0.1904  0.1424
  191SLPC   O1422066   0.668   0.491   5.811 -0.1502 -0.6421 -0.0065
  191SLPC   O1222067   0.520   0.452   5.620 -0.0148 -0.2841 -0.9386
  191SLPC   O1122068   0.525   0.679   5.735 -0.2506  0.1173  0.6398
  191SLPC    C122069   0.423   0.759   5.782 -0.1217 -0.1220 -0.3612
  191SLPC    HA22070   0.387   0.831   5.705 -0.5687  0.0989  0.0520
  191SLPC    HB22071   0.341   0.690   5.811 -0.0377 -0.8122 -1.6937
  191SLPC    C222072   0.469   0.831   5.911 -0.3093 -0.0734  0.2413
  191SLPC    HS22073   0.567   0.877   5.884  0.0941  0.3102  2.2300
  191SLPC   O2122074   0.481   0.734   6.017 -0.4884  0.3721 -0.3110
  191SLPC   C2122075   0.569   0.762   6.115  0.0690 -0.6676  0.6540
  191SLPC   O2222076   0.639   0.864   6.120  0.1679  0.4347  0.5227
  191SLPC   C2222077   0.556   0.650   6.214  0.3731  0.1980 -0.1253
  191SLPC   H2R22078   0.502   0.563   6.171  0.5162 -0.0252  0.1436
  191SLPC   H2S22079   0.656   0.611   6.243  0.8517  0.9543 -0.7401
  191SLPC    C322080   0.365   0.947   5.956 -0.3691  0.3111  0.4069
  191SLPC    HX22081   0.266   0.897   5.951 -0.5626  0.7654 -0.6224
  191SLPC    HY22082   0.365   1.022   5.874  0.8942  1.3234  1.3001
  191SLPC   O3122083   0.394   1.012   6.079 -0.6208 -1.1188 -0.4843
  191SLPC   C3122084   0.293   1.055   6.155 -0.1404  0.0832  0.3272
  191SLPC   O3222085   0.171   1.035   6.128 -0.6105  0.1758 -0.8720
  191SLPC   C3222086   0.353   1.127   6.271 -0.9289  0.1269 -1.6093
  191SLPC   H2X22087   0.395   1.225   6.239  0.7736  0.9144  2.4031
  191SLPC   H2Y22088   0.444   1.071   6.300  0.4313  1.3006 -3.3713
  191SLPC   C2322089   0.478   0.691   6.349 -0.0228 -0.0118 -0.2479
  191SLPC   H3R22090   0.412   0.608   6.382  0.5641  0.2540  1.7471
  191SLPC   H3S22091   0.404   0.771   6.326 -0.9952  0.0926  2.7640
  191SLPC   C2422092   0.571   0.724   6.467  0.6144 -0.4700  0.5954
  191SLPC   H4R22093   0.619   0.630   6.502 -0.3637 -0.0890  3.1712
  191SLPC   H4S22094   0.501   0.760   6.545 -1.4130  1.5862 -1.9852
  191SLPC   C2522095   0.668   0.840   6.439 -0.5047  0.5151  0.5819
  191SLPC   H5R22096   0.608   0.925   6.401 -0.9226 -0.2311 -0.4681
  191SLPC   H5S22097   0.748   0.803   6.372 -0.2107  0.6515  0.8531
  191SLPC   C2622098   0.759   0.889   6.563 -0.0320 -0.7945 -0.1889
  191SLPC   H6R22099   0.824   0.968   6.520 -0.0970 -0.4997  0.2476
  191SLPC   H6S22100   0.826   0.813   6.609  0.0623  0.3436  1.6344
  191SLPC   C2722101   0.669   0.958   6.667  0.4424 -0.0127  1.0662
  191SLPC   H7R22102   0.577   0.904   6.696 -0.3075  0.6850  0.0481
  191SLPC   H7S22103   0.627   1.056   6.636 -0.5018 -0.3863  1.1297
  191SLPC   C2822104   0.753   0.979   6.799  0.6183 -0.6068  0.3978
  191SLPC   H8R22105   0.855   1.008   6.768  0.5400  1.4793  1.8421
  191SLPC   H8S22106   0.753   0.881   6.850 -0.5825 -0.0307  1.5709
  191SLPC   C2922107   0.697   1.084   6.881  0.0801  0.8861 -0.3282
  191SLPC   H9R22108   0.598   1.050   6.914  0.6565  0.2441  0.8091
  191SLPC  C21022109   0.753   1.205   6.922  0.8540  1.2525 -0.2205
  191SLPC  H10R22110   0.682   1.265   6.980 -1.0724 -0.3094 -0.8540
  191SLPC  C21122111   0.880   1.256   6.865 -0.4481 -0.3675 -0.2460
  191SLPC  H11R22112   0.891   1.238   6.756  1.0763 -1.7357  0.0983
  191SLPC  H11S22113   0.969   1.209   6.912  0.4173  0.8060 -0.6442
  191SLPC  C21222114   0.901   1.410   6.876 -0.7999  0.3762 -0.1844
  191SLPC  H12R22115   0.815   1.470   6.909 -1.5023  0.5113 -2.1600
  191SLPC  C21322116   1.020   1.473   6.856 -0.0405  0.3392 -0.5614
  191SLPC  H13R22117   1.019   1.583   6.862 -0.0117  0.3089  0.0954
  191SLPC  C21422118   1.148   1.406   6.804  1.0375 -0.0361 -0.3864
  191SLPC  H14R22119   1.185   1.458   6.713  3.4863  1.1221  1.1847
  191SLPC  H14S22120   1.119   1.304   6.767 -0.7854  0.3940 -0.2607
  191SLPC  C21522121   1.266   1.410   6.899 -0.3719  0.8205 -0.6886
  191SLPC  H15R22122   1.348   1.346   6.861  0.5293  0.6404  1.4447
  191SLPC  H15S22123   1.238   1.367   6.997  0.8190  1.4050 -0.0765
  191SLPC  C21622124   1.328   1.543   6.928  0.2444  0.0875 -0.1905
  191SLPC  H16R22125   1.412   1.530   6.999  0.7411 -0.8470 -0.9203
  191SLPC  H16S22126   1.265   1.617   6.980 -0.8773  0.9410 -2.5963
  191SLPC  C21722127   1.379   1.627   6.812  0.0955  0.0881  0.0562
  191SLPC  H17R22128   1.296   1.655   6.743 -0.3607 -0.4186  0.3888
  191SLPC  H17S22129   1.453   1.562   6.761  0.4370 -1.8483  2.8311
  191SLPC  C21822130   1.451   1.762   6.845  0.2702 -0.1920  0.6007
  191SLPC  H18R22131   1.390   1.812   6.924 -1.2288  0.1290 -0.7045
  191SLPC  H18S22132   1.459   1.829   6.757  1.5593 -0.5697  0.4137
  191SLPC  H18T22133   1.556   1.743   6.876  1.4857  3.3597 -0.7893
  191SLPC   C3322134   0.256   1.132   6.391 -0.3901 -0.3708  0.6890
  191SLPC   H3X22135   0.190   1.043   6.407  0.1061 -0.9745 -0.4957
  191SLPC   H3Y22136   0.188   1.218   6.372 -0.9622 -0.4091  2.3683
  191SLPC   C3422137   0.336   1.158   6.519 -0.2438  0.0194  0.1530
  191SLPC   H4X22138   0.360   1.267   6.521 -1.1786  0.2209  1.2151
  191SLPC   H4Y22139   0.431   1.101   6.528 -0.4023 -0.3321 -0.3350
  191SLPC   C3522140   0.244   1.145   6.635 -0.4801  0.1672  0.1017
  191SLPC   H5X22141   0.217   1.037   6.639  0.7847 -0.1794 -0.1960
  191SLPC   H5Y22142   0.149   1.195   6.609  0.0789 -0.9545 -5.0423
  191SLPC   C3622143   0.294   1.185   6.775  0.4423 -0.0546  0.0535
  191SLPC   H6X22144   0.313   1.294   6.777 -0.2334  0.1468 -2.2012
  191SLPC   H6Y22145   0.389   1.129   6.787  1.0120  0.3521 -2.1415
  191SLPC   C3722146   0.180   1.137   6.870  0.0406 -0.5140  0.6573
  191SLPC   H7X22147   0.162   1.028   6.860 -0.3862 -0.4713  0.9538
  191SLPC   H7Y22148   0.094   1.197   6.834  0.0685 -1.8680 -1.9449
  191SLPC   C3822149   0.191   1.167   7.012 -0.4350  0.2206  0.4112
  191SLPC   H8X22150   0.274   1.108   7.056 -0.4652  0.2998  0.5793
  191SLPC   H8Y22151   0.096   1.155   7.068 -0.3698 -0.2106  0.4254
  191SLPC   C3922152   0.246   1.312   7.023 -0.0082 -0.5669 -0.0137
  191SLPC   H9X22153   0.186   1.388   6.969  1.0765  1.3855  1.3928
  191SLPC   H9Y22154   0.351   1.321   6.990  0.0162  0.0426  0.2025
  191SLPC  C31022155   0.242   1.364   7.166 -0.1346 -0.2131  0.1400
  191SLPC  H10X22156   0.146   1.342   7.218  0.9623 -1.9772  1.5333
  191SLPC  H10Y22157   0.262   1.473   7.160  2.8928 -0.7622 -1.2527
  191SLPC  C31122158   0.361   1.300   7.246  0.3832 -0.3910  0.0551
  191SLPC  H11X22159   0.455   1.322   7.192  0.6222 -0.2833  0.5109
  191SLPC  H11Y22160   0.350   1.189   7.245  0.1918 -0.4482  2.4517
  191SLPC  C31222161   0.367   1.343   7.396 -0.1700 -0.1156  0.2087
  191SLPC  H12X22162   0.464   1.297   7.425  0.6881  1.9052  0.7196
  191SLPC  H12Y22163   0.293   1.284   7.454  2.5367 -0.5547  3.5696
  191SLPC  C31322164   0.360   1.489   7.416  0.8826 -0.1063  0.1368
  191SLPC  H13X22165   0.261   1.522   7.380  1.3006 -1.6349 -2.7048
  191SLPC  H13Y22166   0.428   1.549   7.352  0.6185 -1.6832 -1.7232
  191SLPC  C31422167   0.393   1.542   7.561 -0.5449  0.0219  0.0120
  191SLPC  H14X22168   0.293   1.528   7.609 -0.1449 -4.1861 -0.0558
  191SLPC  H14Y22169   0.418   1.651   7.561 -1.5741  0.2769 -0.0101
  191SLPC  C31522170   0.484   1.456   7.640  0.0558  0.5917 -0.3813
  191SLPC  H15X22171   0.593   1.443   7.623  0.8047  1.6728  2.7965
  191SLPC  H15Y22172   0.433   1.358   7.650 -0.0023  0.6632  0.0419
  191SLPC  C31622173   0.504   1.497   7.782  0.1456  0.4271  0.0876
  191SLPC  H16X22174   0.411   1.519   7.837 -0.0626 -2.0873  0.8364
  191SLPC  H16Y22175   0.571   1.586   7.777  2.2728 -1.0483  0.6934
  191SLPC  C31722176   0.575   1.384   7.869 -0.2982  0.1713 -0.0770
  191SLPC  H17X22177   0.682   1.393   7.839 -0.4072  1.0611 -0.2337
  191SLPC  H17Y22178   0.524   1.289   7.842 -3.2743  0.9199  2.4476
  191SLPC  C31822179   0.567   1.408   8.025  0.0782 -0.1919  0.1183
  191SLPC  H18X22180   0.585   1.307   8.068 -0.4365 -1.5726 -2.7390
  191SLPC  H18Y22181   0.464   1.445   8.043 -0.5200 -0.5103 -2.4098
  191SLPC  H18Z22182   0.642   1.486   8.053 -1.3084  0.8485  1.0707
  192SLPC     N22183   0.053   5.771   5.889 -0.5135 -0.0112 -0.2647
  192SLPC   C1322184  -0.045   5.757   5.779  0.0747 -0.1290  0.0171
  192SLPC  H13A22185  -0.149   5.758   5.808  0.2171 -0.5594  0.5733
  192SLPC  H13B22186  -0.036   5.839   5.709  2.3054 -0.5629 -0.2690
  192SLPC  H13C22187  -0.018   5.673   5.718 -3.1105 -1.5861  0.4267
  192SLPC   C1422188   0.188   5.788   5.823 -0.7846  0.2577  0.5554
  192SLPC  H14A22189   0.191   5.877   5.762 -2.6805 -0.9568 -1.4802
  192SLPC  H14B22190   0.259   5.795   5.903 -1.5308  0.4398  1.2064
  192SLPC  H14C22191   0.209   5.706   5.755  2.7887  2.2307 -1.0198
  192SLPC   C1522192   0.044   5.642   5.963  0.7440 -0.1337 -0.1332
  192SLPC  H15A22193   0.055   5.560   5.893  2.3246  1.3669 -1.7579
  192SLPC  H15B22194   0.123   5.632   6.036  0.9442  1.0382 -0.1768
  192SLPC  H15C22195  -0.047   5.622   6.016 -0.1898 -1.0784 -1.9728
  192SLPC   C1222196   0.018   5.878   5.990 -0.4128  0.1180  0.1240
  192SLPC  H12A22197  -0.074   5.849   6.039  0.0577 -0.8218  0.4666
  192SLPC  H12B22198   0.012   5.969   5.932  2.3367  0.1465 -0.2596
  192SLPC   C1122199   0.122   5.916   6.102 -0.6077 -0.4092 -0.0265
  192SLPC  H11A22200   0.185   5.829   6.130  1.7269  1.4453  0.8303
  192SLPC  H11B22201   0.081   5.957   6.197  2.4008  0.4504  1.0139
  192SLPC     P22202   0.352   6.047   6.101 -0.5657 -0.3164  0.2093
  192SLPC   O1322203   0.427   5.929   6.061 -0.0681 -0.2740  0.1569
  192SLPC   O1422204   0.402   6.184   6.065  0.2978 -0.1769  0.3246
  192SLPC   O1222205   0.203   6.028   6.046 -0.5123 -0.7921 -0.4213
  192SLPC   O1122206   0.331   6.044   6.260  0.2256  0.2165 -0.0434
  192SLPC    C122207   0.368   6.162   6.344 -0.0040 -0.0116  0.0932
  192SLPC    HA22208   0.477   6.181   6.340 -0.0728  0.2300 -0.7394
  192SLPC    HB22209   0.326   6.253   6.297  3.1199  2.0850  1.0546
  192SLPC    C222210   0.321   6.137   6.491 -0.4584 -0.1851 -0.1253
  192SLPC    HS22211   0.390   6.059   6.529  0.2954  0.3512 -0.3730
  192SLPC   O2122212   0.190   6.091   6.505  0.1793  0.2725 -0.2979
  192SLPC   C2122213   0.091   6.165   6.461  0.4626  0.1430 -0.2359
  192SLPC   O2222214   0.097   6.263   6.391 -0.2953 -0.3368  0.0489
  192SLPC   C2222215  -0.042   6.120   6.514  0.0678  0.3053 -0.5340
  192SLPC   H2R22216  -0.064   6.180   6.605 -1.6503 -2.7409  1.2295
  192SLPC   H2S22217  -0.115   6.143   6.434  0.4551 -0.0968 -1.0088
  192SLPC    C322218   0.350   6.270   6.580  0.1571 -0.6550  0.6153
  192SLPC    HX22219   0.283   6.353   6.551 -0.6459 -0.9281  1.6341
  192SLPC    HY22220   0.454   6.304   6.563  0.5813 -1.7008  1.0488
  192SLPC   O3122221   0.345   6.238   6.723 -0.0559  0.0823 -0.6389
  192SLPC   C3122222   0.219   6.262   6.777 -0.0125 -0.2118  0.2037
  192SLPC   O3222223   0.126   6.309   6.711  0.2587 -0.3084  0.2681
  192SLPC   C3222224   0.227   6.244   6.928  0.0772  0.3095  0.0291
  192SLPC   H2X22225   0.315   6.294   6.974  0.0892 -0.0783  0.4373
  192SLPC   H2Y22226   0.248   6.135   6.937  0.3799  0.4772  1.4807
  192SLPC   C2322227  -0.054   5.972   6.559 -0.3673 -0.7972  0.2880
  192SLPC   H3R22228  -0.009   5.912   6.477  0.2328 -0.1484  0.1367
  192SLPC   H3S22229  -0.161   5.944   6.565 -0.8105 -0.0689 -2.7449
  192SLPC   C2422230  -0.006   5.951   6.700 -0.6763 -0.9970 -0.0274
  192SLPC   H4R22231  -0.023   6.035   6.770  2.4999 -0.7618  0.6320
  192SLPC   H4S22232   0.105   5.960   6.691 -0.8350  2.1894  0.0558
  192SLPC   C2522233  -0.050   5.819   6.761 -0.3664  0.3934 -0.1507
  192SLPC   H5R22234  -0.014   5.728   6.709 -0.4337  0.1229  0.2729
  192SLPC   H5S22235  -0.161   5.811   6.763 -0.4168 -0.3723  4.5617
  192SLPC   C2622236  -0.024   5.820   6.902  0.3486 -0.2641  0.3158
  192SLPC   H6R22237  -0.059   5.918   6.942 -3.1182 -0.8146 -1.0963
  192SLPC   H6S22238   0.087   5.828   6.913  0.1394  3.1963  1.0322
  192SLPC   C2722239  -0.085   5.706   6.980  0.9224 -0.3688 -0.5974
  192SLPC   H7R22240  -0.029   5.616   6.948  3.5357  0.6732  0.6773
  192SLPC   H7S22241  -0.193   5.698   6.958  0.3905  1.7086  0.9273
  192SLPC   C2822242  -0.060   5.731   7.127  0.5829 -0.0589  1.3649
  192SLPC   H8R22243  -0.130   5.816   7.146 -0.7353 -1.1564  1.5742
  192SLPC   H8S22244   0.043   5.770   7.141  1.3018 -1.2063 -0.4951
  192SLPC   C2922245  -0.092   5.616   7.213 -0.6155  0.0965 -0.0610
  192SLPC   H9R22246  -0.166   5.547   7.169  0.0033  0.2133 -1.3227
  192SLPC  C21022247  -0.023   5.579   7.321 -0.4829  0.1812 -0.1010
  192SLPC  H10R22248  -0.044   5.483   7.370 -1.6082  1.0063  1.1134
  192SLPC  C21122249   0.103   5.646   7.376 -0.4605  0.4798  0.0070
  192SLPC  H11R22250   0.072   5.746   7.413  1.8555  1.7223 -1.1538
  192SLPC  H11S22251   0.181   5.647   7.296 -0.5693 -0.4926 -0.1235
  192SLPC  C21222252   0.149   5.575   7.500 -0.1511 -0.3864  0.1564
  192SLPC  H12R22253   0.223   5.494   7.499  2.2664  1.6683  1.5533
  192SLPC  C21322254   0.125   5.601   7.628  1.0674 -0.1667  0.2190
  192SLPC  H13R22255   0.170   5.534   7.703  1.9228 -1.0228 -1.0209
  192SLPC  C21422256   0.031   5.709   7.689 -0.1109 -0.2292  0.0938
  192SLPC  H14R22257  -0.018   5.773   7.613  1.9625  1.1347 -0.1677
  192SLPC  H14S22258   0.082   5.771   7.765  1.3281 -1.4645  0.1940
  192SLPC  C21522259  -0.083   5.660   7.764  0.2816 -0.3922  0.7893
  192SLPC  H15R22260  -0.057   5.590   7.846 -1.6179  0.5986  2.3136
  192SLPC  H15S22261  -0.160   5.616   7.697  1.1878  0.8389 -1.1533
  192SLPC  C21622262  -0.159   5.774   7.835 -0.2013  0.0308 -0.7077
  192SLPC  H16R22263  -0.087   5.823   7.903  3.1788 -1.8583 -2.6286
  192SLPC  H16S22264  -0.243   5.716   7.881 -1.7173  0.1151 -3.1862
  192SLPC  C21722265  -0.226   5.884   7.756  0.5344 -0.5717  0.4718
  192SLPC  H17R22266  -0.141   5.947   7.721  0.6925 -0.5523  0.8849
  192SLPC  H17S22267  -0.283   5.838   7.673 -1.4389  2.4428 -0.0040
  192SLPC  C21822268  -0.322   5.983   7.826 -0.2337  0.9043 -0.8127
  192SLPC  H18R22269  -0.354   6.068   7.761  0.0466  0.4754 -1.5189
  192SLPC  H18S22270  -0.279   6.018   7.923 -1.2863 -1.4137  0.5703
  192SLPC  H18T22271  -0.412   5.920   7.840 -0.5812  1.0326 -2.2969
  192SLPC   C3322272   0.103   6.297   6.991  0.2587  0.4883  0.7040
  192SLPC   H3X22273   0.015   6.246   6.948 -0.1964  1.2555  0.7106
  192SLPC   H3Y22274   0.090   6.404   6.965 -2.7615  0.3635  1.3327
  192SLPC   C3422275   0.101   6.273   7.140 -1.1099  0.3567 -0.0399
  192SLPC   H4X22276   0.197   6.315   7.177  0.6154 -1.6531 -1.9519
  192SLPC   H4Y22277   0.113   6.164   7.159 -0.3962  0.7352  1.9633
  192SLPC   C3522278  -0.020   6.334   7.204 -0.4907  1.0568 -0.4353
  192SLPC   H5X22279  -0.028   6.303   7.311  0.1069  0.9853 -0.4085
  192SLPC   H5Y22280  -0.110   6.301   7.148 -0.2020  0.2386 -0.4230
  192SLPC   C3622281  -0.012   6.487   7.231  0.7457 -0.0685  0.2504
  192SLPC   H6X22282  -0.110   6.528   7.264  0.0842 -0.1327 -1.5198
  192SLPC   H6Y22283   0.019   6.533   7.134 -0.9513 -0.0439 -0.3186
  192SLPC   C3722284   0.079   6.524   7.347 -1.0517  0.3185 -0.1550
  192SLPC   H7X22285   0.108   6.631   7.340 -1.4452  0.3994 -0.5680
  192SLPC   H7Y22286   0.172   6.463   7.343 -1.8737 -1.2732  2.4614
  192SLPC   C3822287   0.024   6.512   7.486  0.4414  0.2092  0.0050
  192SLPC   H8X22288   0.001   6.405   7.501  1.5179 -0.3302 -1.8460
  192SLPC   H8Y22289  -0.070   6.572   7.494  0.0226 -0.4830  0.3023
  192SLPC   C3922290   0.122   6.572   7.591 -0.1263 -1.1472  0.7440
  192SLPC   H9X22291   0.126   6.681   7.574 -1.1774 -1.1983  0.0909
  192SLPC   H9Y22292   0.222   6.525   7.580  0.6773  0.7028 -0.1503
  192SLPC  C31022293   0.082   6.545   7.733 -0.0906 -0.0444 -0.3185
  192SLPC  H10X22294   0.069   6.436   7.747  2.4236 -0.6654 -2.1602
  192SLPC  H10Y22295  -0.019   6.588   7.755  0.2504  1.0329 -0.7731
  192SLPC  C31122296   0.190   6.599   7.826  0.3250  0.4020 -0.1690
  192SLPC  H11X22297   0.206   6.702   7.788 -1.4028 -0.2649 -3.0616
  192SLPC  H11Y22298   0.286   6.544   7.821  0.4422  0.5965 -0.0441
  192SLPC  C31222299   0.144   6.602   7.969  0.0712  0.9497  0.3082
  192SLPC  H12X22300   0.120   6.497   7.996 -0.7188  1.1929  0.5747
  192SLPC  H12Y22301   0.042   6.646   7.979 -1.2743 -2.2384  2.0406
  192SLPC  C31322302   0.249   6.653   8.077 -0.3250  0.3037  0.1476
  192SLPC  H13X22303   0.205   6.621   8.173  0.9784  1.7800  1.2937
  192SLPC  H13Y22304   0.253   6.763   8.093 -0.3845 -0.0232  2.8496
  192SLPC  C31422305   0.389   6.601   8.057  0.1818  0.4100  0.3405
  192SLPC  H14X22306   0.429   6.609   7.953  0.8777 -0.3036  0.5393
  192SLPC  H14Y22307   0.392   6.496   8.094 -1.3227  0.3756  0.4213
  192SLPC  C31522308   0.478   6.682   8.143  0.0925  0.7611  0.5002
  192SLPC  H15X22309   0.442   6.702   8.246 -1.1268 -0.0074  0.2456
  192SLPC  H15Y22310   0.484   6.785   8.101 -3.9435  1.6606  1.6754
  192SLPC  C31622311   0.628   6.637   8.144 -0.0342 -0.1163 -0.9229
  192SLPC  H16X22312   0.652   6.584   8.049 -2.2247 -1.4414 -0.8020
  192SLPC  H16Y22313   0.629   6.568   8.231  2.4596  0.8800 -0.0486
  192SLPC  C31722314   0.736   6.746   8.164 -0.2669  0.2495  0.1783
  192SLPC  H17X22315   0.716   6.825   8.088  1.0240  0.1244 -0.3251
  192SLPC  H17Y22316   0.833   6.696   8.141  0.5664  2.2695 -0.9859
  192SLPC  C31822317   0.736   6.806   8.304  0.4330  0.4161 -0.1549
  192SLPC  H18X22318   0.645   6.869   8.297 -0.8065 -1.4421 -1.8042
  192SLPC  H18Y22319   0.827   6.863   8.334  0.0962 -0.0053  1.8448
  192SLPC  H18Z22320   0.704   6.727   8.375  0.2914  1.3616  0.8653
  193SOD    SOD22321   4.187   6.774  10.767 -0.1098  0.3600  0.2699
  194SOD    SOD22322   0.961   4.897   6.123  0.0203  0.0290  0.2644
  195SOD    SOD22323   1.763   6.731   3.030 -0.0112  0.1005  0.6988
  196SOD    SOD22324   1.859   4.618  15.208 -0.0228  0.0999  0.0908
  197SOD    SOD22325   0.191   3.935  16.049  0.0436 -0.2200  0.3308
  198SOD    SOD22326   3.095   3.231   0.774  0.1909  0.5346 -0.0078
  199SOD    SOD22327   4.234   6.521   5.879  0.5567  0.0630  0.1796
  200SOD    SOD22328   0.547   3.248   0.370 -0.1119  0.4212 -0.5236
  201SOD    SOD22329   0.466   2.889   1.834  0.1547  0.0588  0.2497
  202SOD    SOD22330   4.243   0.453  12.269 -0.1043 -0.1183  0.1689
  203SOD    SOD22331   6.218   1.880   1.363 -0.1793 -0.0094 -0.2884
  204SOD    SOD22332   6.543   3.465   5.269  0.0228 -0.1891 -0.0645
  205SOD    SOD22333   0.525   1.634  13.079 -0.3858  0.4278 -0.5389
  206SOD    SOD22334   4.414   5.113   6.475  0.0455 -0.3708 -0.6191
  207SOD    SOD22335   2.460   4.386   3.602 -0.0940 -0.1198 -0.3904
  208SOD    SOD22336   1.982   0.023  12.100 -0.2865 -0.2494  0.1905
  209SOD    SOD22337   1.987   6.024  14.519 -0.1298  0.4276  0.1229
  210SOD    SOD22338   6.554   4.322  13.870  0.1578 -0.4165 -0.5079
  211SOD    SOD22339   6.793   2.411  11.635  0.0769  0.2067  0.1314
  212SOD    SOD22340   2.852   1.845  14.043  0.4995  0.4422  0.0224
  213SOD    SOD22341   1.858   5.056  12.475  0.1496 -0.0123  0.7732
  214SOD    SOD22342   0.670   0.232  14.685 -0.4024 -0.1448 -0.1868
  215SOD    SOD22343   5.080   2.311  15.067  0.1256  0.1403  0.3492
  216SOD    SOD22344   6.423   0.976  16.228 -0.2388 -0.3578 -0.4341
  217SOD    SOD22345   3.753   6.070   4.623 -0.2112 -0.5593  0.4360
  218SOD    SOD22346   1.337   6.266   0.873  0.0293  0.3420  0.4195
  219SOD    SOD22347   3.797   0.546  17.143 -0.2476 -0.2236 -0.6837
  220SOD    SOD22348   3.008   0.399  13.450  0.0113  0.0723 -0.2734
  221SOD    SOD22349   3.676   4.145  12.369  0.0882 -0.1153 -0.1068
  222SOD    SOD22350   0.862   4.848   3.368  0.2191  0.0569  0.1114
  223SOD    SOD22351   4.887   2.772  16.455  0.2837  0.5125 -0.2605
  224SOD    SOD22352   1.630   1.031   5.210 -0.1267 -0.5542  0.6131
  225SOD    SOD22353   2.203   3.322   2.465  0.5372 -0.0344  0.0459
  226SOD    SOD22354   2.245   0.782  15.447 -0.3503  0.3596 -0.3540
  227SOD    SOD22355   2.989   0.996   1.090  0.3975 -0.1395 -0.0732
  228SOD    SOD22356   3.808   5.028   0.997  0.0916  0.0078 -0.3192
  229SOD    SOD22357   4.950   5.469  14.318  0.1922 -0.2537 -0.2049
  230SOD    SOD22358   6.013   5.973   0.774 -0.3394  0.4847 -0.3787
  231SOD    SOD22359   2.928   3.179   2.076  0.3510 -0.0523  0.1991
  232SOD    SOD22360   4.503   1.838   4.529  0.1261  0.0079 -0.0776
  233SOD    SOD22361   4.394   6.031   0.734  0.6665  0.3650  0.1371
  234SOD    SOD22362   4.128   5.692   4.177  0.0151  0.2174 -0.3815
  235SOD    SOD22363   2.988   3.699   6.528 -0.4912  0.0827  0.0858
  236SOD    SOD22364   3.305   6.308   4.340  0.1272  0.2364  0.0482
  237SOD    SOD22365   6.607   6.489   5.850 -0.5403 -0.0933  0.5962
  238SOD    SOD22366   4.506   2.986  11.437  0.0388 -0.0666  0.7336
  239SOD    SOD22367   0.152   4.482  11.157  0.0841 -0.4130  0.4990
  240SOD    SOD22368   1.160   1.632   1.453 -0.0853  0.0636  0.3395
  241SOD    SOD22369   0.396   2.397   5.218 -0.1900  0.1577 -0.2539
  242SOD    SOD22370   5.127   5.229   3.275 -0.3212  0.0286  0.0005
  243SOD    SOD22371   6.743   0.093  13.070 -0.1660 -0.2052  0.3159
  244SOD    SOD22372   6.514   1.604  15.591 -0.1116  0.1296 -0.0596
  245SOD    SOD22373   5.706   3.342  12.237 -0.0956  0.0526 -0.1645
  246SOD    SOD22374   2.996   2.863  13.147  0.5322 -0.5734 -0.2706
  247SOD    SOD22375   5.487   1.282   3.784 -0.2656  0.2144  0.0839
  248SOD    SOD22376   3.575   0.994  11.366 -0.0787 -0.6293  0.1204
  249SOD    SOD22377   1.254   1.700   5.779  0.0484  0.5282 -0.1246
  250SOD    SOD22378   6.245   2.281  14.610 -0.1655  0.0052 -0.2985
  251SOD    SOD22379   3.507   1.294   2.164  0.0032 -0.4505  0.1672
  252SOD    SOD22380   4.976   0.348   6.319  0.2845  0.3538  0.6547
  253SOD    SOD22381   2.982   4.415   5.909 -0.3786  0.3969 -0.0716
  254SOD    SOD22382   4.784   2.690  10.775  0.0188  0.9280 -0.7344
  255SOD    SOD22383   3.250   4.127   3.265 -0.1479 -0.3537 -0.8499
  256SOD    SOD22384   3.160   6.725   1.853 -0.7186  0.0301  0.5714
  257SOD    SOD22385   1.005   2.526   5.023 -0.3830  0.3957  0.1867
  258SOD    SOD22386   3.273   3.648   5.596 -0.0982 -0.1447 -0.0345
  259SOD    SOD22387   4.895   2.665   0.760  0.1255  0.1497 -0.4846
  260SOD    SOD22388   0.614   3.413  11.334  0.1076 -0.4227 -0.1602
  261SOD    SOD22389   0.012   1.801  11.477 -0.2901 -0.4701  0.3872
  262SOD    SOD22390   0.207   5.284  11.008 -0.3258  0.2323 -0.5290
  263SOD    SOD22391   1.923   1.422  11.674 -0.3293  0.1448  0.0517
  264SOD    SOD22392   0.777   5.290  15.369 -0.2117  0.1051 -0.2012
  265SOD    SOD22393   5.092   3.784   4.087  0.1258 -0.2693 -0.2002
  266CLA    CLA22394   1.005   2.077  13.151 -0.0406  0.2632 -0.1489
  267CLA    CLA22395   2.784   3.097   5.635 -0.3418  0.1611  0.0068
  268CLA    CLA22396   5.180   3.057   4.059  0.4741  0.1321  0.2552
  269CLA    CLA22397   5.434   2.658  14.855 -0.0269 -0.0860 -0.1700
  270CLA    CLA22398   5.605   0.232  12.307 -0.2485 -0.2809  0.1140
  271CLA    CLA22399   1.119   0.123  14.854 -0.3544  0.4018 -0.0306
  272CLA    CLA22400   2.648   2.658   3.441  0.2191 -0.4353  0.1290
  273CLA    CLA22401   0.111   3.934  11.875 -0.5187 -0.4915  0.1627
  274CLA    CLA22402   2.982   4.124   0.552  0.3491  0.1778 -0.0015
  275CLA    CLA22403   2.346   6.422   0.163 -0.3403 -0.0421  0.3681
  276CLA    CLA22404   3.287   6.344   1.599  0.0372  0.0744 -0.1511
  277CLA    CLA22405   1.541   5.686  13.268  0.2461  0.1297 -0.1402
  278CLA    CLA22406   0.078   6.433   4.528  0.3647 -0.0263  0.4486
  279CLA    CLA22407   4.620   2.615  12.234 -0.1402  0.0271 -0.2228
  280CLA    CLA22408   4.367   2.680   3.093  0.1349  0.1899 -0.1700
  281CLA    CLA22409   0.002   3.086   1.741  0.3458 -0.2182  0.0457
  282CLA    CLA22410   6.310   1.883  12.294  0.3177 -0.3768 -0.2118
  283CLA    CLA22411   3.107   4.325   0.084  0.0511  0.0071 -0.1516
  284CLA    CLA22412   5.255   3.758   5.776  0.0073  0.0710 -0.4708
  285CLA    CLA22413   0.545   1.116   5.159 -0.2955 -0.3883 -0.5265
  286CLA    CLA22414   4.034   6.627   0.683  0.0544 -0.0819 -0.0258
  287CLA    CLA22415   4.179   0.021   4.541 -0.1743 -0.0967  0.0783
  288CLA    CLA22416   3.464   2.185   2.050  0.1054  0.2559 -0.3998
  289CLA    CLA22417   6.358   4.906   0.991 -0.2233 -0.3685  0.0085
  290CLA    CLA22418   6.427   4.503  15.262 -0.2559 -0.2045 -0.0886
  291CLA    CLA22419   4.341   0.834  11.333  0.2059 -0.2576  0.1701
  292CLA    CLA22420   6.593   3.545   0.960 -0.1390 -0.1737  0.4870
  293CLA    CLA22421   0.574   5.206   1.204 -0.4448  0.1017 -0.1888
  294CLA    CLA22422   0.153   2.382  17.033 -0.0255  0.2838  0.0194
  295CLA    CLA22423   1.714   6.296  15.492  0.2356 -0.1662 -0.0124
  296CLA    CLA22424   2.686   2.824  15.030  0.2462 -0.1575 -0.2905
  297CLA    CLA22425   6.516   3.321  15.853 -0.1536  0.1373 -0.2543
  298CLA    CLA22426   3.569   6.464   3.443 -0.2108  0.5923 -0.4594
  299CLA    CLA22427   3.057   1.664  16.204  0.4288 -0.0126 -0.1643
  300CLA    CLA22428   0.715   2.337  11.937  0.1359  0.9485 -0.3145
  301CLA    CLA22429   3.818   2.651   4.831 -0.2548 -0.2614  0.2655
  302CLA    CLA22430   0.374   1.276  13.338  0.0206  0.1235  0.1298
  303CLA    CLA22431   3.603   6.213   5.098 -0.1316 -0.4477 -0.3421
  304CLA    CLA22432   5.334   3.886  14.503 -0.2516 -0.3962 -0.0496
  305CLA    CLA22433   1.305   3.229   3.484  0.0457  0.2399  0.2415
  306CLA    CLA22434   4.086   5.881  12.681 -0.0784  0.3001  0.2500
  307CLA    CLA22435   0.143   1.809  15.508  0.1103  0.3875  0.1295
  308CLA    CLA22436   5.230   2.192  16.877  0.2168  0.0488 -0.1336
  309CLA    CLA22437   1.678   6.410  12.552  0.0285  0.1147  0.1581
  310CLA    CLA22438   2.613   0.888   2.236 -0.0738 -0.4212 -0.3068
  311CLA    CLA22439   0.182   4.252   2.350 -0.2372 -0.1772  0.1409
  312CLA    CLA22440   4.004   5.654   4.645 -0.6280  0.6660 -0.0041
  313CLA    CLA22441   1.302   0.012   2.990  0.3462  0.0497  0.0832
  314CLA    CLA22442   4.127   0.943   1.918 -0.1402  0.1147  0.3345
  315CLA    CLA22443   6.010   4.004   0.006  0.2719 -0.1593 -0.0889
  316CLA    CLA22444   2.483   4.494  15.671  0.3398  0.2428 -0.1496
  317CLA    CLA22445   3.824   2.195   0.089  0.1180 -0.0807 -0.2475
  318CLA    CLA22446   1.777   3.258   3.267  0.0495 -0.2806  0.2371
  319TIP3   OH222447   2.016   6.268   1.600 -0.0114  0.0249  0.4126
  319TIP3    H122448   2.101   6.296   1.569  0.0139  1.0502  1.3409
  319TIP3    H222449   1.957   6.340   1.580 -0.6101 -0.5577  0.0262
  320TIP3   OH222450   4.336   1.215  13.793 -0.3728  0.4978  0.2574
  320TIP3    H122451   4.262   1.275  13.806 -0.5565  0.2567  0.3294
  320TIP3    H222452   4.351   1.175  13.879  0.4515  1.2370  0.4727
  321TIP3   OH222453   0.537   2.126   0.332  0.2413  0.1170 -0.4703
  321TIP3    H122454   0.593   2.104   0.406 -0.6062 -1.8341 -0.3350
  321TIP3    H222455   0.586   2.097   0.255  0.3582  0.4764 -0.5323
  322TIP3   OH222456   0.805   0.318   4.515  0.0583  0.1297  0.1859
  322TIP3    H122457   0.807   0.231   4.476  0.2538  0.1837  0.0766
  322TIP3    H222458   0.711   0.337   4.526 -0.1360  1.0356 -2.3371
  323TIP3   OH222459   2.329   1.863  15.784 -0.1242 -0.1589  0.0119
  323TIP3    H122460   2.330   1.810  15.704  0.1561 -0.1265 -0.0055
  323TIP3    H222461   2.420   1.863  15.814 -0.3011 -0.5171  0.5606
  324TIP3   OH222462   2.629   5.434  17.146 -0.0204  0.0562  0.1774
  324TIP3    H122463   2.596   5.456  17.058 -0.2406 -0.0349  0.2347
  324TIP3    H222464   2.551   5.440  17.202  0.0324 -0.3167  0.2891
  325TIP3   OH222465   5.204   5.137   1.501  0.3526 -0.4480  0.1792
  325TIP3    H122466   5.231   5.212   1.554  0.7598 -0.1130 -0.4918
  325TIP3    H222467   5.283   5.083   1.496  0.0567 -0.9395  0.6725
  326TIP3   OH222468   3.147   6.126  16.158 -0.2314  0.0678  0.3399
  326TIP3    H122469   3.179   6.192  16.097 -0.6020 -0.0412  0.0246
  326TIP3    H222470   3.154   6.043  16.110  0.7810 -0.2117  0.9427
  327TIP3   OH222471   4.992   1.609  15.257 -0.4258  0.1009 -0.5274
  327TIP3    H122472   5.016   1.516  15.262  0.8954  0.4822  0.9215
  327TIP3    H222473   4.940   1.624  15.335 -0.0022  0.7490 -0.3689
  328TIP3   OH222474   4.386   3.310  15.834 -0.4177  0.4410 -0.6409
  328TIP3    H122475   4.408   3.273  15.749  0.9101 -0.7495  0.1817
  328TIP3    H222476   4.335   3.389  15.813 -1.3930 -0.6093 -2.4844
  329TIP3   OH222477   2.481   3.582   5.547 -0.4972  0.5117 -0.5752
  329TIP3    H122478   2.422   3.533   5.602 -1.1012  0.9854 -0.7847
  329TIP3    H222479   2.569   3.556   5.576 -0.7957  0.8247  0.6657
  330TIP3   OH222480   1.177   3.888   1.756 -0.4385 -0.5453 -0.0195
  330TIP3    H122481   1.209   3.925   1.674 -2.2301  0.2242 -0.4271
  330TIP3    H222482   1.237   3.921   1.823  0.5451 -0.4929 -0.9092
  331TIP3   OH222483   4.276   4.795  14.992 -0.2048  0.2374 -0.1727
  331TIP3    H122484   4.362   4.811  14.953 -1.4630  3.3127 -2.0253
  331TIP3    H222485   4.284   4.826  15.082  0.2521  1.9098 -0.7663
  332TIP3   OH222486   3.579   2.811   4.939  0.4215  0.2471 -0.3281
  332TIP3    H122487   3.665   2.780   4.912  1.6371  2.3841  0.7912
  332TIP3    H222488   3.537   2.839   4.858  1.4341  0.6322 -0.7401
  333TIP3   OH222489   5.268   5.413   2.214  0.4102 -0.3936 -0.2579
  333TIP3    H122490   5.295   5.322   2.225  0.2686 -0.5678 -1.2712
  333TIP3    H222491   5.328   5.448   2.149  1.5604  0.7498  1.3392
  334TIP3   OH222492   5.644   6.445   0.368  0.2124 -0.2137 -0.0307
  334TIP3    H122493   5.644   6.385   0.442  1.6943 -1.0403 -0.6565
  334TIP3    H222494   5.586   6.517   0.394  1.1289 -0.2063  2.1314
  335TIP3   OH222495   2.878   4.806   4.075  0.1953 -0.7427  0.0693
  335TIP3    H122496   2.904   4.875   4.014  0.4832 -1.0703 -0.1867
  335TIP3    H222497   2.838   4.853   4.149 -0.2504 -0.3530 -0.4171
  336TIP3   OH222498   5.025   0.057  11.937 -0.0151  0.7378  0.2053
  336TIP3    H122499   5.085   0.102  11.877 -1.6436  1.8792 -0.6440
  336TIP3    H222500   4.966   0.126  11.969 -0.3069 -0.1695  1.7594
  337TIP3   OH222501   3.532   4.592   4.642  0.5164  0.0101 -0.8230
  337TIP3    H122502   3.545   4.582   4.736  1.3256 -0.8780 -1.0115
  337TIP3    H222503   3.517   4.686   4.629  0.0182  0.0822  0.2243
  338TIP3   OH222504   1.748   1.950  16.485  0.3149 -0.3305  0.4792
  338TIP3    H122505   1.837   1.947  16.449 -0.2421 -0.1827 -0.9695
  338TIP3    H222506   1.692   1.967  16.409 -0.9372 -0.2049  1.4032
  339TIP3   OH222507   6.488   1.655  13.664 -0.0771 -0.0531 -0.2519
  339TIP3    H122508   6.436   1.587  13.620 -3.4077  0.5712  2.2531
  339TIP3    H222509   6.426   1.727  13.678  2.1303  1.7157  1.0203
  340TIP3   OH222510   2.768   5.305   2.503  0.6067 -0.2969 -0.0199
  340TIP3    H122511   2.753   5.380   2.560  0.1202 -0.5535  0.1992
  340TIP3    H222512   2.797   5.235   2.562  0.7664 -0.3682 -0.1807
  341TIP3   OH222513   4.453   5.302   3.202  0.4261 -0.1410  0.4284
  341TIP3    H122514   4.430   5.357   3.127 -0.4282 -1.0821 -0.0354
  341TIP3    H222515   4.371   5.256   3.222  1.3073 -1.8409  0.2590
  342TIP3   OH222516   4.747   0.354   6.181  0.0598 -0.5784 -0.1058
  342TIP3    H122517   4.730   0.443   6.149 -1.1878 -1.6993 -2.8547
  342TIP3    H222518   4.661   0.315   6.190  0.5172 -1.1544  2.4694
  343TIP3   OH222519   6.381   1.941   5.679  0.1053  0.4331 -0.3064
  343TIP3    H122520   6.463   1.918   5.723 -0.4602 -0.3383  0.3745
  343TIP3    H222521   6.318   1.876   5.710 -0.6447  0.6957 -1.2189
  344TIP3   OH222522   3.467   5.585  15.021 -0.6977 -0.6990  0.0624
  344TIP3    H122523   3.505   5.649  15.082  0.9997 -0.7656 -0.8662
  344TIP3    H222524   3.436   5.638  14.948 -0.6093 -0.8239 -0.0644
  345TIP3   OH222525   3.779   3.631  12.460  0.1204  0.3062  0.0102
  345TIP3    H122526   3.730   3.694  12.513 -0.4525 -0.2340  0.1309
  345TIP3    H222527   3.764   3.659  12.369  0.3083  0.6574  0.0845
  346TIP3   OH222528   3.890   2.272  11.077  0.3021  0.1446 -0.2304
  346TIP3    H122529   3.840   2.190  11.071 -0.9198  0.8682 -0.4212
  346TIP3    H222530   3.926   2.284  10.989  1.1762 -0.5820  0.0107
  347TIP3   OH222531   1.494   6.541  11.266  0.1635 -0.3232 -0.2976
  347TIP3    H122532   1.511   6.577  11.179  0.6551 -0.5526 -0.2972
  347TIP3    H222533   1.553   6.467  11.273  1.2537  0.6106  0.8277
  348TIP3   OH222534   3.629   0.707   1.844 -0.0685  0.5492 -0.1574
  348TIP3    H122535   3.550   0.654   1.853 -0.9038  1.6883 -0.5620
  348TIP3    H222536   3.697   0.644   1.819 -0.0884 -0.9569  3.1627
  349TIP3   OH222537   2.477   5.754   4.103  0.4799 -0.5519 -0.3855
  349TIP3    H122538   2.516   5.842   4.110 -0.4898 -0.0469 -1.0347
  349TIP3    H222539   2.530   5.700   4.161 -0.6233  1.0680  2.3585
  350TIP3   OH222540   3.568   1.197  13.824 -0.3903  0.5278  0.0296
  350TIP3    H122541   3.524   1.141  13.759  1.6911  1.6010 -2.4533
  350TIP3    H222542   3.544   1.286  13.799 -0.6617  0.9528  1.6694
  351TIP3   OH222543   3.878   4.855  10.727 -0.5068  0.2423  0.3776
  351TIP3    H122544   3.830   4.775  10.709  1.3549 -1.0589  0.8915
  351TIP3    H222545   3.829   4.898  10.797 -0.2505 -1.6840  1.7991
  352TIP3   OH222546   5.175   1.741  15.420  0.4219  0.0663 -0.1546
  352TIP3    H122547   5.232   1.668  15.444 -1.0406 -1.1044 -0.0919
  352TIP3    H222548   5.118   1.705  15.352  1.9028  2.1616 -2.7274
  353TIP3   OH222549   2.876   0.306  11.264 -0.1413 -0.5630  0.0251
  353TIP3    H122550   2.972   0.310  11.263 -0.1175  0.7192  2.1112
  353TIP3    H222551   2.854   0.239  11.329 -0.7177 -1.8939 -1.4657
  354TIP3   OH222552   2.400   1.289  15.604 -0.0791 -0.7703  0.6360
  354TIP3    H122553   2.443   1.366  15.642 -0.4389 -0.3399  0.1789
  354TIP3    H222554   2.331   1.325  15.549 -0.1601 -1.4218  0.3068
  355TIP3   OH222555   3.578   3.509   0.329  0.1095 -0.0246 -0.4472
  355TIP3    H122556   3.544   3.419   0.322 -0.8860  0.1363  1.4406
  355TIP3    H222557   3.662   3.507   0.285 -0.0128 -1.8298 -0.6763
  356TIP3   OH222558   3.987   4.087  13.643 -0.6863 -0.3243 -0.4896
  356TIP3    H122559   3.969   4.042  13.725  0.5048 -0.5022 -0.3034
  356TIP3    H222560   4.029   4.021  13.588  1.3361  0.5810 -0.1165
  357TIP3   OH222561   3.556   4.882  14.316  0.4580  0.7235 -0.8189
  357TIP3    H122562   3.553   4.956  14.375 -2.3585 -0.5417  0.7915
  357TIP3    H222563   3.479   4.892  14.260  0.4899 -0.5382 -1.1231
  358TIP3   OH222564   1.570   3.251   4.659  0.0782  0.2660  0.1830
  358TIP3    H122565   1.599   3.341   4.645  1.5095 -0.4256 -1.5791
  358TIP3    H222566   1.651   3.202   4.674 -0.7337 -0.6381  1.8941
  359TIP3   OH222567   1.883   0.200  11.351 -0.6305  0.6480 -0.6959
  359TIP3    H122568   1.834   0.155  11.282 -0.1660 -0.9657 -0.0273
  359TIP3    H222569   1.897   0.133  11.418 -2.9097  2.6426  1.9906
  360TIP3   OH222570   2.271   6.284  15.652 -0.6575 -0.2912  0.1749
  360TIP3    H122571   2.242   6.197  15.625 -0.8696 -0.9689  2.3546
  360TIP3    H222572   2.361   6.289  15.620 -0.0362 -2.0610  1.4298
  361TIP3   OH222573   5.662   1.095   5.387  0.4626  0.3441  0.3498
  361TIP3    H122574   5.693   1.016   5.344 -1.3676  0.1573 -0.7431
  361TIP3    H222575   5.741   1.146   5.403  1.9070 -2.3209  2.5220
  362TIP3   OH222576   6.757   1.013   6.011 -0.5067 -0.3983 -0.1921
  362TIP3    H122577   6.712   1.096   5.998 -0.5753 -0.1222  1.6241
  362TIP3    H222578   6.824   1.032   6.076 -1.6090 -2.0901  1.5512
  363TIP3   OH222579   2.819   4.299  13.386  0.3609  0.5476 -0.3893
  363TIP3    H122580   2.836   4.205  13.382 -1.1646  0.2677 -1.0429
  363TIP3    H222581   2.900   4.339  13.356  0.2575 -0.6564 -2.4719
  364TIP3   OH222582   1.735   3.652   2.417 -0.4328 -0.1679  0.2433
  364TIP3    H122583   1.673   3.718   2.389  0.3701 -0.7003 -3.3666
  364TIP3    H222584   1.783   3.692   2.489 -0.7702  2.7234 -1.0258
  365TIP3   OH222585   0.562   0.178   3.431 -0.3531 -0.1266 -0.2560
  365TIP3    H122586   0.494   0.170   3.364  0.3747  1.0587 -1.1830
  365TIP3    H222587   0.555   0.098   3.482 -1.1759 -0.9072 -1.5344
  366TIP3   OH222588   1.370   2.798   1.661  0.1099 -0.3774  0.1300
  366TIP3    H122589   1.394   2.886   1.691  1.7397  0.1198 -2.2768
  366TIP3    H222590   1.275   2.793   1.675 -0.2746  2.3129 -0.7988
  367TIP3   OH222591   3.699   3.425   1.336  0.4349 -0.3056 -0.5596
  367TIP3    H122592   3.674   3.515   1.355  1.6770  0.0603 -0.6116
  367TIP3    H222593   3.795   3.425   1.336  0.6069 -2.2631  2.7372
  368TIP3   OH222594   2.805   3.548  14.182  0.4776  0.0568 -0.0036
  368TIP3    H122595   2.794   3.501  14.264 -2.2602  2.2751  1.0535
  368TIP3    H222596   2.767   3.490  14.116 -1.5689  0.1256  1.0541
  369TIP3   OH222597   3.436   0.466   0.026 -0.0931 -0.4161  0.3653
  369TIP3    H122598   3.399   0.544   0.068 -0.5412  1.3656 -2.9505
  369TIP3    H222599   3.360   0.424  -0.016  0.5478 -1.1713 -0.0619
  370TIP3   OH222600   6.624   6.739  12.198  0.0903  0.4690 -0.2359
  370TIP3    H122601   6.678   6.664  12.221 -1.3830 -0.7367 -0.5748
  370TIP3    H222602   6.679   6.791  12.139  1.0650 -0.4444 -0.1539
  371TIP3   OH222603   6.644   2.657   3.083 -0.1131 -0.4208  0.4611
  371TIP3    H122604   6.657   2.578   3.137 -1.1861  0.8303  2.6856
  371TIP3    H222605   6.606   2.623   3.001 -0.8218 -2.1997  1.4589
  372TIP3   OH222606   5.814   2.876  15.441 -0.2761  0.6117 -0.1378
  372TIP3    H122607   5.718   2.878  15.445 -0.4279 -0.5982 -1.9071
  372TIP3    H222608   5.841   2.848  15.528 -1.5210  1.1980  0.4615
  373TIP3   OH222609   3.055   3.132  16.091 -0.2466 -0.3158  0.4469
  373TIP3    H122610   3.059   3.223  16.121  0.6458 -0.5313  1.0342
  373TIP3    H222611   2.965   3.120  16.061 -0.1595  1.0068 -0.4345
  374TIP3   OH222612   6.818   1.993  11.611  0.1389  0.2444  0.7828
  374TIP3    H122613   6.831   1.965  11.702 -0.3073 -0.1053  0.7387
  374TIP3    H222614   6.885   2.060  11.597  2.0100 -1.5649  0.5452
  375TIP3   OH222615   2.710   4.340  14.217  0.2476  0.1262  0.3282
  375TIP3    H122616   2.630   4.302  14.253  0.0180  0.3098  0.0190
  375TIP3    H222617   2.780   4.309  14.275  0.1708 -1.3650 -0.3226
  376TIP3   OH222618   3.690   3.205   0.527 -0.7766 -0.1774  0.1947
  376TIP3    H122619   3.767   3.253   0.558 -0.2186 -2.0289  1.8410
  376TIP3    H222620   3.649   3.170   0.606 -2.3006 -0.7364 -0.7934
  377TIP3   OH222621   5.171   6.305  16.184 -0.0100 -1.0091  0.4418
  377TIP3    H122622   5.142   6.273  16.099  0.7282  1.7009 -0.9455
  377TIP3    H222623   5.092   6.341  16.225  0.5345  5.2165 -2.7997
  378TIP3   OH222624   1.385   2.545   6.094  0.8182 -0.2240  0.5043
  378TIP3    H122625   1.463   2.499   6.126 -0.2347 -0.7499  2.5210
  378TIP3    H222626   1.358   2.599   6.168 -2.2237 -2.0906  0.9274
  379TIP3   OH222627   3.007   6.557   0.492  0.7344 -0.5115 -0.3585
  379TIP3    H122628   3.068   6.617   0.536  0.4904 -1.0832  0.7811
  379TIP3    H222629   3.019   6.473   0.536  0.2501 -1.0347 -1.1867
  380TIP3   OH222630   1.850   2.377  16.941 -0.4788 -0.0164 -0.7181
  380TIP3    H122631   1.791   2.449  16.919  0.3960  0.6673 -0.8328
  380TIP3    H222632   1.854   2.324  16.861 -0.1266  0.5034 -1.0511
  381TIP3   OH222633   4.928   0.986   2.905 -0.3783 -0.4954  0.0482
  381TIP3    H122634   4.962   0.930   2.835 -1.8502 -1.3401 -0.0569
  381TIP3    H222635   4.833   0.972   2.902 -0.6319  0.7831  1.0965
  382TIP3   OH222636   0.385   4.894  16.426 -0.5038  0.4412  0.5168
  382TIP3    H122637   0.408   4.880  16.334  2.1587 -1.2280  1.3237
  382TIP3    H222638   0.433   4.973  16.451 -0.7847  0.5779  0.6289
  383TIP3   OH222639   6.770   3.210  12.496  0.4347  0.6034  0.1072
  383TIP3    H122640   6.811   3.182  12.414 -0.2423  0.4789 -0.1902
  383TIP3    H222641   6.676   3.210  12.477  0.2694  0.4417  0.9283
  384TIP3   OH222642   2.476   3.888  11.554 -0.9291  0.6824 -0.0247
  384TIP3    H122643   2.462   3.890  11.459  0.7780  1.6985 -0.2931
  384TIP3    H222644   2.564   3.852  11.565 -1.0467  0.7197  1.1647
  385TIP3   OH222645   4.294   0.519  10.848  0.0254 -0.4931  0.2420
  385TIP3    H122646   4.309   0.470  10.767 -0.3047  1.7895 -1.2793
  385TIP3    H222647   4.379   0.559  10.867 -0.3007  0.2750  0.1065
  386TIP3   OH222648   3.410   5.681   2.875 -0.0647 -0.1159  0.0953
  386TIP3    H122649   3.462   5.701   2.798  2.7975  2.0496  2.3662
  386TIP3    H222650   3.451   5.603   2.912 -1.1595 -0.8966 -0.2888
  387TIP3   OH222651   6.513   2.762   1.128 -0.3004  0.9812 -0.2155
  387TIP3    H122652   6.457   2.764   1.206  0.6588 -1.4725  0.6288
  387TIP3    H222653   6.572   2.836   1.139 -1.3437  1.7520  0.4374
  388TIP3   OH222654   0.017   1.823  14.289 -0.1474 -0.3085 -0.4733
  388TIP3    H122655   0.035   1.800  14.198 -1.3783 -4.0754  0.0561
  388TIP3    H222656   0.076   1.768  14.340 -0.2827  0.8858  1.0467
  389TIP3   OH222657   4.051   0.489   6.088 -0.4042  0.8150 -0.4244
  389TIP3    H122658   4.003   0.567   6.115  0.0482  0.4184  1.6776
  389TIP3    H222659   4.081   0.509   6.000 -1.0624  2.6426 -0.2770
  390TIP3   OH222660   2.823   1.361  14.599  0.1947  0.3356  0.0706
  390TIP3    H122661   2.770   1.284  14.581  0.4247 -0.0445  1.0026
  390TIP3    H222662   2.907   1.343  14.555 -0.1400  0.5770 -0.6943
  391TIP3   OH222663   4.302   0.523   0.883 -0.1701 -0.9999  0.5013
  391TIP3    H122664   4.299   0.557   0.973  0.9598  0.4914  0.0102
  391TIP3    H222665   4.217   0.546   0.846 -0.5566 -1.4243  1.1007
  392TIP3   OH222666   0.919   1.895  11.643 -0.2941 -0.9997 -0.4410
  392TIP3    H122667   0.890   1.966  11.701  1.4267 -1.2801  0.8308
  392TIP3    H222668   0.963   1.940  11.571  3.0436 -0.6956  1.5947
  393TIP3   OH222669   4.456   0.630  13.560  0.6010  0.1581  0.1314
  393TIP3    H122670   4.546   0.603  13.541  1.0904  1.5000  0.4406
  393TIP3    H222671   4.460   0.661  13.651 -0.4143 -0.7375  0.4997
  394TIP3   OH222672   0.207   6.735   0.786  0.4235  0.5859  0.2054
  394TIP3    H122673   0.118   6.743   0.751 -0.5704  1.6563  2.7084
  394TIP3    H222674   0.256   6.805   0.745 -0.5906  1.5689  0.6197
  395TIP3   OH222675   2.704   0.175   0.916  0.0006 -0.1665 -0.2348
  395TIP3    H122676   2.673   0.236   0.849  0.1646 -0.1448 -0.2927
  395TIP3    H222677   2.787   0.212   0.945 -0.0920 -0.1538  0.0116
  396TIP3   OH222678   1.301   1.593   1.635 -0.3779 -0.2573  0.1693
  396TIP3    H122679   1.393   1.609   1.659 -0.3338 -0.5737  0.2188
  396TIP3    H222680   1.250   1.636   1.704 -0.2507 -1.5699  1.1233
  397TIP3   OH222681   4.756   5.216  14.708  0.1572  0.1617  0.5917
  397TIP3    H122682   4.834   5.198  14.762  0.0136  0.7442  1.0092
  397TIP3    H222683   4.698   5.264  14.767 -0.5410 -0.3078  0.2947
  398TIP3   OH222684   5.063   3.913   2.706  0.5277 -0.0358  0.3453
  398TIP3    H122685   4.974   3.893   2.678  0.5854  1.2070 -0.7892
  398TIP3    H222686   5.115   3.840   2.674  0.1270 -0.1047 -0.1589
  399TIP3   OH222687   1.005   2.295   5.652 -1.0771 -0.4403  0.1287
  399TIP3    H122688   0.967   2.220   5.698 -2.6262  2.1237  3.3824
  399TIP3    H222689   0.946   2.368   5.671  1.0641  1.9649 -1.7295
  400TIP3   OH222690   0.539   1.111   1.257  0.0340  0.1892 -0.3579
  400TIP3    H122691   0.457   1.078   1.220  0.0199 -2.0354  1.4318
  400TIP3    H222692   0.512   1.169   1.328 -0.0146 -0.5057  0.2005
  401TIP3   OH222693   6.490   4.288   1.743  0.3714 -0.2312 -0.2345
  401TIP3    H122694   6.567   4.335   1.710  1.3705 -0.9568  0.9748
  401TIP3    H222695   6.483   4.210   1.688  0.1059  0.1503 -0.7513
  402TIP3   OH222696   3.455   3.001   1.942 -0.4648  0.1849 -0.2297
  402TIP3    H122697   3.447   3.066   2.012 -0.5286 -0.2333  0.1517
  402TIP3    H222698   3.392   3.029   1.875 -1.5919 -0.3219  0.5873
  403TIP3   OH222699   5.358   1.133  10.405 -0.0651  0.1157  0.6349
  403TIP3    H122700   5.383   1.182  10.326 -1.2823 -1.5851 -0.8992
  403TIP3    H222701   5.284   1.181  10.441 -0.0762  0.4227  0.2164
  404TIP3   OH222702   3.263   0.323  16.081 -0.2263 -0.0566  0.6736
  404TIP3    H122703   3.238   0.411  16.109  1.4865  0.7372 -0.1385
  404TIP3    H222704   3.202   0.302  16.010 -0.9193  0.2863  1.1600
  405TIP3   OH222705   2.398   4.060   0.215  0.0655  0.2724  0.0994
  405TIP3    H122706   2.352   3.997   0.159 -1.6917  0.2691  1.4858
  405TIP3    H222707   2.351   4.058   0.298  2.3846  0.5315  1.5100
  406TIP3   OH222708   5.828   0.367  15.131 -0.0110  0.4245 -0.4377
  406TIP3    H122709   5.804   0.378  15.223 -0.3543  1.3375 -0.6258
  406TIP3    H222710   5.900   0.303  15.132 -0.5499 -0.1808  0.3837
  407TIP3   OH222711   1.944   4.007  15.852  0.2825 -0.3266 -0.2212
  407TIP3    H122712   1.863   4.058  15.850  1.0265  0.8975 -0.5607
  407TIP3    H222713   2.008   4.066  15.892  1.0458 -1.2092 -0.1163
  408TIP3   OH222714   2.164   5.859  15.128 -0.5556 -0.5592 -0.1700
  408TIP3    H122715   2.255   5.878  15.104 -0.6347  2.2814  1.4113
  408TIP3    H222716   2.122   5.838  15.045  1.3362 -1.0858 -1.0592
  409TIP3   OH222717   0.888   5.177   1.051 -0.2088 -0.0998 -0.7801
  409TIP3    H122718   0.960   5.225   1.092  0.0349 -1.4844  0.4924
  409TIP3    H222719   0.813   5.194   1.108 -0.4230 -0.2578 -1.0131
  410TIP3   OH222720   6.014   4.407  12.007 -0.4465  0.0266  0.2302
  410TIP3    H122721   6.047   4.451  11.928 -1.2224  0.0495 -0.0891
  410TIP3    H222722   6.035   4.468  12.078  0.1059  0.0845  0.0238
  411TIP3   OH222723   1.562   5.785  11.375 -0.2097  0.1092 -0.3029
  411TIP3    H122724   1.578   5.824  11.461  1.3199 -0.3143 -0.3715
  411TIP3    H222725   1.585   5.854  11.313  0.3276 -0.1503 -0.3927
  412TIP3   OH222726   0.084   6.009   2.419 -0.1544  0.3225  0.4209
  412TIP3    H122727   0.158   6.056   2.459  1.9446 -1.3289 -1.2649
  412TIP3    H222728   0.057   6.065   2.346  1.1318 -0.1807 -0.4728
  413TIP3   OH222729   1.868   3.890  13.220  0.3071 -0.4354  0.3520
  413TIP3    H122730   1.953   3.902  13.179 -0.1242  2.2934  0.0674
  413TIP3    H222731   1.822   3.973  13.206 -1.7806 -1.2090  1.9627
  414TIP3   OH222732   1.088   5.604  16.804 -0.3343 -0.1317  0.0383
  414TIP3    H122733   1.042   5.687  16.791  1.8296  0.9973 -1.0026
  414TIP3    H222734   1.180   5.624  16.785  0.6320 -2.2661  1.9089
  415TIP3   OH222735   6.577   6.574   0.777  0.5862 -0.2786 -0.3172
  415TIP3    H122736   6.531   6.572   0.861 -1.9777 -1.7952 -1.6755
  415TIP3    H222737   6.605   6.484   0.762 -0.0983 -0.2924 -1.6485
  416TIP3   OH222738   2.238   4.035  13.980 -0.5664  0.0282  0.7269
  416TIP3    H122739   2.157   4.000  13.943 -0.0918 -2.3384  1.7820
  416TIP3    H222740   2.235   4.011  14.072  0.3994  1.7798  1.2632
  417TIP3   OH222741   0.300   5.499  12.465  0.3611 -0.5907  0.1533
  417TIP3    H122742   0.301   5.410  12.429 -2.6807 -0.1756 -1.2525
  417TIP3    H222743   0.270   5.488  12.555 -0.2068 -1.0165 -0.0788
  418TIP3   OH222744   1.739   0.171   0.961 -0.1289  0.0043  0.3700
  418TIP3    H122745   1.738   0.136   1.050  3.0553 -0.2664  0.4090
  418TIP3    H222746   1.777   0.259   0.970  0.7722 -0.2466 -0.7479
  419TIP3   OH222747   0.461   5.523   2.512 -0.4381 -0.4628  0.1485
  419TIP3    H122748   0.535   5.469   2.483  0.0347  0.3831 -0.2271
  419TIP3    H222749   0.412   5.542   2.432  0.0549  0.6542  0.1105
  420TIP3   OH222750   2.129   1.529  11.717  0.3061 -0.0813  0.0270
  420TIP3    H122751   2.194   1.464  11.692  0.3624  0.2467 -0.6993
  420TIP3    H222752   2.140   1.600  11.654 -0.4115  0.1999  0.2039
  421TIP3   OH222753   4.235   3.836  16.995 -1.1375  0.0272  0.5056
  421TIP3    H122754   4.162   3.773  16.993  1.1665 -2.8549  0.3860
  421TIP3    H222755   4.234   3.870  17.085 -2.3695 -0.2778  0.6326
  422TIP3   OH222756   6.494   6.312   0.391 -0.5886  0.1479  0.1237
  422TIP3    H122757   6.572   6.284   0.440  0.3679  0.8938 -0.9343
  422TIP3    H222758   6.528   6.365   0.319 -2.0312 -0.1286 -0.8072
  423TIP3   OH222759   3.385   1.085   3.080  0.0183 -0.1539 -0.5030
  423TIP3    H122760   3.475   1.068   3.107  0.3288  0.6021 -1.0483
  423TIP3    H222761   3.347   1.136   3.152 -0.2849 -1.2985  0.1751
  424TIP3   OH222762   2.822   4.611   1.147 -0.1268 -0.0751  0.0014
  424TIP3    H122763   2.820   4.593   1.054 -0.6166 -1.3615  0.2471
  424TIP3    H222764   2.902   4.663   1.160  0.6332 -0.9696 -0.9383
  425TIP3   OH222765   6.572   4.538  12.601  0.1248 -0.4163  0.4293
  425TIP3    H122766   6.545   4.567  12.688  1.2731  0.7538  0.4262
  425TIP3    H222767   6.514   4.585  12.540 -0.7700 -1.3401  0.5411
  426TIP3   OH222768   2.921   2.799   0.887  0.4569 -0.3134  0.5147
  426TIP3    H122769   2.865   2.784   0.963 -0.6292 -1.1219 -0.4127
  426TIP3    H222770   2.887   2.739   0.820  2.1015 -0.4285 -0.2515
  427TIP3   OH222771   3.933   1.378  15.514  0.5297  0.0121  0.0165
  427TIP3    H122772   4.007   1.341  15.563  0.4764  0.3624  0.3619
  427TIP3    H222773   3.962   1.378  15.423  0.2816 -1.5151 -0.0875
  428TIP3   OH222774   1.926   2.683   0.560  0.1930 -0.0575  0.4639
  428TIP3    H122775   1.976   2.673   0.479 -0.4844  0.2671 -0.0013
  428TIP3    H222776   1.880   2.766   0.551  0.1514  0.0106  1.2055
  429TIP3   OH222777   1.667   2.138   4.571  0.3230  0.0038  0.1702
  429TIP3    H122778   1.582   2.163   4.605  0.5983  2.0175 -0.4871
  429TIP3    H222779   1.650   2.062   4.514 -1.2767  1.2377 -1.0837
  430TIP3   OH222780   2.839   4.632  11.340  0.0772  0.4734  0.3058
  430TIP3    H122781   2.925   4.596  11.359  1.3474  3.0360 -0.2627
  430TIP3    H222782   2.818   4.599  11.253  1.4963  1.5299 -0.4707
  431TIP3   OH222783   3.129   0.975   2.609 -0.2614 -0.1533  0.1857
  431TIP3    H122784   3.080   1.053   2.636 -0.3936  0.2434 -1.1109
  431TIP3    H222785   3.153   0.932   2.691  0.2857  1.5382  0.9690
  432TIP3   OH222786   5.047   3.708  14.107  0.1835  0.3220 -0.1288
  432TIP3    H122787   5.001   3.719  14.190 -0.4592  0.8368 -0.5339
  432TIP3    H222788   5.017   3.624  14.074 -1.3124  1.1124 -0.8773
  433TIP3   OH222789   2.245   4.313   5.063 -0.7240 -0.7875  0.8258
  433TIP3    H122790   2.326   4.280   5.023  0.5167  1.5424  1.2352
  433TIP3    H222791   2.264   4.314   5.157 -1.8304 -1.6362  1.0782
  434TIP3   OH222792   3.116   4.124   3.468  0.2864 -0.3441  0.2966
  434TIP3    H122793   3.021   4.120   3.479  0.0630 -0.3895 -1.3710
  434TIP3    H222794   3.149   4.144   3.556 -1.4335  2.7100  0.3861
  435TIP3   OH222795   1.075   5.033  13.145 -0.0051 -0.7918 -0.5748
  435TIP3    H122796   1.157   5.076  13.119 -0.0507 -0.2257  0.1474
  435TIP3    H222797   1.032   5.010  13.063 -0.6671  1.8878 -1.0972
  436TIP3   OH222798   0.872   1.498  14.745 -0.3525  0.3236 -0.1604
  436TIP3    H122799   0.918   1.573  14.784  1.9404  0.1408 -2.2438
  436TIP3    H222800   0.808   1.472  14.811  0.5814  2.4598  1.7271
  437TIP3   OH222801   2.250   3.581  12.203  0.2272 -0.1326  0.6338
  437TIP3    H122802   2.339   3.613  12.187 -0.6761  1.0590 -2.8901
  437TIP3    H222803   2.253   3.488  12.182  0.0249  0.5874 -3.5239
  438TIP3   OH222804   1.259   1.876  15.034  0.1677 -0.4305 -0.1670
  438TIP3    H122805   1.243   1.840  15.121  3.3421  1.8226  1.5535
  438TIP3    H222806   1.320   1.814  14.993  0.2956 -0.4584  0.0658
  439TIP3   OH222807   1.965   2.927   5.266  0.0132  0.0016 -0.3017
  439TIP3    H122808   2.009   2.858   5.216 -1.3568 -1.4917  0.4479
  439TIP3    H222809   2.032   2.960   5.326  0.0850 -2.6253  1.2222
  440TIP3   OH222810   4.055   1.038  11.891  0.2818 -0.1456 -0.3522
  440TIP3    H122811   4.149   1.020  11.900  0.2043  0.0843  1.1977
  440TIP3    H222812   4.039   1.110  11.952 -0.6837  0.6714 -1.5244
  441TIP3   OH222813   1.732   1.071   5.011 -0.3759 -0.1550 -0.2814
  441TIP3    H122814   1.783   0.992   4.992 -0.5930  0.0066 -1.6318
  441TIP3    H222815   1.707   1.105   4.925 -0.9952  0.9276  0.3019
  442TIP3   OH222816   3.358   0.145  14.866 -0.5734  1.2700 -0.1794
  442TIP3    H122817   3.367   0.223  14.812  0.6455  0.1303 -1.7079
  442TIP3    H222818   3.264   0.138  14.884 -1.0169  1.6955 -2.1640
  443TIP3   OH222819   5.418   1.108   1.628  0.0870 -0.6409 -0.3382
  443TIP3    H122820   5.337   1.099   1.579  0.1089 -0.5264 -0.3980
  443TIP3    H222821   5.398   1.075   1.715 -0.6757  1.4443  0.3415
  444TIP3   OH222822   0.992   4.940   0.936  0.0075 -0.0930  0.1326
  444TIP3    H122823   0.938   4.887   0.995 -0.4246  0.5242  0.3074
  444TIP3    H222824   0.955   5.028   0.943  1.5537  0.5328  0.8898
  445TIP3   OH222825   5.120   1.783  13.190 -0.5840 -0.4158  0.0605
  445TIP3    H122826   5.195   1.800  13.134 -0.5311  3.7431  1.1039
  445TIP3    H222827   5.057   1.852  13.168 -2.8363 -1.9050  1.3970
  446TIP3   OH222828   3.840   2.841   0.164  0.0013 -0.2918 -0.3119
  446TIP3    H122829   3.767   2.894   0.133  0.7799  0.1373 -1.4749
  446TIP3    H222830   3.848   2.770   0.100  0.0942 -0.7998  0.2517
  447TIP3   OH222831   3.697   6.578  14.733 -0.1899 -0.6209  0.0017
  447TIP3    H122832   3.692   6.654  14.675  0.4834 -0.9554 -0.5043
  447TIP3    H222833   3.661   6.609  14.816 -0.0096  0.2240 -0.2270
  448TIP3   OH222834   2.903   2.883   0.476 -0.1113  0.5044 -0.3573
  448TIP3    H122835   2.827   2.932   0.506  0.1040  0.5554  0.1140
  448TIP3    H222836   2.974   2.912   0.534  0.2317  0.3537 -0.7008
  449TIP3   OH222837   0.671   2.919   2.625 -0.3501  0.0682  0.1468
  449TIP3    H122838   0.695   2.887   2.712 -0.5077  0.2054  0.2442
  449TIP3    H222839   0.734   2.880   2.566  0.6443  1.0884  0.4917
  450TIP3   OH222840   4.726   4.928   2.530  0.3804 -0.1070 -0.2129
  450TIP3    H122841   4.707   4.890   2.615 -0.0808 -0.1701 -0.3438
  450TIP3    H222842   4.644   4.967   2.501 -0.2819 -2.4530 -1.8481
  451TIP3   OH222843   2.586   6.205  11.479 -0.1750 -0.1392  0.3542
  451TIP3    H122844   2.565   6.200  11.573 -2.4746  0.9496 -0.0557
  451TIP3    H222845   2.640   6.283  11.471  0.3487 -0.4424  0.7977
  452TIP3   OH222846   4.038   0.800   5.718  0.3186 -0.2548  0.2143
  452TIP3    H122847   4.062   0.734   5.653 -3.2343 -1.3715 -0.1998
  452TIP3    H222848   3.976   0.755   5.776  1.1144  1.5620  2.6284
  453TIP3   OH222849   1.171   2.735  15.625 -0.1338 -0.0660 -0.2451
  453TIP3    H122850   1.209   2.806  15.677  3.5178 -1.7392 -0.3426
  453TIP3    H222851   1.140   2.672  15.690  0.7509 -0.3405 -0.0659
  454TIP3   OH222852   5.555   1.997  13.760 -0.1700 -0.5263  0.3705
  454TIP3    H122853   5.606   2.073  13.788  0.8266 -0.4486 -1.5253
  454TIP3    H222854   5.497   2.030  13.691 -3.1421 -0.5406  2.6564
  455TIP3   OH222855   2.051   5.307   6.625 -0.0833  0.2387  0.1382
  455TIP3    H122856   2.047   5.395   6.660  1.4165  0.1675  0.5672
  455TIP3    H222857   2.023   5.251   6.697 -0.7095  0.3382 -0.0259
  456TIP3   OH222858   2.608   3.540  15.008  0.2829  0.4052 -0.0665
  456TIP3    H122859   2.608   3.542  14.912  0.1577  0.4672 -0.0650
  456TIP3    H222860   2.686   3.589  15.033 -0.3044  1.3943 -0.1173
  457TIP3   OH222861   0.934   6.100   4.098 -0.7004  0.3413  0.4149
  457TIP3    H122862   1.020   6.137   4.077 -1.5590  1.0165 -2.3147
  457TIP3    H222863   0.953   6.028   4.158  1.5353  1.8121  1.5968
  458TIP3   OH222864   4.838   3.835   1.834  0.1356  0.0744 -0.0261
  458TIP3    H122865   4.917   3.888   1.837 -0.2535  0.8075 -1.5562
  458TIP3    H222866   4.859   3.762   1.777 -0.1879  0.0863 -0.1649
  459TIP3   OH222867   0.025   0.195   0.916 -0.0907  0.8026 -0.2836
  459TIP3    H122868   0.049   0.139   0.990 -0.7160 -0.2313 -0.8395
  459TIP3    H222869  -0.006   0.134   0.849  2.8245  1.4123 -2.4007
  460TIP3   OH222870   6.721   4.597  15.082 -0.0514 -0.2470 -0.6694
  460TIP3    H122871   6.795   4.596  15.143 -0.1216 -1.2019 -0.5756
  460TIP3    H222872   6.649   4.558  15.131 -0.0327 -1.2936 -1.4376
  461TIP3   OH222873   1.686   3.111  15.870 -0.1781  0.1038 -0.0965
  461TIP3    H122874   1.674   3.076  15.782 -0.1136 -0.2692  0.0430
  461TIP3    H222875   1.602   3.152  15.891 -0.2967 -0.0794 -0.2095
  462TIP3   OH222876   2.136   5.475   2.813  0.4552  0.0918  0.1412
  462TIP3    H122877   2.076   5.518   2.751 -0.6549  0.6298  1.5161
  462TIP3    H222878   2.169   5.547   2.867 -0.5450 -0.6076  1.7490
  463TIP3   OH222879   0.193   0.038  12.474 -0.0326  0.3375  0.1633
  463TIP3    H122880   0.131   0.015  12.543  1.2461  2.9974  2.3878
  463TIP3    H222881   0.156   0.116  12.433 -0.4782 -0.8682 -1.8348
  464TIP3   OH222882   1.958   6.224   5.362  0.6505 -0.6938 -0.3589
  464TIP3    H122883   2.019   6.246   5.292  1.0991  0.1933  0.2832
  464TIP3    H222884   1.958   6.301   5.418 -0.0408 -1.2122  0.3725
  465TIP3   OH222885   0.082   0.181  16.795  0.1269 -0.7583  0.3036
  465TIP3    H122886   0.023   0.158  16.723  0.3109 -2.2891  0.6109
  465TIP3    H222887   0.124   0.098  16.819  0.5491 -0.1552  1.7438
  466TIP3   OH222888   0.922   1.443  15.376  0.2316  0.2816 -0.2621
  466TIP3    H122889   0.933   1.538  15.369 -1.3578  0.5557  0.4991
  466TIP3    H222890   1.010   1.410  15.395  0.9294  1.5094 -1.1599
  467TIP3   OH222891   3.815   4.820   4.099 -0.1005  0.1268  0.4464
  467TIP3    H122892   3.906   4.813   4.127 -0.1322 -0.2542  0.4602
  467TIP3    H222893   3.764   4.795   4.177 -0.2987  2.6527  1.2180
  468TIP3   OH222894   5.946   3.461   6.271  0.1062  0.4391  0.0184
  468TIP3    H122895   5.896   3.419   6.200  0.0830 -1.4740  1.0741
  468TIP3    H222896   5.879   3.491   6.333  0.1663 -0.7916  0.7224
  469TIP3   OH222897   3.380   3.899   2.981  0.3485 -0.7131  0.0943
  469TIP3    H122898   3.287   3.903   3.004 -0.1275 -0.4502 -1.6989
  469TIP3    H222899   3.382   3.920   2.888  2.0604 -2.1581 -0.2477
  470TIP3   OH222900   6.123   0.835  11.296 -0.7391  0.2242  0.7113
  470TIP3    H122901   6.136   0.841  11.201 -0.2043  0.4997  0.8001
  470TIP3    H222902   6.171   0.756  11.322 -3.4061 -1.6721  0.3239
  471TIP3   OH222903   0.852   2.412   2.567 -1.3354  0.7541 -0.5454
  471TIP3    H122904   0.825   2.337   2.620 -1.5794 -0.2606 -2.0325
  471TIP3    H222905   0.827   2.388   2.478 -0.8330  2.3443 -1.1425
  472TIP3   OH222906   2.195   5.700   4.355  0.4899 -0.0503 -0.2670
  472TIP3    H122907   2.243   5.626   4.394 -0.3885  0.0079  0.9903
  472TIP3    H222908   2.194   5.767   4.423 -1.5802 -0.1488 -0.1304
  473TIP3   OH222909   5.890   4.626  15.719 -0.0264 -0.6671 -0.0051
  473TIP3    H122910   5.959   4.612  15.783 -0.0119  2.8026  0.8867
  473TIP3    H222911   5.934   4.661  15.642 -0.7025  2.0006  0.7241
  474TIP3   OH222912   0.563   2.997  11.792  0.2671  0.2794  0.8354
  474TIP3    H122913   0.580   3.090  11.805 -0.2603  0.2515  1.8175
  474TIP3    H222914   0.644   2.954  11.819  0.1571  0.3948  1.3492
  475TIP3   OH222915   4.751   6.341  13.182  0.1303  0.2608  0.0703
  475TIP3    H122916   4.666   6.301  13.163  0.4067 -0.0899 -0.4468
  475TIP3    H222917   4.782   6.296  13.261  0.0647  0.0370 -0.0314
  476TIP3   OH222918   1.870   1.683  15.431  0.4821 -0.0584 -0.0849
  476TIP3    H122919   1.831   1.612  15.482  1.2078 -0.3649  0.0544
  476TIP3    H222920   1.817   1.760  15.452  0.8517 -0.1447  1.2415
  477TIP3   OH222921   1.345   2.747   5.643 -0.4699 -0.3761 -0.0268
  477TIP3    H122922   1.298   2.665   5.655 -1.2739 -0.3687 -2.5973
  477TIP3    H222923   1.426   2.736   5.693 -1.3491 -1.9978  1.1173
  478TIP3   OH222924   4.719   2.887   3.072 -0.0037 -0.0468 -0.6867
  478TIP3    H122925   4.633   2.922   3.047 -0.1602 -0.6532 -1.0082
  478TIP3    H222926   4.706   2.853   3.161  0.4573  1.7693  0.1236
  479TIP3   OH222927   0.232   1.090  10.937  0.6570  0.0689  0.5063
  479TIP3    H122928   0.302   1.035  10.903  1.0466 -0.5567  2.1864
  479TIP3    H222929   0.151   1.047  10.909  0.8385  1.3265 -2.2963
  480TIP3   OH222930   4.831   4.569   1.245 -0.1343  0.3186  0.0263
  480TIP3    H122931   4.784   4.542   1.324  1.0653  0.9808  0.9967
  480TIP3    H222932   4.922   4.575   1.272  0.2353  1.0348 -1.2877
  481TIP3   OH222933   1.676   6.235   0.507  0.4184 -0.4623 -0.0186
  481TIP3    H122934   1.750   6.191   0.549  0.9789 -0.1191 -0.6296
  481TIP3    H222935   1.680   6.208   0.415 -0.2325 -0.4584 -0.0564
  482TIP3   OH222936   4.697   5.988   2.895  0.3866 -0.0749  0.3806
  482TIP3    H122937   4.788   6.005   2.870 -0.1695  0.9254 -1.1053
  482TIP3    H222938   4.649   6.064   2.863 -1.3773 -1.7778 -1.2811
  483TIP3   OH222939   2.378   0.870  14.066  0.1389  0.3441 -0.4398
  483TIP3    H122940   2.332   0.882  14.149  1.2805 -0.0127  0.2695
  483TIP3    H222941   2.418   0.956  14.049  1.9420 -0.2080  0.6861
  484TIP3   OH222942   1.526   1.810  13.084 -0.2858  0.0554 -0.0881
  484TIP3    H122943   1.445   1.856  13.059 -0.4549  0.2966  0.8433
  484TIP3    H222944   1.595   1.855  13.036 -0.5486  0.7653  0.1910
  485TIP3   OH222945   6.489   6.008  10.330 -0.9397  0.7016  0.1008
  485TIP3    H122946   6.574   6.043  10.305 -0.5962 -0.2692 -0.1485
  485TIP3    H222947   6.504   5.969  10.416 -0.9514 -0.0294 -0.2128
  486TIP3   OH222948   3.629   5.642   2.335 -0.1025  0.2572  0.5957
  486TIP3    H122949   3.698   5.708   2.326 -2.1464  2.2621 -2.1186
  486TIP3    H222950   3.589   5.637   2.249  0.1188 -5.0181  0.5098
  487TIP3   OH222951   5.286   3.089  15.288 -0.1163 -0.0700  0.4142
  487TIP3    H122952   5.340   3.019  15.323 -1.5610 -0.3277  2.2646
  487TIP3    H222953   5.196   3.057  15.296 -0.7114  1.3837 -0.0975
  488TIP3   OH222954   2.330   5.525   2.564 -0.2630 -0.1485  0.9831
  488TIP3    H122955   2.261   5.504   2.627  0.0166  0.4996  1.5026
  488TIP3    H222956   2.357   5.439   2.530 -0.6229 -0.4781  1.5115
  489TIP3   OH222957   1.088   6.561  11.041 -0.1455 -0.3108  0.2988
  489TIP3    H122958   1.069   6.655  11.033 -1.1039 -0.6652 -2.7579
  489TIP3    H222959   1.173   6.551  10.998 -0.4931 -0.9510 -0.2566
  490TIP3   OH222960   5.415   0.427   0.919  0.3271 -0.3787  0.3760
  490TIP3    H122961   5.410   0.515   0.882 -0.1829 -0.9346 -0.9457
  490TIP3    H222962   5.414   0.440   1.014  1.4443  1.0906  0.2025
  491TIP3   OH222963   5.905   4.293   1.752 -0.1422  0.7416 -0.2023
  491TIP3    H122964   5.919   4.217   1.808 -0.8282  0.1118 -0.8636
  491TIP3    H222965   5.993   4.321   1.727  0.1644  0.8672  0.9460
  492TIP3   OH222966   0.451   4.762   1.431 -0.3459  0.5257  0.1244
  492TIP3    H122967   0.542   4.738   1.446 -0.8371 -2.0663 -0.3764
  492TIP3    H222968   0.446   4.855   1.450  2.9965  1.4149 -2.5504
  493TIP3   OH222969   1.856   6.785   0.431 -0.5878 -0.1294 -0.2226
  493TIP3    H122970   1.768   6.818   0.416 -0.9357 -1.2336 -0.6974
  493TIP3    H222971   1.846   6.690   0.436  0.2726 -0.1678  1.8129
  494TIP3   OH222972   4.502   4.892   4.357  0.1813  0.2223  0.1659
  494TIP3    H122973   4.486   4.861   4.447 -0.8780 -2.5824 -0.8684
  494TIP3    H222974   4.464   4.979   4.355 -0.0979  0.2119  2.3506
  495TIP3   OH222975   6.218   5.353   2.580 -0.0267 -0.0622 -0.9370
  495TIP3    H122976   6.232   5.299   2.658  0.5295  1.9814  0.4651
  495TIP3    H222977   6.232   5.294   2.507 -2.6770 -2.6525  0.4097
  496TIP3   OH222978   6.073   6.324  15.947  0.6004  0.0989  0.5514
  496TIP3    H122979   6.080   6.369  15.863  1.4330  0.3607  0.7508
  496TIP3    H222980   6.111   6.237  15.932  1.4728  0.4175  0.8408
  497TIP3   OH222981   4.848   4.059  13.955 -0.6099 -0.1495 -0.2048
  497TIP3    H122982   4.766   4.058  13.906 -1.1619 -0.6029  0.6983
  497TIP3    H222983   4.835   4.126  14.023 -0.5910 -0.8636  0.5167
  498TIP3   OH222984   5.886   4.514   1.214 -0.2902  0.0072 -0.4755
  498TIP3    H122985   5.834   4.492   1.291 -2.0632 -1.4821 -2.0080
  498TIP3    H222986   5.961   4.455   1.218  0.1290  0.5832  0.5498
  499TIP3   OH222987   1.902   6.214  11.859 -0.6873 -0.0805  0.2824
  499TIP3    H122988   1.823   6.164  11.881 -1.3632  1.3218  1.1682
  499TIP3    H222989   1.883   6.303  11.888 -0.3857  1.2622 -3.1137
  500TIP3   OH222990   1.684   6.046   1.269  0.1300 -0.2450 -0.4511
  500TIP3    H122991   1.653   6.109   1.334  1.2995 -0.4921  0.3616
  500TIP3    H222992   1.664   5.961   1.306  0.2974 -0.3844 -0.6807
  501TIP3   OH222993   6.747   6.219  13.445  0.1952  0.2745 -0.4890
  501TIP3    H122994   6.748   6.172  13.361 -2.5695 -0.5594 -0.1482
  501TIP3    H222995   6.678   6.284  13.435  0.2552  0.5812  0.9438
  502TIP3   OH222996   4.229   4.527  11.544 -0.1191  0.0010 -0.5068
  502TIP3    H122997   4.262   4.528  11.634 -0.7527  1.3669 -0.2539
  502TIP3    H222998   4.295   4.575  11.494 -0.7441  1.0582 -0.3575
  503TIP3   OH222999   0.505   6.116  14.188  0.0110 -0.0875 -0.4366
  503TIP3    H123000   0.420   6.109  14.232  1.4726  0.8960  2.8514
  503TIP3    H223001   0.540   6.027  14.188  0.3106  0.0102  1.2094
  504TIP3   OH223002   3.920   1.846  16.226  0.8035  0.5102 -0.0064
  504TIP3    H123003   3.974   1.785  16.178 -0.8362 -0.8867 -0.1751
  504TIP3    H223004   3.963   1.931  16.215  3.1671 -0.5867  0.2913
  505TIP3   OH223005   3.925   6.352   4.681  0.4789 -0.5019 -0.2334
  505TIP3    H123006   3.880   6.307   4.752 -0.8058 -0.2079 -0.8330
  505TIP3    H223007   3.928   6.444   4.708  1.4265 -0.6281  0.1416
  506TIP3   OH223008   2.011   6.625  12.156  0.5163  0.0245  0.4763
  506TIP3    H123009   1.970   6.601  12.240  0.1972 -0.6573  0.1324
  506TIP3    H223010   2.100   6.592  12.163  1.2289  2.0230  1.4597
  507TIP3   OH223011   4.615   6.240   2.792  0.2008  0.4231 -0.1606
  507TIP3    H123012   4.644   6.245   2.701 -0.0044 -0.6299 -0.2939
  507TIP3    H223013   4.636   6.326   2.829  0.9868  0.5980 -0.9907
  508TIP3   OH223014   3.949   6.455   4.409 -0.8745 -0.4634 -1.4630
  508TIP3    H123015   3.973   6.435   4.500 -1.1584 -1.3832 -1.5867
  508TIP3    H223016   3.859   6.490   4.416  0.1070  2.2796 -1.0858
  509TIP3   OH223017   4.119   0.250   0.623 -0.0501  0.4191 -0.2155
  509TIP3    H123018   4.108   0.343   0.645  0.5028  0.2732  0.7359
  509TIP3    H223019   4.213   0.237   0.619 -0.0756  0.4629 -3.0187
  510TIP3   OH223020   4.618   1.588   2.000 -0.3165  0.2873 -0.5862
  510TIP3    H123021   4.527   1.576   2.028 -0.2927 -0.1166 -0.6846
  510TIP3    H223022   4.663   1.509   2.030  0.7521  1.8927  2.5014
  511TIP3   OH223023   6.721   6.689  13.094 -0.0178 -0.3910 -0.1431
  511TIP3    H123024   6.675   6.657  13.017 -1.2884 -1.3343  0.9635
  511TIP3    H223025   6.791   6.626  13.108  0.3778 -0.0758 -0.6551
  512TIP3   OH223026   0.426   3.103   4.177  0.1746 -0.2780 -0.3859
  512TIP3    H123027   0.509   3.078   4.217  0.4749 -0.3462 -1.0368
  512TIP3    H223028   0.391   3.022   4.140 -0.5225 -0.3855  0.4737
  513TIP3   OH223029   0.884   6.508   5.157 -0.1469  0.1889 -0.4650
  513TIP3    H123030   0.917   6.479   5.072  3.1890  2.4179 -0.1332
  513TIP3    H223031   0.954   6.486   5.218 -1.7637  0.1437  1.4590
  514TIP3   OH223032   5.543   3.396  14.892  0.3814 -0.3360 -0.8858
  514TIP3    H123033   5.623   3.381  14.942 -0.4665 -0.2657  0.5738
  514TIP3    H223034   5.472   3.380  14.955 -0.7873 -1.2419 -2.3439
  515TIP3   OH223035   3.764   3.928   4.161 -0.3457  0.0975 -0.4139
  515TIP3    H123036   3.792   3.961   4.246  0.7390  0.1871 -0.7974
  515TIP3    H223037   3.798   3.991   4.098  1.2398 -1.3876 -1.1123
  516TIP3   OH223038   1.671   3.067   0.280 -0.5435  0.0823 -0.1065
  516TIP3    H123039   1.591   3.017   0.269 -0.9754  0.6414  0.4101
  516TIP3    H223040   1.656   3.149   0.233 -1.6440  1.6520  2.7145
  517TIP3   OH223041   0.424   5.500  12.852 -0.8457  0.3659  0.1610
  517TIP3    H123042   0.491   5.457  12.798 -1.3381 -1.7604  1.1434
  517TIP3    H223043   0.341   5.468  12.817 -1.2289  0.5030  0.9370
  518TIP3   OH223044   6.230   5.278  14.750  0.4211  0.2910 -0.1780
  518TIP3    H123045   6.247   5.263  14.843 -0.7397 -2.0041 -0.2872
  518TIP3    H223046   6.315   5.308  14.716  0.9778  0.7898  1.5005
  519TIP3   OH223047   3.774   1.727   1.190 -0.0203  0.6163 -0.0390
  519TIP3    H123048   3.688   1.694   1.164  0.1890 -0.0116  0.0529
  519TIP3    H223049   3.780   1.812   1.148 -0.1809  0.1346 -1.0727
  520TIP3   OH223050   1.175   5.981  14.386  0.3957 -0.2649 -0.2215
  520TIP3    H123051   1.121   5.911  14.349  0.8607 -1.2166  0.8359
  520TIP3    H223052   1.265   5.951  14.372  0.5948  0.0838  0.2996
  521TIP3   OH223053   3.030   5.934   2.005 -0.4030  0.1956 -0.6466
  521TIP3    H123054   2.958   5.918   2.066 -0.2895 -0.0514 -0.5753
  521TIP3    H223055   2.989   5.942   1.920 -0.4843 -0.2465 -0.6480
  522TIP3   OH223056   1.516   5.733   2.744  0.0625 -0.3399  0.2201
  522TIP3    H123057   1.449   5.772   2.801 -0.1311 -1.3094  0.6722
  522TIP3    H223058   1.597   5.776   2.771  0.1907 -1.6751  2.1521
  523TIP3   OH223059   4.010   1.403  12.261 -0.1084 -0.2034  0.5968
  523TIP3    H123060   4.005   1.384  12.355 -0.9698  0.6646  0.7347
  523TIP3    H223061   3.966   1.488  12.251 -0.5030 -0.5403 -0.6690
  524TIP3   OH223062   4.642   5.790   5.806  0.1270  0.0079 -0.0138
  524TIP3    H123063   4.734   5.780   5.830  1.4027  3.5134 -2.6650
  524TIP3    H223064   4.604   5.843   5.875  0.1210 -1.1359  0.8946
  525TIP3   OH223065   0.845   4.469   0.661 -0.2317  0.3903 -0.3351
  525TIP3    H123066   0.891   4.499   0.739 -1.4702 -0.7651  0.9119
  525TIP3    H223067   0.902   4.492   0.588  0.9647  1.5058  0.9106
  526TIP3   OH223068   0.703   5.393   3.797  0.5063  0.2546 -0.4370
  526TIP3    H123069   0.717   5.336   3.872  1.7808 -0.9518 -1.5539
  526TIP3    H223070   0.761   5.468   3.813 -0.0221  0.5293  0.2708
  527TIP3   OH223071   0.513   1.632   2.025 -0.0594  0.1488 -0.5329
  527TIP3    H123072   0.437   1.690   2.029  0.4798  0.8178  1.8064
  527TIP3    H223073   0.478   1.545   2.044 -0.3708  0.3007 -0.4099
  528TIP3   OH223074   5.386   1.489  16.097  0.1760 -0.2117 -0.2389
  528TIP3    H123075   5.321   1.492  16.167 -0.4136 -1.1441 -0.7349
  528TIP3    H223076   5.468   1.468  16.141  0.4929  2.3718  0.5991
  529TIP3   OH223077   3.911   4.981   2.570 -0.0990  0.2406 -0.0138
  529TIP3    H123078   3.949   4.951   2.653  0.0513  0.1089 -0.1300
  529TIP3    H223079   3.857   5.056   2.594  0.3034  0.4821  0.1387
  530TIP3   OH223080   1.624   5.589  12.663 -0.6619  0.3602  0.4389
  530TIP3    H123081   1.529   5.600  12.660 -0.6279  0.3213 -1.2409
  530TIP3    H223082   1.655   5.670  12.705 -1.2946  1.3895 -0.9891
  531TIP3   OH223083   3.057   3.442  12.173 -0.2734 -0.2777  0.2045
  531TIP3    H123084   3.076   3.367  12.116 -0.4307 -1.2968  1.4335
  531TIP3    H223085   2.970   3.424  12.208 -0.3008  0.4661  0.5415
  532TIP3   OH223086   3.152   0.208   1.468 -0.4578 -0.7186  0.1942
  532TIP3    H123087   3.180   0.168   1.386  0.3110  1.3087 -0.5838
  532TIP3    H223088   3.073   0.257   1.444  0.9616  1.6587  0.0896
  533TIP3   OH223089   3.503   2.581   1.383  0.1501 -0.2456  0.4873
  533TIP3    H123090   3.544   2.498   1.408  1.0026  0.1893  0.5904
  533TIP3    H223091   3.573   2.630   1.341 -0.9829 -0.5506 -1.8868
  534TIP3   OH223092   1.917   1.375   2.084  0.3659  0.6383 -0.0563
  534TIP3    H123093   1.889   1.283   2.093 -1.9303  1.1385 -1.1923
  534TIP3    H223094   2.011   1.373   2.099  1.1221 -2.5028 -3.5520
  535TIP3   OH223095   1.606   4.437  14.638  0.8525 -0.0254 -0.0582
  535TIP3    H123096   1.539   4.498  14.669  1.8329  1.2211 -0.3387
  535TIP3    H223097   1.605   4.366  14.702 -0.8626 -0.1395 -0.1594
  536TIP3   OH223098   3.484   5.097   2.335  0.2511  0.4901  0.1055
  536TIP3    H123099   3.522   5.182   2.357  2.3753 -0.0034 -1.3318
  536TIP3    H223100   3.528   5.071   2.254 -1.7772 -1.1102 -0.5850
  537TIP3   OH223101   3.493   1.084   2.770  0.0922  0.5586 -0.1201
  537TIP3    H123102   3.425   1.041   2.822  0.4280  0.8208  0.5489
  537TIP3    H223103   3.564   1.020   2.765 -0.1565  0.3218 -0.7364
  538TIP3   OH223104   0.094   4.814   0.566  0.0476 -0.2023  0.4677
  538TIP3    H123105   0.063   4.794   0.654  0.5662  1.8590  1.1825
  538TIP3    H223106   0.014   4.832   0.516 -0.3580 -2.8969  0.0416
  539TIP3   OH223107   3.980   4.490  12.619  0.0845 -0.2071 -0.7045
  539TIP3    H123108   3.923   4.424  12.658  0.9903 -0.3503  0.4322
  539TIP3    H223109   3.951   4.573  12.657 -0.5310 -0.0471 -1.5146
  540TIP3   OH223110   6.396   4.353   3.401 -0.3242 -0.0690  0.1199
  540TIP3    H123111   6.305   4.379   3.416 -0.2627 -0.1607  0.6746
  540TIP3    H223112   6.444   4.436   3.393 -0.6544 -0.0077 -1.5018
  541TIP3   OH223113   2.069   1.373  11.055  0.0906 -0.2230  0.3418
  541TIP3    H123114   2.154   1.374  11.012  0.0330 -0.3673  0.2205
  541TIP3    H223115   2.006   1.370  10.983 -0.0914  1.8996  0.3743
  542TIP3   OH223116   5.084   4.763  17.178  1.0847 -0.5614  0.6143
  542TIP3    H123117   5.170   4.805  17.173  1.0918 -0.6722 -0.5471
  542TIP3    H223118   5.023   4.835  17.193  1.1454 -0.1732 -0.8815
  543TIP3   OH223119   0.842   0.002   0.977  0.4226  0.0233  0.3810
  543TIP3    H123120   0.871  -0.013   1.067 -0.2571  0.0850  0.6144
  543TIP3    H223121   0.758   0.046   0.986 -0.1653 -0.9196 -0.2712
  544TIP3   OH223122   0.241   6.409   2.367  0.0328 -0.6990 -0.0280
  544TIP3    H123123   0.332   6.382   2.354  0.3924 -0.9523  2.4914
  544TIP3    H223124   0.246   6.499   2.398 -0.6976 -0.1948 -1.3120
  545TIP3   OH223125   0.716   6.190   1.345 -0.1601 -0.9789 -0.4240
  545TIP3    H123126   0.758   6.198   1.431 -0.5678 -0.0246 -0.3023
  545TIP3    H223127   0.659   6.114   1.354 -2.4210  0.7345  1.1577
  546TIP3   OH223128   0.296   0.865   4.522 -0.3105 -0.2068 -0.4962
  546TIP3    H123129   0.277   0.877   4.615 -0.1060 -0.3754 -0.4328
  546TIP3    H223130   0.345   0.783   4.518  0.4214  0.2368 -0.6627
  547TIP3   OH223131   5.883   0.564  14.008 -0.0357 -0.0190 -0.5345
  547TIP3    H123132   5.819   0.610  13.954 -0.7488 -0.4964 -0.1164
  547TIP3    H223133   5.913   0.630  14.071  2.4196  1.1937 -2.7710
  548TIP3   OH223134   4.427   5.643   2.762  0.5419 -0.2256 -0.1324
  548TIP3    H123135   4.512   5.669   2.798  0.3011  0.5115 -0.0813
  548TIP3    H223136   4.381   5.726   2.746  0.2722 -0.5726 -1.2374
  549TIP3   OH223137   4.008   1.678  13.633 -0.6442 -0.4527  0.2560
  549TIP3    H123138   3.952   1.710  13.563  1.1129  1.0961 -0.5354
  549TIP3    H223139   4.095   1.672  13.593 -0.0292 -1.8083  1.6857
  550TIP3   OH223140   6.280   1.768   2.937 -0.0741 -0.2118  0.4458
  550TIP3    H123141   6.201   1.722   2.910 -1.4877 -0.0943  3.8477
  550TIP3    H223142   6.305   1.726   3.020  0.8972  2.4743  1.6411
  551TIP3   OH223143   3.359   1.636  16.145 -0.1410 -0.3867 -0.2884
  551TIP3    H123144   3.405   1.592  16.216  0.7762  0.5454 -0.2838
  551TIP3    H223145   3.271   1.650  16.179  0.4126  0.4702  0.8652
  552TIP3   OH223146   2.928   5.182  14.895  0.5172 -0.1137  0.4632
  552TIP3    H123147   2.975   5.225  14.966  0.9122  0.7404 -0.2915
  552TIP3    H223148   2.944   5.237  14.818 -0.4145 -0.6656 -0.1594
  553TIP3   OH223149   2.622   0.711  15.978  0.3491  0.1643 -0.1142
  553TIP3    H123150   2.640   0.651  15.906 -0.8322  1.9858 -2.0505
  553TIP3    H223151   2.526   0.717  15.980  0.3619  0.2875  1.5402
  554TIP3   OH223152   6.189   3.737   6.680 -0.4374  0.1378 -0.2285
  554TIP3    H123153   6.137   3.656   6.678 -2.3221  1.1849 -4.2321
  554TIP3    H223154   6.128   3.803   6.714  0.0959  0.4369  0.1512
  555TIP3   OH223155   4.741   2.164   3.939  0.1621 -0.1845  0.2141
  555TIP3    H123156   4.743   2.163   3.844 -3.3943 -0.5954  0.0460
  555TIP3    H223157   4.720   2.255   3.961  1.2021 -0.0359  0.6675
  556TIP3   OH223158   6.600   4.128   4.129 -0.0747  0.5554 -0.2403
  556TIP3    H123159   6.515   4.097   4.097  1.2856 -1.4847 -2.1792
  556TIP3    H223160   6.594   4.119   4.224 -2.0221  0.5092 -0.3215
  557TIP3   OH223161   4.769   4.045   4.900  0.4630  0.3962 -0.5395
  557TIP3    H123162   4.813   4.127   4.923  3.3907 -0.5964 -2.0852
  557TIP3    H223163   4.796   3.983   4.968  1.2139 -0.1263 -1.2895
  558TIP3   OH223164   2.683   1.317   0.647 -0.0187  0.1933  0.3740
  558TIP3    H123165   2.768   1.281   0.673 -0.0350  1.5264  2.5922
  558TIP3    H223166   2.685   1.407   0.679 -2.1185  0.3828  0.1056
  559TIP3   OH223167   2.187   2.382  16.632  0.1278  0.2864  0.4261
  559TIP3    H123168   2.220   2.457  16.581  0.4112 -0.9101 -1.2422
  559TIP3    H223169   2.262   2.353  16.684  0.7894 -0.3755 -0.8502
  560TIP3   OH223170   4.429   2.113  13.025  0.2722 -0.5116  0.4031
  560TIP3    H123171   4.441   2.178  12.955 -0.2868  0.0524  0.8181
  560TIP3    H223172   4.464   2.032  12.988 -0.2458 -0.2888 -0.6343
  561TIP3   OH223173   6.304   4.959  15.896  0.0088  0.4883 -0.1942
  561TIP3    H123174   6.287   5.041  15.848 -1.3157  0.6196  0.4748
  561TIP3    H223175   6.309   4.985  15.988 -1.9352 -0.3693  0.1870
  562TIP3   OH223176   4.096   1.900   6.282 -0.1901 -0.5778 -0.3927
  562TIP3    H123177   4.176   1.939   6.249 -0.6858  0.0202 -0.9109
  562TIP3    H223178   4.111   1.891   6.376  1.2979 -2.4500 -0.7486
  563TIP3   OH223179   4.304   2.789  12.543  0.1895 -0.1034  0.5614
  563TIP3    H123180   4.337   2.750  12.623 -1.0645  0.6296  1.4710
  563TIP3    H223181   4.226   2.737  12.521  0.2537 -0.0018  0.0756
  564TIP3   OH223182   5.687   4.330   0.143 -0.3979 -0.0560  0.1648
  564TIP3    H123183   5.773   4.316   0.104 -1.0240  0.6932 -1.5611
  564TIP3    H223184   5.640   4.248   0.129 -0.0911 -0.3467  0.8052
  565TIP3   OH223185   4.693   2.671   3.805 -0.0312  0.0278  0.0936
  565TIP3    H123186   4.683   2.585   3.765 -0.9289 -0.0359  0.4324
  565TIP3    H223187   4.784   2.673   3.836  1.9240  1.3117 -4.8065
  566TIP3   OH223188   0.457   4.511  12.783 -0.0820 -0.4035  0.3569
  566TIP3    H123189   0.545   4.474  12.791  0.7504  1.6719  1.5573
  566TIP3    H223190   0.453   4.542  12.692  1.1838  1.1766  0.8012
  567TIP3   OH223191   0.965   4.529  12.402 -0.0584  0.0294 -0.2040
  567TIP3    H123192   0.982   4.437  12.380 -1.4536  0.0867 -1.7135
  567TIP3    H223193   1.031   4.578  12.354  0.3053 -0.1328  0.1198
  568TIP3   OH223194   3.206   1.605  15.023  0.0930  0.7847  0.1279
  568TIP3    H123195   3.240   1.576  15.107 -0.8219  1.1005  0.6266
  568TIP3    H223196   3.222   1.699  15.022  0.8633  0.6570 -0.4292
  569TIP3   OH223197   5.626   5.523  14.388 -0.4006  0.1975  0.4899
  569TIP3    H123198   5.620   5.588  14.318  2.9260  1.2148  0.9705
  569TIP3    H223199   5.667   5.569  14.461 -0.7779 -1.6672  1.9686
  570TIP3   OH223200   2.345   0.508   1.118  0.4860 -0.1075  0.4204
  570TIP3    H123201   2.271   0.482   1.064 -0.6821  1.1823  1.3310
  570TIP3    H223202   2.354   0.437   1.182  1.2477 -1.1506 -0.7904
  571TIP3   OH223203   6.336   3.306   2.241  0.4939 -0.0801 -0.1572
  571TIP3    H123204   6.307   3.284   2.330  0.2211 -1.5429 -0.5785
  571TIP3    H223205   6.392   3.232   2.216 -0.1552 -0.1291 -1.5329
  572TIP3   OH223206   0.625   5.651   0.276 -0.4858 -0.1635 -0.9217
  572TIP3    H123207   0.683   5.617   0.209  2.4960  1.3110  0.7006
  572TIP3    H223208   0.650   5.743   0.284 -0.8070 -0.2393  2.0161
  573TIP3   OH223209   0.083   2.831  15.116 -0.2479  0.4668 -0.2077
  573TIP3    H123210   0.139   2.904  15.141 -0.2562  0.3271  0.2399
  573TIP3    H223211  -0.001   2.850  15.158 -0.2245  0.1630 -0.0183
  574TIP3   OH223212   0.898   3.590  12.123 -0.2025 -0.3783  0.4710
  574TIP3    H123213   0.943   3.546  12.051  0.2555  1.7608 -0.6413
  574TIP3    H223214   0.862   3.670  12.083  0.3911  1.0723  2.6726
  575TIP3   OH223215   6.057   0.016   4.570  0.2085  0.1777 -0.5549
  575TIP3    H123216   6.106   0.054   4.644  1.3180  0.3696 -1.3611
  575TIP3    H223217   6.121   0.013   4.499 -0.2764 -1.8514 -0.9525
  576TIP3   OH223218   0.016   6.578  15.505  0.1862 -0.2319  0.2311
  576TIP3    H123219   0.107   6.576  15.535  1.0767 -0.5762 -2.2824
  576TIP3    H223220  -0.026   6.506  15.552  0.9711  0.4484  2.0439
  577TIP3   OH223221   6.820   6.314  12.074  0.0379  0.0136 -0.2251
  577TIP3    H123222   6.836   6.236  12.021  0.7987 -0.3243  0.4781
  577TIP3    H223223   6.901   6.328  12.122 -0.0160  1.3698 -0.4849
  578TIP3   OH223224   5.914   4.304  17.202  0.0750  0.0778  0.3314
  578TIP3    H123225   5.986   4.363  17.225  0.5058 -0.0815 -0.5519
  578TIP3    H223226   5.955   4.217  17.197 -0.2447 -0.0640  0.1589
  579TIP3   OH223227   1.376   0.606  11.322  0.0404  0.2891 -0.4351
  579TIP3    H123228   1.315   0.677  11.341  0.7801  0.7705  0.1464
  579TIP3    H223229   1.365   0.544  11.394  1.1877  1.0180  0.3941
  580TIP3   OH223230   5.513   4.329   5.112  0.6458  0.1941 -0.3057
  580TIP3    H123231   5.444   4.396   5.109  0.6152  0.2077  0.5016
  580TIP3    H223232   5.476   4.254   5.066 -0.3720 -0.1985  1.0709
  581TIP3   OH223233   5.466   5.083  14.949  0.3120  0.2867  0.0515
  581TIP3    H123234   5.550   5.038  14.941  0.0005 -0.2004 -0.5931
  581TIP3    H223235   5.488   5.176  14.943  0.8022  0.1645 -0.1377
  582TIP3   OH223236   4.106   2.348   1.285 -0.3418  0.1360  0.3143
  582TIP3    H123237   4.192   2.378   1.314 -0.1634 -0.1546  0.0865
  582TIP3    H223238   4.104   2.255   1.306 -1.3683  0.5142  2.1733
  583TIP3   OH223239   2.198   5.720  14.830 -0.4149 -0.1046  0.1340
  583TIP3    H123240   2.114   5.766  14.827 -1.5843 -2.1605 -0.8393
  583TIP3    H223241   2.175   5.627  14.830  1.8105 -0.8039  2.9292
  584TIP3   OH223242   6.124   0.888  15.948 -0.4158 -0.1167  0.2680
  584TIP3    H123243   6.187   0.879  15.877 -1.3203  3.8841 -1.3233
  584TIP3    H223244   6.177   0.904  16.026  0.6496  1.5198 -0.7300
  585TIP3   OH223245   3.074   0.772  11.611 -0.0194  0.2308  0.0320
  585TIP3    H123246   3.085   0.701  11.547 -0.4531  0.2095 -0.0231
  585TIP3    H223247   3.085   0.730  11.696  0.1071  0.1707 -0.0137
  586TIP3   OH223248   3.155   1.296  13.947 -0.3589  0.0869  0.4695
  586TIP3    H123249   3.206   1.275  14.026  1.2542 -1.9225 -0.9731
  586TIP3    H223250   3.142   1.211  13.904 -3.0883  0.8409 -0.3747
  587TIP3   OH223251   6.334   3.510  12.248 -0.6023 -0.6730 -0.4998
  587TIP3    H123252   6.429   3.521  12.253 -0.8701  1.7231  2.0026
  587TIP3    H223253   6.312   3.530  12.157  1.3688 -3.3716 -1.7126
  588TIP3   OH223254   1.533   4.731   2.274 -0.2669 -0.2454  0.1705
  588TIP3    H123255   1.553   4.824   2.285 -1.2216 -0.0612  0.5317
  588TIP3    H223256   1.614   4.692   2.244  0.1353  0.7195 -0.0449
  589TIP3   OH223257   2.043   6.483  12.400 -0.2859  0.2478  0.0956
  589TIP3    H123258   1.996   6.515  12.477  0.9368 -0.6082  1.2541
  589TIP3    H223259   2.113   6.428  12.436  1.6919  1.5395 -1.4925
  590TIP3   OH223260   1.998   6.101  12.960 -0.0710  0.3680 -0.0875
  590TIP3    H123261   1.962   6.164  12.898 -0.5457  1.0325  0.8500
  590TIP3    H223262   2.093   6.110  12.952 -0.1269  0.3732 -0.7815
  591TIP3   OH223263   2.460   6.582   4.883  0.1163 -0.1819  0.0581
  591TIP3    H123264   2.518   6.625   4.821 -0.7162  2.6999  1.1299
  591TIP3    H223265   2.373   6.618   4.864  0.0383  1.9942  3.7245
  592TIP3   OH223266   6.775   4.654  13.191 -0.3246 -0.2407 -0.5372
  592TIP3    H123267   6.804   4.704  13.267 -1.6075 -0.7792  0.3581
  592TIP3    H223268   6.698   4.702  13.159  0.5521  0.3132 -1.8968
  593TIP3   OH223269   0.530   1.521  13.464  0.4972 -0.0786 -0.2711
  593TIP3    H123270   0.469   1.590  13.486  0.4906 -0.7722  2.2604
  593TIP3    H223271   0.475   1.446  13.440  0.2986 -0.5265  1.4391
  594TIP3   OH223272   1.336   6.699   5.266  0.1147 -0.3415  0.0141
  594TIP3    H123273   1.414   6.692   5.212  0.6345  0.2796  0.6565
  594TIP3    H223274   1.345   6.629   5.331 -1.2970 -2.1340 -1.6158
  595TIP3   OH223275   5.668   4.157  14.679 -0.1810  0.0604  0.8949
  595TIP3    H123276   5.747   4.181  14.728  0.3467 -0.8890  0.5342
  595TIP3    H223277   5.671   4.062  14.672 -1.5004 -0.0228  1.0917
  596TIP3   OH223278   4.018   3.436   2.003  0.2214  0.5400  0.4855
  596TIP3    H123279   4.074   3.505   1.967  1.0972 -0.6475 -0.5368
  596TIP3    H223280   3.987   3.471   2.087 -2.4440  3.7291 -1.5754
  597TIP3   OH223281   0.072   0.692   1.868  0.0950  0.3194 -0.3561
  597TIP3    H123282   0.164   0.708   1.887 -0.1958  2.9608 -0.7323
  597TIP3    H223283   0.025   0.725   1.945 -0.5870  0.8449 -0.9786
  598TIP3   OH223284   6.057   2.601  12.294 -0.3530 -0.1081 -0.2475
  598TIP3    H123285   5.979   2.615  12.348 -1.2781 -1.0936 -1.2702
  598TIP3    H223286   6.077   2.687  12.257 -0.8947  0.1787  0.1151
  599TIP3   OH223287   0.197   2.133  15.871 -0.1130  0.1175 -0.8280
  599TIP3    H123288   0.148   2.111  15.950 -1.5906  0.6032 -1.5692
  599TIP3    H223289   0.225   2.224  15.886 -0.5363  0.2661 -0.9321
  600TIP3   OH223290   0.688   6.223  14.876 -0.7292  0.0627 -0.4663
  600TIP3    H123291   0.777   6.232  14.841 -0.8114 -0.1610 -0.7354
  600TIP3    H223292   0.651   6.149  14.828 -1.2929  0.5674 -0.8213
  601TIP3   OH223293   4.879   1.382  15.703  0.4329 -0.1779  0.1616
  601TIP3    H123294   4.814   1.444  15.736 -0.3832  0.7916 -2.8983
  601TIP3    H223295   4.931   1.433  15.641  1.9561 -1.7669  0.0569
  602TIP3   OH223296   5.598   4.071  12.881  0.2241 -0.1459 -0.1862
  602TIP3    H123297   5.644   4.154  12.891  1.0282 -0.5869 -0.1182
  602TIP3    H223298   5.652   4.021  12.819 -0.1556 -0.6776 -0.0970
  603TIP3   OH223299   6.407   6.610  16.621 -0.3518  0.7323 -0.5250
  603TIP3    H123300   6.425   6.554  16.696 -1.6105  1.1145  0.0956
  603TIP3    H223301   6.492   6.622  16.579 -0.1199 -2.0406 -1.0052
  604TIP3   OH223302   3.788   1.704   5.799 -0.1878 -0.1740 -0.1973
  604TIP3    H123303   3.838   1.739   5.873  0.9388  0.6680 -1.3306
  604TIP3    H223304   3.782   1.777   5.737 -1.0881 -0.8762 -0.9647
  605TIP3   OH223305   0.404   1.516   3.866 -0.5711  0.0197 -0.3360
  605TIP3    H123306   0.393   1.477   3.780 -0.1243  0.6949 -0.7130
  605TIP3    H223307   0.476   1.578   3.855  0.8343 -1.2782  1.0038
  606TIP3   OH223308   2.948   0.700  10.929 -0.0560 -0.1315  0.6894
  606TIP3    H123309   2.857   0.672  10.937 -0.3242  0.5418  0.1665
  606TIP3    H223310   3.000   0.622  10.948 -0.7017 -0.1769  2.4716
  607TIP3   OH223311   4.183   1.705  15.385  0.0622  0.1647  0.8973
  607TIP3    H123312   4.161   1.798  15.391 -1.0893 -0.1315  1.7993
  607TIP3    H223313   4.163   1.681  15.295 -0.0125  0.6928  0.7686
  608TIP3   OH223314   4.164   5.821  10.684  0.1000 -0.5224  0.2057
  608TIP3    H123315   4.107   5.879  10.634  0.0756 -0.9714 -0.3080
  608TIP3    H223316   4.212   5.771  10.617 -0.4854 -1.6836  0.6222
  609TIP3   OH223317   0.594   2.469  15.118 -0.5242 -0.4393 -0.5182
  609TIP3    H123318   0.646   2.510  15.187  1.0303  1.0425 -2.4122
  609TIP3    H223319   0.571   2.383  15.153  0.8665 -0.0669  1.5169
  610TIP3   OH223320   1.394   0.830   2.922 -0.1204 -0.1690 -0.1088
  610TIP3    H123321   1.322   0.784   2.880 -0.2150  0.9184 -1.2048
  610TIP3    H223322   1.362   0.920   2.932  0.8897  0.2080 -0.1486
  611TIP3   OH223323   0.225   2.164  16.689  0.8259 -0.0149 -0.5041
  611TIP3    H123324   0.238   2.069  16.693  1.2594 -0.0332 -1.6961
  611TIP3    H223325   0.235   2.194  16.779  2.2845 -0.9126 -0.3346
  612TIP3   OH223326   5.312   4.718  16.855 -0.1057 -0.0415  0.3274
  612TIP3    H123327   5.226   4.697  16.819 -0.6950  0.2092  1.5277
  612TIP3    H223328   5.330   4.807  16.825  0.3507 -0.5626 -1.0157
  613TIP3   OH223329   1.061   6.719  15.813 -0.3341 -0.6616 -0.0011
  613TIP3    H123330   1.061   6.813  15.795  0.2850 -0.8133 -0.8491
  613TIP3    H223331   1.010   6.711  15.893 -1.9254  0.1995 -0.8785
  614TIP3   OH223332   1.149   3.924  13.736  0.7314 -0.3953 -1.1395
  614TIP3    H123333   1.083   3.855  13.730  1.1976 -0.7593 -2.4486
  614TIP3    H223334   1.105   4.002  13.701  0.3344 -0.1130 -0.0377
  615TIP3   OH223335   0.162   4.515  11.411  0.1297  0.3287  0.0316
  615TIP3    H123336   0.247   4.482  11.440 -0.0555 -1.6551 -1.5164
  615TIP3    H223337   0.106   4.438  11.407 -0.5886  0.8839 -2.8851
  616TIP3   OH223338   4.379   4.158  16.076 -0.0884 -0.6549 -0.5946
  616TIP3    H123339   4.386   4.086  16.139  2.7107  0.4874  0.5342
  616TIP3    H223340   4.462   4.156  16.028  1.1099  3.1140  1.0081
  617TIP3   OH223341   4.935   4.408  16.819  0.3494  0.4158  0.5473
  617TIP3    H123342   4.919   4.314  16.820  1.8019  0.1022 -1.3997
  617TIP3    H223343   4.932   4.434  16.911 -0.0020 -1.5369  1.1179
  618TIP3   OH223344   1.133   3.340  15.264  0.5786  0.1207  0.8418
  618TIP3    H123345   1.119   3.311  15.355 -1.7386 -0.9951  0.2181
  618TIP3    H223346   1.094   3.427  15.261 -0.7730 -0.4494  0.6280
  619TIP3   OH223347   4.571   1.503   4.146  0.4597 -0.0432  0.5012
  619TIP3    H123348   4.647   1.510   4.089 -0.3714 -1.2578 -0.8320
  619TIP3    H223349   4.567   1.410   4.170 -1.1515 -0.2406 -0.3337
  620TIP3   OH223350   5.160   2.023  12.236 -0.7198 -0.3470  0.1755
  620TIP3    H123351   5.161   2.117  12.217 -2.3139 -0.2551  0.3993
  620TIP3    H223352   5.067   2.002  12.249 -0.4591 -2.0891 -0.5043
  621TIP3   OH223353   2.541   2.914  12.949 -0.1757 -0.3300 -0.3139
  621TIP3    H123354   2.612   2.850  12.953  0.9472  0.6208 -2.8412
  621TIP3    H223355   2.471   2.870  12.901 -0.5918 -0.6071  0.5144
  622TIP3   OH223356   6.540   5.365   1.637  0.3045 -0.4153  0.3397
  622TIP3    H123357   6.614   5.334   1.585  1.5133 -1.4793  2.5525
  622TIP3    H223358   6.480   5.291   1.641 -0.9088  0.4165 -1.3765
  623TIP3   OH223359   1.409   3.809  14.923 -0.4669  0.4918 -0.0954
  623TIP3    H123360   1.378   3.779  14.838 -1.8081  1.8847 -0.1249
  623TIP3    H223361   1.463   3.736  14.956 -1.2158 -0.7011 -1.4212
  624TIP3   OH223362   4.177   1.413   4.299  0.1610 -0.7078 -0.3488
  624TIP3    H123363   4.247   1.439   4.240 -0.5532  1.4997 -0.3050
  624TIP3    H223364   4.098   1.410   4.244 -0.0967 -1.0153  0.0291
  625TIP3   OH223365   0.508   3.195  11.039  0.5937  0.3306  0.3162
  625TIP3    H123366   0.565   3.180  11.115  0.0719 -1.5963  0.3793
  625TIP3    H223367   0.523   3.120  10.982 -1.6810 -0.1391  0.2332
  626TIP3   OH223368   6.615   4.801  12.743  0.1512  0.2066 -0.4143
  626TIP3    H123369   6.662   4.776  12.663  0.4769 -0.6101  0.0304
  626TIP3    H223370   6.683   4.824  12.806 -0.0867  0.1516 -0.1342
  627TIP3   OH223371   5.873   0.229   4.548  0.3097 -0.0196  0.4979
  627TIP3    H123372   5.960   0.219   4.584  1.1772  0.1846 -1.4252
  627TIP3    H223373   5.862   0.155   4.489 -0.0187  0.9571 -0.7261
  628TIP3   OH223374   2.790   2.003   5.424 -0.5688  0.5805  0.0276
  628TIP3    H123375   2.792   2.052   5.342  0.1949 -1.0608 -1.0004
  628TIP3    H223376   2.815   1.914   5.399 -1.2148 -0.1862  1.9089
  629TIP3   OH223377   4.362   3.054   0.227  0.4794  0.4059  0.4329
  629TIP3    H123378   4.315   3.136   0.246  0.5753  0.3364  0.9673
  629TIP3    H223379   4.438   3.082   0.175  0.5079  0.6545  0.6075
  630TIP3   OH223380   2.602   5.125   1.634 -0.0007  0.2694  0.1175
  630TIP3    H123381   2.608   5.157   1.543  1.0011 -0.2292 -0.0051
  630TIP3    H223382   2.514   5.151   1.662 -0.5424 -0.0386 -1.1791
  631TIP3   OH223383   2.431   3.925  16.961 -0.0121 -0.1328  0.1474
  631TIP3    H123384   2.484   3.936  17.040 -0.4399 -0.8612  0.5442
  631TIP3    H223385   2.459   3.997  16.903 -1.5194  2.0333  1.9635
  632TIP3   OH223386   3.698   2.341  16.216  0.4319  0.2600  0.1528
  632TIP3    H123387   3.751   2.328  16.295 -0.2281 -0.2908  0.5155
  632TIP3    H223388   3.613   2.302  16.237  0.3022 -0.0569 -0.8951
  633TIP3   OH223389   5.312   0.305  16.452  0.0176 -0.9089  0.6823
  633TIP3    H123390   5.391   0.330  16.403 -1.1430 -1.3191 -1.5408
  633TIP3    H223391   5.312   0.362  16.529  0.7289  1.5282 -0.9860
  634TIP3   OH223392   5.738   1.308   3.383 -0.1877  0.0533 -0.2519
  634TIP3    H123393   5.764   1.287   3.473  1.7598  0.9288 -0.5702
  634TIP3    H223394   5.674   1.241   3.361 -1.0015  0.0166  1.9059
  635TIP3   OH223395   0.991   5.571  11.249  0.6600 -0.0738 -0.6376
  635TIP3    H123396   1.042   5.600  11.324  0.0821  1.0708 -0.6569
  635TIP3    H223397   1.025   5.484  11.228 -0.2269 -1.1403  1.9395
  636TIP3   OH223398   4.911   2.245  11.885  0.0012  0.3238  0.1787
  636TIP3    H123399   4.989   2.251  11.939 -0.6426  0.3120  1.1493
  636TIP3    H223400   4.942   2.254  11.795  1.1238  0.1502  0.5376
  637TIP3   OH223401   0.594   6.798   4.689 -0.3263 -0.0221 -0.0504
  637TIP3    H123402   0.649   6.737   4.640  1.0820  1.3897 -0.3011
  637TIP3    H223403   0.505   6.766   4.674  0.3345 -1.7989 -0.4335
  638TIP3   OH223404   3.774   3.277   6.502  0.4063 -0.1491 -0.3126
  638TIP3    H123405   3.866   3.304   6.505  0.4248  0.0384 -1.9694
  638TIP3    H223406   3.762   3.224   6.581  0.9009  2.9562  2.0373
  639TIP3   OH223407   3.110   5.951  15.317 -0.5707  0.4261 -0.6586
  639TIP3    H123408   3.205   5.965  15.321 -0.7231  1.4349 -0.3886
  639TIP3    H223409   3.082   5.955  15.409 -0.4028 -3.6506 -0.2532
  640TIP3   OH223410   2.928   4.140  11.035  0.0510  0.2503  0.2534
  640TIP3    H123411   2.885   4.088  10.967  1.1764 -0.1256 -0.1968
  640TIP3    H223412   2.976   4.207  10.986 -0.0230  0.6637  0.7433
  641TIP3   OH223413   4.382   6.433  15.261 -0.0900 -0.0538  0.3828
  641TIP3    H123414   4.355   6.521  15.287 -1.1438 -0.3231  0.2397
  641TIP3    H223415   4.351   6.424  15.171 -1.4420 -1.1412  0.9243
  642TIP3   OH223416   5.067   6.710  15.743 -0.5708  0.2728 -0.8896
  642TIP3    H123417   5.107   6.737  15.660  0.2311 -0.2947 -0.6988
  642TIP3    H223418   5.037   6.792  15.782 -0.5707  0.5918 -1.5452
  643TIP3   OH223419   1.873   5.735   4.762 -0.1781 -0.4049  0.2942
  643TIP3    H123420   1.876   5.652   4.715 -0.2935 -0.6033  0.6378
  643TIP3    H223421   1.948   5.731   4.822 -0.9740 -0.8348  1.2724
  644TIP3   OH223422   1.828   3.182  12.628  0.2962  0.2506 -0.2362
  644TIP3    H123423   1.818   3.107  12.688  1.4798  0.2115 -0.0659
  644TIP3    H223424   1.794   3.257  12.678  1.2638  0.2167  0.4928
  645TIP3   OH223425   2.507   3.724  12.340  0.5974  0.0229  0.1922
  645TIP3    H123426   2.585   3.775  12.364  1.7129 -0.9054 -1.2404
  645TIP3    H223427   2.493   3.745  12.247 -0.8751  0.1707  0.4318
  646TIP3   OH223428   6.194   3.693   4.452  0.3855  0.0012 -0.7672
  646TIP3    H123429   6.161   3.604   4.464 -0.4750  0.4641  0.5623
  646TIP3    H223430   6.120   3.749   4.475  1.6919  1.0790  1.1151
  647TIP3   OH223431   1.001   5.468  15.075  0.1314 -0.0139 -0.0050
  647TIP3    H123432   0.930   5.444  15.015  0.6710 -2.8716  0.3528
  647TIP3    H223433   0.971   5.550  15.116 -1.6704  0.3264 -1.8386
  648TIP3   OH223434   1.314   5.916   0.044  0.3063  0.5518 -0.5724
  648TIP3    H123435   1.302   5.833  -0.002  1.2891 -0.2201  0.5101
  648TIP3    H223436   1.380   5.962  -0.007  0.3802  0.3005 -0.7062
  649TIP3   OH223437   0.985   6.501   3.055 -0.0986 -0.6826  0.4401
  649TIP3    H123438   1.045   6.469   2.988  1.0386  0.6426  0.7811
  649TIP3    H223439   1.039   6.513   3.132 -1.0026 -0.3471  1.0389
  650TIP3   OH223440   3.525   5.065   5.442  0.0771 -0.3870  0.3213
  650TIP3    H123441   3.606   5.088   5.488 -0.6555  1.4875  0.7458
  650TIP3    H223442   3.461   5.129   5.473 -0.9508 -0.2906 -1.8306
  651TIP3   OH223443   2.199   3.406   0.055 -0.3470  0.5525  0.4783
  651TIP3    H123444   2.290   3.434   0.061  1.3064 -3.7796 -0.6649
  651TIP3    H223445   2.176   3.382   0.145 -0.3460  1.5824  0.7589
  652TIP3   OH223446   2.749   3.666   5.466  0.4648  0.5094 -0.2315
  652TIP3    H123447   2.716   3.632   5.549  0.2002  0.0998 -0.5023
  652TIP3    H223448   2.781   3.754   5.488 -0.2133  0.6648  0.1750
  653TIP3   OH223449   0.913   6.084  16.901 -0.3523 -0.3192 -0.0710
  653TIP3    H123450   0.829   6.124  16.880 -0.5147 -0.4977  0.2330
  653TIP3    H223451   0.903   6.053  16.991 -0.0916 -0.6884 -0.1699
  654TIP3   OH223452   2.338   4.299   0.543  0.5229 -0.0985  0.2310
  654TIP3    H123453   2.285   4.233   0.498  0.3543  0.2437 -0.0818
  654TIP3    H223454   2.421   4.299   0.495 -0.2864  1.5707 -1.3202
  655TIP3   OH223455   5.624   6.270   0.149  0.8243  0.0951  0.3746
  655TIP3    H123456   5.641   6.326   0.225 -2.2728  1.7821 -0.0081
  655TIP3    H223457   5.573   6.197   0.183  1.0572 -0.1549  0.1913
  656TIP3   OH223458   1.246   3.808   1.097  0.0423  0.0534 -0.4570
  656TIP3    H123459   1.170   3.850   1.137 -1.2261 -2.6254  0.1562
  656TIP3    H223460   1.234   3.821   1.003 -1.4386 -0.6694 -0.4000
  657TIP3   OH223461   0.586   0.327  11.748 -0.1981  0.4801  0.4926
  657TIP3    H123462   0.555   0.237  11.733 -2.5556  1.2771  0.1590
  657TIP3    H223463   0.595   0.363  11.660 -0.9824  1.0900  0.6562
  658TIP3   OH223464   1.414   1.583  12.385  0.0548  0.0533 -0.3746
  658TIP3    H123465   1.419   1.617  12.295  2.2793  1.0324  0.0374
  658TIP3    H223466   1.478   1.512  12.387 -0.7695 -0.6956  0.1804
  659TIP3   OH223467   2.800   2.965   3.143  0.2051 -0.3823  0.3560
  659TIP3    H123468   2.786   2.960   3.049 -0.6077 -0.0659  0.4520
  659TIP3    H223469   2.882   2.918   3.158 -0.4228 -1.7269 -0.3269
  660TIP3   OH223470   5.213   5.639   4.230 -0.0889  0.3956 -0.0457
  660TIP3    H123471   5.183   5.708   4.289 -0.4549  0.0902  0.1266
  660TIP3    H223472   5.137   5.617   4.177  0.2169  0.6108 -0.5822
  661TIP3   OH223473   4.104   4.989   0.465  0.1708 -0.4114 -0.2705
  661TIP3    H123474   4.055   4.924   0.515 -1.5704  0.6770 -0.5002
  661TIP3    H223475   4.183   5.005   0.518  0.5226 -2.4457 -0.0707
  662TIP3   OH223476   6.207   2.312   4.409  0.0135 -0.3561 -0.3316
  662TIP3    H123477   6.143   2.273   4.350  0.2238 -2.1057  0.5323
  662TIP3    H223478   6.221   2.245   4.477  2.1138  0.3212 -0.0279
  663TIP3   OH223479   4.156   0.308   3.029  0.1749  0.0707  0.2790
  663TIP3    H123480   4.088   0.248   2.997  0.1800  1.0244 -1.6581
  663TIP3    H223481   4.113   0.358   3.098 -0.4562 -0.7305  0.4843
  664TIP3   OH223482   0.556   2.068   3.859 -0.7472 -0.1056  0.2070
  664TIP3    H123483   0.513   2.139   3.907 -0.0712  0.1525  0.4440
  664TIP3    H223484   0.617   2.031   3.923 -0.8045 -0.6373 -0.0447
  665TIP3   OH223485   3.887   3.949  13.870  0.1965  0.8257  0.0913
  665TIP3    H123486   3.959   3.906  13.917  0.1481  0.9947  0.3254
  665TIP3    H223487   3.828   3.978  13.940 -0.4378  0.0919 -0.1250
  666TIP3   OH223488   1.939   6.737   3.413 -0.4775 -0.1289  0.3988
  666TIP3    H123489   1.993   6.781   3.480  1.3758 -2.1002  0.3171
  666TIP3    H223490   2.000   6.678   3.369 -2.5640 -1.8492 -0.3208
  667TIP3   OH223491   3.578   0.809   2.837 -0.6989 -0.1559 -0.0637
  667TIP3    H123492   3.602   0.753   2.763 -1.0551 -1.7583  0.9598
  667TIP3    H223493   3.659   0.817   2.888 -0.8306 -0.4237  0.1956
  668TIP3   OH223494   1.509   1.363  16.091 -0.0643 -0.1316 -0.4096
  668TIP3    H123495   1.526   1.269  16.085  0.4098  0.0190 -1.5926
  668TIP3    H223496   1.555   1.389  16.171 -1.1919 -1.0933  0.5958
  669TIP3   OH223497   3.261   6.203  16.400 -0.2230 -0.4693 -0.0326
  669TIP3    H123498   3.216   6.161  16.327  0.5068 -1.2365 -0.0533
  669TIP3    H223499   3.221   6.290  16.406  0.7406  0.2326 -2.3790
  670TIP3   OH223500   3.545   4.068   3.653  0.3206  0.3692 -0.6418
  670TIP3    H123501   3.611   4.012   3.696 -0.0832  0.9337  0.7790
  670TIP3    H223502   3.568   4.157   3.681  0.1071  0.7841 -1.7356
  671TIP3   OH223503   5.383   3.266  12.957  1.0147 -0.3098 -0.3101
  671TIP3    H123504   5.422   3.288  12.873  1.7481 -2.5865 -0.6443
  671TIP3    H223505   5.336   3.184  12.941 -0.1443  0.0346  1.1485
  672TIP3   OH223506   2.618   0.853   4.458  0.8970  0.1100 -0.2264
  672TIP3    H123507   2.686   0.905   4.501  1.8285 -1.3952  0.1905
  672TIP3    H223508   2.547   0.849   4.522  1.0299  0.4259 -0.0580
  673TIP3   OH223509   4.853   3.182  13.195 -0.5038  0.1449 -0.1914
  673TIP3    H123510   4.894   3.116  13.139 -1.0613 -0.0161 -0.4065
  673TIP3    H223511   4.927   3.235  13.226 -0.2069  0.3883 -1.2616
  674TIP3   OH223512   6.267   6.100   5.904 -0.1888 -0.1895 -0.5858
  674TIP3    H123513   6.306   6.140   5.982  2.9383 -1.1643 -1.4817
  674TIP3    H223514   6.224   6.173   5.859 -1.9093  0.4222  1.8572
  675TIP3   OH223515   1.174   3.071  12.735  0.4682  0.5386 -1.2001
  675TIP3    H123516   1.079   3.083  12.730 -0.3776 -1.5559  3.8066
  675TIP3    H223517   1.189   2.981  12.706  0.3330 -0.1603  0.7095
  676TIP3   OH223518   3.206   1.178   4.415  0.5931  0.7819 -0.6724
  676TIP3    H123519   3.272   1.245   4.398  0.8745  0.3286 -1.4343
  676TIP3    H223520   3.238   1.101   4.368  1.0941 -0.3847  1.4286
  677TIP3   OH223521   5.865   4.198   5.157 -0.2295  0.5644  0.5050
  677TIP3    H123522   5.797   4.236   5.213 -0.7660  0.5027 -0.0942
  677TIP3    H223523   5.918   4.145   5.216 -0.5925  0.7631  1.0137
  678TIP3   OH223524   4.310   2.423  16.759  0.7144  0.0116 -0.1968
  678TIP3    H123525   4.347   2.335  16.752 -0.7321 -0.5425 -1.6487
  678TIP3    H223526   4.227   2.410  16.804  0.6996  0.7146 -0.0121
  679TIP3   OH223527   6.590   5.582   5.434 -0.0840  0.4942 -0.3228
  679TIP3    H123528   6.665   5.574   5.376 -1.6298 -1.6715 -2.1891
  679TIP3    H223529   6.528   5.637   5.386 -0.1890  1.2954  0.6854
  680TIP3   OH223530   4.114   5.376   4.632 -0.3540 -0.0555 -0.2936
  680TIP3    H123531   4.115   5.382   4.536 -1.3662 -0.2708 -0.3251
  680TIP3    H223532   4.088   5.463   4.662 -0.4910 -0.1178 -0.2317
  681TIP3   OH223533   4.018   3.850  16.685  0.1810 -0.2288  0.2869
  681TIP3    H123534   4.037   3.794  16.761 -0.2187  0.5006  0.9328
  681TIP3    H223535   4.055   3.935  16.708 -2.1858  0.7301  0.8030
  682TIP3   OH223536   2.453   6.175   2.340 -0.2503 -0.3462  0.0043
  682TIP3    H123537   2.394   6.205   2.271 -0.5522  1.2561  0.8956
  682TIP3    H223538   2.397   6.126   2.400 -0.4455  0.1467  0.2307
  683TIP3   OH223539   0.968   4.699  13.679 -0.2003 -0.1159  0.4909
  683TIP3    H123540   1.020   4.669  13.605 -0.7296  1.4464 -0.5487
  683TIP3    H223541   0.934   4.618  13.718  1.6622 -1.0771  0.2466
  684TIP3   OH223542   4.887   0.711   1.456 -0.1811 -0.2530  0.0182
  684TIP3    H123543   4.977   0.709   1.488 -0.4844 -1.1425  0.8361
  684TIP3    H223544   4.833   0.685   1.531 -1.0587 -0.4836 -0.6683
  685TIP3   OH223545   5.253   1.318  16.929  0.0286 -0.0483 -0.1905
  685TIP3    H123546   5.205   1.257  16.985  0.7849 -0.3494  0.1465
  685TIP3    H223547   5.303   1.372  16.990 -1.0892  1.3286 -0.4484
  686TIP3   OH223548   4.005   5.597   3.493 -0.2655  0.5503  0.3451
  686TIP3    H123549   3.986   5.558   3.408  0.4262  1.6230 -0.3241
  686TIP3    H223550   4.062   5.671   3.473  0.1828  0.6161  1.7781
  687TIP3   OH223551   4.911   5.800   5.879  0.1926  0.2123  0.2968
  687TIP3    H123552   4.971   5.837   5.944  0.5979 -1.1063  0.7244
  687TIP3    H223553   4.968   5.767   5.810  0.1133 -1.9351  1.1593
  688TIP3   OH223554   0.611   5.121   1.873 -0.3400 -0.5814  0.2737
  688TIP3    H123555   0.641   5.197   1.823 -0.8982  0.5896  1.6640
  688TIP3    H223556   0.516   5.123   1.866 -0.3020 -2.2117 -1.1478
  689TIP3   OH223557   4.476   5.798   0.299  0.1278  0.3526 -0.1762
  689TIP3    H123558   4.524   5.775   0.220  0.2298 -0.3248  0.0773
  689TIP3    H223559   4.531   5.766   0.371 -0.2018  0.5059  0.1504
  690TIP3   OH223560   1.036   5.858  10.851  0.1662 -0.1306 -0.2847
  690TIP3    H123561   0.957   5.895  10.813  0.6691  0.1252 -1.1044
  690TIP3    H223562   1.055   5.915  10.926  1.2541  1.7094 -1.8572
  691TIP3   OH223563   2.329   6.347  16.673 -0.5159 -0.1790 -0.5794
  691TIP3    H123564   2.367   6.268  16.635 -0.1063 -1.0028  1.4197
  691TIP3    H223565   2.314   6.325  16.765  0.2992  2.2952  0.2363
  692TIP3   OH223566   4.037   5.986  11.664 -0.4893 -0.2524 -0.2377
  692TIP3    H123567   4.065   5.911  11.718 -0.9013 -0.7186 -0.6611
  692TIP3    H223568   4.113   6.044  11.662  0.9951 -2.0933 -2.4594
  693TIP3   OH223569   1.213   0.501  16.576 -0.7318  0.1554  0.1923
  693TIP3    H123570   1.264   0.553  16.514 -2.4253  1.7329  0.0539
  693TIP3    H223571   1.201   0.558  16.651 -0.9493 -0.7767  0.8757
  694TIP3   OH223572   2.569   0.880  11.755 -0.4666  0.2125  0.1772
  694TIP3    H123573   2.597   0.844  11.839  0.4831 -0.4661 -0.4060
  694TIP3    H223574   2.635   0.849  11.693  0.7468  3.4053 -0.3260
  695TIP3   OH223575   6.442   2.193  14.307 -0.4781  0.5081 -0.0474
  695TIP3    H123576   6.506   2.242  14.359 -1.2771  1.1209  0.3878
  695TIP3    H223577   6.419   2.118  14.362 -0.6718  0.6846  0.1158
  696TIP3   OH223578   1.789   5.280   6.349 -0.7409  0.1141 -0.9178
  696TIP3    H123579   1.778   5.187   6.371  4.5296 -0.6093  0.1544
  696TIP3    H223580   1.788   5.324   6.434 -1.9488  0.8936 -1.3175
  697TIP3   OH223581   5.397   3.694  13.873 -0.2030  0.1220  1.1701
  697TIP3    H123582   5.484   3.727  13.893 -0.3564  1.2560  0.1344
  697TIP3    H223583   5.352   3.689  13.957  0.3095  1.2285  1.5288
  698TIP3   OH223584   0.619   1.148  16.661 -0.0294  0.2242 -0.0137
  698TIP3    H123585   0.687   1.127  16.726  0.7047 -2.0049 -1.4025
  698TIP3    H223586   0.665   1.143  16.577 -2.1527 -2.8511 -1.1306
  699TIP3   OH223587   2.143   0.749   3.660  0.2024  0.2446 -0.1900
  699TIP3    H123588   2.072   0.813   3.660  0.1118  0.1458 -0.3913
  699TIP3    H223589   2.099   0.664   3.663  0.3419  0.1938  1.5737
  700TIP3   OH223590   1.240   5.347   1.043  0.0041 -0.0462  0.5881
  700TIP3    H123591   1.179   5.421   1.038  1.1848  0.8722 -1.6524
  700TIP3    H223592   1.210   5.288   0.973  3.1484  1.7482 -2.5991
  701TIP3   OH223593   2.720   6.719   3.758 -0.2623 -0.6649  0.8552
  701TIP3    H123594   2.657   6.656   3.723 -1.5648  1.3910 -0.7647
  701TIP3    H223595   2.802   6.697   3.714 -0.8638 -0.8263 -0.2318
  702TIP3   OH223596   5.201   4.501  16.581  0.0128 -0.3764 -0.1367
  702TIP3    H123597   5.235   4.414  16.604  0.4617 -0.1069  0.2463
  702TIP3    H223598   5.110   4.500  16.613 -0.3915 -1.1363 -1.2526
  703TIP3   OH223599   3.912   6.679   2.254 -0.2151  0.3666 -0.0322
  703TIP3    H123600   3.952   6.666   2.168  0.5774  0.3501  0.3327
  703TIP3    H223601   3.899   6.773   2.261 -0.3429  0.3603 -0.2022
  704TIP3   OH223602   6.297   3.683  13.996 -0.3459 -0.7423 -0.2409
  704TIP3    H123603   6.354   3.662  14.070 -0.8957 -0.9084  0.1455
  704TIP3    H223604   6.208   3.671  14.030 -0.6811  1.1597 -0.3145
  705TIP3   OH223605   0.218   3.316   0.070  0.0049 -0.5021  0.0937
  705TIP3    H123606   0.134   3.270   0.065 -0.0886 -0.3311  0.0895
  705TIP3    H223607   0.237   3.340  -0.020 -0.7959  0.9878  0.2894
  706TIP3   OH223608   3.426   0.408  11.417  0.2554 -0.8210 -0.0001
  706TIP3    H123609   3.503   0.453  11.451  0.9449 -0.9952 -1.2516
  706TIP3    H223610   3.438   0.408  11.322 -2.1643  0.7168 -0.3972
  707TIP3   OH223611   5.019   1.643   2.401 -0.2971 -0.4603 -0.1797
  707TIP3    H123612   4.976   1.716   2.445  2.7244 -0.0089  2.4025
  707TIP3    H223613   5.064   1.682   2.326 -0.0765  0.0387  0.2076
  708TIP3   OH223614   4.287   4.126  12.164  0.5097  0.0064  0.1398
  708TIP3    H123615   4.261   4.125  12.257  2.7044 -0.5609  0.8006
  708TIP3    H223616   4.232   4.059  12.124  0.6992 -0.9476  1.3943
  709TIP3   OH223617   0.277   0.071   3.804  0.5049  0.1951  0.5089
  709TIP3    H123618   0.183   0.089   3.809  0.5060  0.7672 -0.9540
  709TIP3    H223619   0.314   0.114   3.881 -0.2758  1.2108  0.3387
  710TIP3   OH223620   5.106   3.378  11.227 -0.2526  0.3329 -0.3780
  710TIP3    H123621   5.081   3.425  11.147 -1.0883 -0.4302 -0.5871
  710TIP3    H223622   5.129   3.290  11.197  0.2270  0.2807  0.1312
  711TIP3   OH223623   3.589   3.529   1.086  0.1855 -0.0831 -0.5551
  711TIP3    H123624   3.600   3.512   1.179 -0.2494  1.2820 -0.2360
  711TIP3    H223625   3.645   3.464   1.043 -0.3287 -1.3394  0.6056
  712TIP3   OH223626   4.718   4.956   0.788 -0.3179  0.4127 -0.3746
  712TIP3    H123627   4.758   5.036   0.822  1.3586 -0.2892 -0.6183
  712TIP3    H223628   4.728   4.892   0.859  0.2089 -0.1384 -0.9360
  713TIP3   OH223629   1.553   2.111   3.795  0.0984 -0.0718 -0.1931
  713TIP3    H123630   1.618   2.149   3.736 -0.1453 -0.9181 -1.0336
  713TIP3    H223631   1.513   2.040   3.745 -0.5543 -0.4211  0.7783
  714TIP3   OH223632   1.881   4.434   5.074 -0.0627 -0.2125  0.0268
  714TIP3    H123633   1.896   4.402   5.163 -2.2736 -1.4221  0.0582
  714TIP3    H223634   1.875   4.529   5.083 -2.3399 -0.4141  1.6330
  715TIP3   OH223635   1.133   1.407  16.274 -0.3083  0.0074  0.1571
  715TIP3    H123636   1.072   1.410  16.201 -0.8950  0.7069  0.6632
  715TIP3    H223637   1.192   1.482  16.259  0.4060 -0.6231 -0.2921
  716TIP3   OH223638   4.813   4.569  15.891 -0.3055 -0.2023 -0.1355
  716TIP3    H123639   4.812   4.664  15.879 -2.3348 -0.2607 -0.8789
  716TIP3    H223640   4.866   4.555  15.970 -0.0691  1.5531  0.0456
  717TIP3   OH223641   4.417   3.509  13.569  0.1071 -0.1644  0.0047
  717TIP3    H123642   4.468   3.525  13.648  0.6971 -1.0531 -0.1778
  717TIP3    H223643   4.478   3.525  13.497 -0.0565 -0.5823 -0.2364
  718TIP3   OH223644   3.022   2.215   2.521  0.4568 -0.3640 -0.6889
  718TIP3    H123645   2.932   2.212   2.553  0.2098 -2.2551 -1.3940
  718TIP3    H223646   3.038   2.307   2.502 -0.4171  0.4135  1.8766
  719TIP3   OH223647   0.850   4.812  10.972 -0.1892 -0.5870  0.0702
  719TIP3    H123648   0.907   4.840  11.044 -2.0750  0.7366  1.1246
  719TIP3    H223649   0.882   4.861  10.896  0.1778  0.0266  0.6087
  720TIP3   OH223650   5.615   4.989  15.838 -0.1588  0.0703  0.3204
  720TIP3    H123651   5.679   5.053  15.807 -1.6657  1.8410  0.6408
  720TIP3    H223652   5.545   5.042  15.877 -1.2407 -1.8173  1.1082
  721TIP3   OH223653   1.007   4.206   6.260  0.3145  0.0433 -0.1353
  721TIP3    H123654   1.057   4.132   6.226 -0.0850 -0.5964  0.6144
  721TIP3    H223655   1.073   4.270   6.284  0.6671 -0.0379 -0.8499
  722TIP3   OH223656   4.774   0.809   0.867  0.0433  0.6695 -0.1643
  722TIP3    H123657   4.693   0.762   0.849 -1.1473  2.5569  0.0382
  722TIP3    H223658   4.786   0.802   0.961 -0.4983  1.3183 -0.0426
  723TIP3   OH223659   6.607   1.043  14.409 -0.6870 -0.1624  0.2413
  723TIP3    H123660   6.628   1.107  14.341  0.4634 -0.0537  0.6808
  723TIP3    H223661   6.521   1.069  14.441 -0.3485  1.0114  0.2262
  724TIP3   OH223662   0.403   6.626   0.948 -0.1207  0.2744 -0.0545
  724TIP3    H123663   0.476   6.656   0.894 -0.0444  0.0358 -0.0852
  724TIP3    H223664   0.326   6.668   0.910  0.0920  1.1517  0.4548
  725TIP3   OH223665   1.107   4.975   4.562  0.0893 -0.2156  0.1188
  725TIP3    H123666   1.024   5.023   4.566  0.1068 -0.1802  0.0719
  725TIP3    H223667   1.092   4.895   4.612  0.5638  0.5940  1.6111
  726TIP3   OH223668   2.311   0.987   5.355  0.1674 -0.5070 -0.4939
  726TIP3    H123669   2.273   1.071   5.380  1.7983  0.3387 -0.7107
  726TIP3    H223670   2.370   0.964   5.428 -0.4654 -1.6201 -0.3050
  727TIP3   OH223671   4.564   0.865  16.472 -0.1355  0.1122  0.3383
  727TIP3    H123672   4.521   0.855  16.556  1.7726 -1.9390  1.1644
  727TIP3    H223673   4.625   0.938  16.485 -1.2722  1.1361  0.0545
  728TIP3   OH223674   5.087   5.047   4.406 -0.7067  0.1266 -0.1161
  728TIP3    H123675   5.182   5.040   4.403 -0.7050 -0.3828  0.7158
  728TIP3    H223676   5.069   5.111   4.475 -0.9704  0.4285 -0.4550
  729TIP3   OH223677   3.131   6.543  15.690 -0.5926  0.2822  0.1062
  729TIP3    H123678   3.129   6.532  15.594  1.2982 -0.6081  0.1322
  729TIP3    H223679   3.161   6.632  15.703 -1.0560  0.4779 -0.1137
  730TIP3   OH223680   3.465   3.792  16.471 -0.1581 -0.1565  0.1074
  730TIP3    H123681   3.437   3.799  16.562  0.7674  1.0402  0.3128
  730TIP3    H223682   3.560   3.781  16.476 -0.2030 -1.0127 -0.6891
  731TIP3   OH223683   6.043   6.570   2.620  0.1605 -0.0773  0.2568
  731TIP3    H123684   6.008   6.659   2.626 -0.0293 -0.2111  1.3389
  731TIP3    H223685   5.966   6.515   2.607  0.2458 -0.1185 -0.0832
  732TIP3   OH223686   3.127   2.162   0.967 -0.8079 -0.0359 -0.9077
  732TIP3    H123687   3.113   2.071   0.939 -0.5108 -0.3882  0.0184
  732TIP3    H223688   3.088   2.215   0.898 -2.4906 -0.9007 -0.6843
  733TIP3   OH223689   6.576   6.100   0.133 -0.2629  0.4082 -0.5574
  733TIP3    H123690   6.581   6.011   0.098  1.9004 -0.1411  0.9045
  733TIP3    H223691   6.489   6.106   0.173 -2.3011  0.6052 -4.5319
  734TIP3   OH223692   2.075   4.252  11.653  0.7672  0.5141  0.1342
  734TIP3    H123693   2.072   4.255  11.558  1.6713  0.6669  0.1032
  734TIP3    H223694   2.148   4.193  11.673 -0.5335 -0.9522  0.7425
  735TIP3   OH223695   1.700   6.274  16.703 -0.2619 -0.0225 -0.3984
  735TIP3    H123696   1.715   6.216  16.629 -0.6002  0.2186 -0.6603
  735TIP3    H223697   1.605   6.288  16.704 -0.0936  1.3467 -0.9786
  736TIP3   OH223698   0.533   3.800  14.721  0.1167 -0.1565  0.0296
  736TIP3    H123699   0.487   3.742  14.660 -0.4901  0.5695 -0.2271
  736TIP3    H223700   0.573   3.741  14.785 -1.3908 -0.8322  0.4078
  737TIP3   OH223701   2.806   1.764   1.378  0.3217 -0.5714 -0.0193
  737TIP3    H123702   2.901   1.748   1.382  1.0582  3.0687  1.0150
  737TIP3    H223703   2.774   1.734   1.463  1.0358  0.2976  0.5862
  738TIP3   OH223704   5.565   5.912   6.556 -0.4311  0.1217 -0.3720
  738TIP3    H123705   5.602   5.935   6.470 -0.4863  0.6336 -0.2629
  738TIP3    H223706   5.580   5.818   6.564  1.0681  0.3526 -0.2313
  739TIP3   OH223707   1.459   1.385   2.598 -0.7538  0.0226 -0.0396
  739TIP3    H123708   1.443   1.428   2.683 -0.4644 -1.1059  0.6070
  739TIP3    H223709   1.545   1.417   2.572 -0.1824 -0.7443  0.8294
  740TIP3   OH223710   3.074   1.826   1.357 -0.1868  1.2678  0.1627
  740TIP3    H123711   3.168   1.839   1.350 -0.4302  2.3523 -1.7105
  740TIP3    H223712   3.044   1.898   1.413  0.0089  1.3916  0.1083
  741TIP3   OH223713   6.378   1.490   1.821 -0.1085  0.3555  0.2185
  741TIP3    H123714   6.364   1.497   1.916  0.4543  0.1244  0.3222
  741TIP3    H223715   6.291   1.505   1.783 -1.0249 -2.5773  0.9167
  742TIP3   OH223716   1.589   4.479  13.843 -0.3181 -0.3244 -0.0398
  742TIP3    H123717   1.652   4.483  13.915  0.2944 -0.4168 -0.5595
  742TIP3    H223718   1.507   4.510  13.881  0.6171  2.3610  0.0460
  743TIP3   OH223719   3.101   1.481   1.993 -0.1970  0.2932  0.0075
  743TIP3    H123720   3.009   1.489   1.968 -0.3321 -0.4892  0.2247
  743TIP3    H223721   3.136   1.413   1.935  0.6317  1.6166 -1.0986
  744TIP3   OH223722   5.075   2.749  15.099  0.1612 -0.4402  0.1076
  744TIP3    H123723   5.164   2.751  15.134  0.0711 -0.8166  0.3745
  744TIP3    H223724   5.084   2.771  15.007  0.2977  1.5481  0.5558
  745TIP3   OH223725   2.188   3.088   2.074  0.5408 -0.1207  0.1371
  745TIP3    H123726   2.168   3.001   2.041  0.7744 -0.1808  0.1489
  745TIP3    H223727   2.184   3.145   1.997  1.7577 -0.3697 -0.1314
  746TIP3   OH223728   4.556   2.878  11.643 -0.1269  0.6004 -0.1337
  746TIP3    H123729   4.509   2.795  11.645 -0.0715  0.5855  0.7387
  746TIP3    H223730   4.618   2.873  11.715  1.5564  0.4398 -1.5234
  747TIP3   OH223731   3.323   6.696  11.961 -0.3256  0.0824  0.4246
  747TIP3    H123732   3.312   6.604  11.937 -0.6762 -0.0701  1.1345
  747TIP3    H223733   3.301   6.744  11.881  1.6571 -0.4865 -0.5144
  748TIP3   OH223734   5.939   1.087   0.743 -0.0606 -0.2346 -0.4618
  748TIP3    H123735   5.961   1.176   0.715 -0.7542  0.0235 -0.2080
  748TIP3    H223736   6.023   1.041   0.744  0.1146 -0.0327 -2.1451
  749TIP3   OH223737   2.783   1.457  13.590 -0.3349 -0.0125 -0.1923
  749TIP3    H123738   2.833   1.462  13.509  1.8264  0.3153  1.0762
  749TIP3    H223739   2.846   1.477  13.659 -2.8708  3.5739  1.3939
  750TIP3   OH223740   0.975   2.144   1.396  0.7339 -0.4257 -0.2612
  750TIP3    H123741   1.007   2.162   1.485  0.4086 -1.6941  0.1319
  750TIP3    H223742   1.008   2.217   1.344 -1.9458  2.2684  1.4895
  751TIP3   OH223743   3.891   2.664  14.927  0.1658 -0.0337 -0.3268
  751TIP3    H123744   3.932   2.580  14.946 -1.8339 -0.7805  1.0899
  751TIP3    H223745   3.822   2.672  14.994 -1.4486  1.4552 -2.0502
  752TIP3   OH223746   2.216   2.881  15.765  0.2957  0.4777  0.5018
  752TIP3    H123747   2.151   2.936  15.810 -1.8750 -1.0669 -0.5373
  752TIP3    H223748   2.254   2.938  15.699 -1.7958  0.8518 -0.4558
  753TIP3   OH223749   4.118   1.557  12.037 -0.4830  0.3058  0.7055
  753TIP3    H123750   4.054   1.488  12.053 -1.0834  1.6973  7.0402
  753TIP3    H223751   4.068   1.626  11.994 -1.3554 -1.0829 -0.5876
  754TIP3   OH223752   0.196   5.195   5.193  0.2034  0.0841  0.1692
  754TIP3    H123753   0.100   5.193   5.193  0.2003 -0.1597 -0.4882
  754TIP3    H223754   0.220   5.223   5.281 -0.5030  1.2872 -0.0043
  755TIP3   OH223755   5.508   1.032   0.978 -0.4836  0.6860  0.3405
  755TIP3    H123756   5.453   0.961   1.011  0.0047  0.8635  1.6143
  755TIP3    H223757   5.540   1.076   1.057 -0.0320  1.7506 -0.4094
  756TIP3   OH223758   2.037   5.511   4.601 -0.1792  0.2078  0.1211
  756TIP3    H123759   2.067   5.441   4.542  0.8726  0.8008 -0.0696
  756TIP3    H223760   1.942   5.511   4.592 -0.0613  0.0316 -1.2917
  757TIP3   OH223761   6.304   6.630  16.029  0.5279  0.4855 -0.1737
  757TIP3    H123762   6.349   6.686  16.093  0.6617  0.4013 -0.1934
  757TIP3    H223763   6.226   6.599  16.074  1.9390 -1.7268  0.9107
  758TIP3   OH223764   6.511   2.250   6.017 -0.3089  0.0292  0.3819
  758TIP3    H123765   6.571   2.323   6.032  1.4216 -1.0473 -1.0326
  758TIP3    H223766   6.482   2.260   5.926  1.3308 -1.9567 -0.4278
  759TIP3   OH223767   3.181   5.678   2.493 -0.1834 -0.4925 -0.4046
  759TIP3    H123768   3.126   5.640   2.425 -0.0182  0.0966 -0.8784
  759TIP3    H223769   3.179   5.772   2.475  1.2369 -0.4827 -0.6495
  760TIP3   OH223770   2.284   5.711  12.012  0.1259  0.1259 -0.2901
  760TIP3    H123771   2.218   5.651  11.977  0.1786 -0.1636  0.1008
  760TIP3    H223772   2.247   5.742  12.094 -0.9612  2.4791 -1.5833
  761TIP3   OH223773   3.812   2.491   4.054 -0.1272 -0.3020 -0.5873
  761TIP3    H123774   3.769   2.476   3.970 -0.6071  0.1829 -0.4328
  761TIP3    H223775   3.796   2.411   4.104 -1.8327  0.2882 -0.1225
  762TIP3   OH223776   0.798   5.545  16.485  0.5633  0.3316 -0.1316
  762TIP3    H123777   0.884   5.506  16.499 -0.2892 -1.6269  0.0980
  762TIP3    H223778   0.782   5.535  16.391 -0.2513 -1.3197  0.1432
  763TIP3   OH223779   5.704   1.503   1.020 -0.2705 -0.3550  0.8645
  763TIP3    H123780   5.764   1.461   0.959  0.4804  0.9586  0.6566
  763TIP3    H223781   5.625   1.448   1.019  0.1332 -0.9366 -0.4651
  764TIP3   OH223782   2.745   5.955   0.771 -0.6701  0.1242  0.7055
  764TIP3    H123783   2.652   5.958   0.793 -0.9899 -0.8558 -0.4032
  764TIP3    H223784   2.749   5.981   0.678  0.2010  0.4383  0.8165
  765TIP3   OH223785   1.275   2.384  12.060 -0.2680  0.0215  0.2530
  765TIP3    H123786   1.265   2.345  12.147  2.1505 -0.3251  0.4453
  765TIP3    H223787   1.242   2.473  12.069 -1.2040 -0.4038  1.1791
  766TIP3   OH223788   3.603   1.645  13.829  0.5898 -0.1641 -0.9570
  766TIP3    H123789   3.555   1.606  13.756  1.6189  0.3094 -1.9205
  766TIP3    H223790   3.653   1.717  13.790  0.6301  0.5494  0.3466
  767TIP3   OH223791   0.976   5.949   2.117  0.0154  0.2335  0.2326
  767TIP3    H123792   0.981   6.023   2.057  3.1316  0.9897  1.2360
  767TIP3    H223793   0.953   5.989   2.201 -0.9796 -0.3434  0.2440
  768TIP3   OH223794   5.510   0.154   5.444  0.0422 -0.3497 -0.4281
  768TIP3    H123795   5.422   0.190   5.430 -0.7892 -2.2440 -0.3595
  768TIP3    H223796   5.496   0.078   5.501  1.8133 -0.3622  0.0556
  769TIP3   OH223797   1.265   5.033  16.293  0.1031  0.5295 -0.3676
  769TIP3    H123798   1.254   5.102  16.359 -0.3716  0.4256 -0.3316
  769TIP3    H223799   1.285   4.955  16.344 -1.9260  0.0754 -0.1949
  770TIP3   OH223800   0.236   4.462  15.660 -0.0291 -0.0241 -0.1991
  770TIP3    H123801   0.217   4.486  15.569  0.7323 -2.8815 -1.2052
  770TIP3    H223802   0.179   4.387  15.677 -1.2696  1.3351  2.2893
  771TIP3   OH223803   4.398   2.447  13.718 -0.3363 -0.2469  1.2290
  771TIP3    H123804   4.423   2.414  13.631 -0.9283 -1.2065  1.4026
  771TIP3    H223805   4.480   2.450  13.767  0.0437  0.5555  0.5633
  772TIP3   OH223806   2.685   2.252   1.000  0.1433  0.6910 -0.0882
  772TIP3    H123807   2.757   2.192   1.018  0.2355  0.3342 -1.5303
  772TIP3    H223808   2.607   2.207   1.031  0.2722  0.0172 -0.7149
  773TIP3   OH223809   1.733   0.664  15.809  0.8484 -0.1024 -0.0662
  773TIP3    H123810   1.686   0.605  15.868 -0.4023  0.8432 -0.0714
  773TIP3    H223811   1.735   0.618  15.725 -0.9625  0.2033 -0.3260
  774TIP3   OH223812   6.791   1.592  11.344  0.0927 -0.8354 -0.1351
  774TIP3    H123813   6.730   1.561  11.277  0.0916 -1.8034  0.2929
  774TIP3    H223814   6.745   1.577  11.426 -0.2457  1.1240  0.0697
  775TIP3   OH223815   2.662   4.688   5.861 -0.0378  0.3832 -0.2367
  775TIP3    H123816   2.662   4.775   5.821  0.5879  0.6663  0.3501
  775TIP3    H223817   2.629   4.703   5.950 -0.7714 -0.1265 -0.4146
  776TIP3   OH223818   0.765   1.398  15.626 -0.2271 -0.0692 -0.0642
  776TIP3    H123819   0.855   1.372  15.643  0.5795  2.5766  0.1836
  776TIP3    H223820   0.766   1.432  15.536 -1.0542 -0.2340 -0.1497
  777TIP3   OH223821   1.780   2.842   4.229 -0.0928 -0.1948 -0.1225
  777TIP3    H123822   1.707   2.824   4.289  0.8413 -0.2822  1.0395
  777TIP3    H223823   1.850   2.874   4.286  1.0790 -0.9661 -1.0669
  778TIP3   OH223824   1.094   2.588  13.788  0.0214  0.0735  0.3318
  778TIP3    H123825   1.031   2.660  13.799 -1.2463 -0.9719  0.2468
  778TIP3    H223826   1.057   2.536  13.716  0.4121 -1.1571  1.0055
  779TIP3   OH223827   6.339   2.462  13.064 -0.7171 -0.7289 -0.1816
  779TIP3    H123828   6.248   2.450  13.038 -0.9624 -1.0396  0.7720
  779TIP3    H223829   6.390   2.414  12.998 -1.1376  0.4756 -1.4373
  780TIP3   OH223830   4.935   2.676   3.947  0.6670 -0.0348 -0.4042
  780TIP3    H123831   5.023   2.689   3.912 -0.1445  1.2772 -2.1520
  780TIP3    H223832   4.931   2.733   4.024  1.3557 -0.1701 -0.2598
  781TIP3   OH223833   3.713   0.824   4.654 -0.0539 -0.1651  0.0998
  781TIP3    H123834   3.640   0.885   4.655  0.5769  0.5974  0.9953
  781TIP3    H223835   3.738   0.817   4.562 -1.8602 -1.2129 -0.3703
  782TIP3   OH223836   1.819   3.138  16.128  0.3285 -0.2294 -0.1015
  782TIP3    H123837   1.758   3.134  16.054 -0.4579  0.4029  0.4915
  782TIP3    H223838   1.895   3.184  16.093  0.3675 -0.7913 -0.7803
  783TIP3   OH223839   6.277   0.405   2.839  0.3206 -0.3755  0.6652
  783TIP3    H123840   6.207   0.447   2.790  0.9105  1.3526  1.2056
  783TIP3    H223841   6.329   0.360   2.774 -0.2879 -0.1636  0.0248
  784TIP3   OH223842   4.953   5.837   4.049  0.4247  0.2748  0.4258
  784TIP3    H123843   4.964   5.823   3.955 -0.7105  0.2600  0.2774
  784TIP3    H223844   4.891   5.909   4.056  2.9458  2.5089  1.2008
  785TIP3   OH223845   4.043   5.531   2.195 -0.5590 -0.3984  0.2625
  785TIP3    H123846   4.003   5.605   2.150  2.2717  1.2835  0.2516
  785TIP3    H223847   4.014   5.539   2.286 -1.1321  0.0633  0.0420
  786TIP3   OH223848   2.941   1.235   5.136  0.7614 -0.8051 -0.0726
  786TIP3    H123849   2.894   1.275   5.064 -1.0025 -0.0088  1.4399
  786TIP3    H223850   2.873   1.196   5.191  2.0674 -1.7678  0.9448
  787TIP3   OH223851   0.445   1.631  12.863  0.2931  0.0951 -0.3033
  787TIP3    H123852   0.525   1.675  12.834  1.7115 -3.4680 -2.5565
  787TIP3    H223853   0.394   1.618  12.783 -1.7647  0.7457  0.8252
  788TIP3   OH223854   0.191   3.506   3.419 -0.3491  0.4114 -0.1054
  788TIP3    H123855   0.139   3.430   3.394 -2.1427  1.2184  1.0084
  788TIP3    H223856   0.223   3.487   3.507  0.9657  0.1021 -0.6173
  789TIP3   OH223857   1.358   5.536   3.835 -0.5107  0.1263 -0.0437
  789TIP3    H123858   1.406   5.619   3.840  0.3309 -0.2370 -1.4754
  789TIP3    H223859   1.277   5.553   3.882 -0.5307  1.8936 -0.6332
  790TIP3   OH223860   0.085   2.654  17.194 -0.3385 -0.3055  0.6156
  790TIP3    H123861   0.102   2.572  17.148  2.2947  0.4369  0.0756
  790TIP3    H223862  -0.010   2.661  17.197 -0.6272 -2.7727 -0.3597
  791TIP3   OH223863   4.194   6.753   2.287 -0.1200  0.1802 -0.2924
  791TIP3    H123864   4.263   6.693   2.316 -0.4811 -0.8164 -1.4271
  791TIP3    H223865   4.113   6.709   2.309 -0.3999 -0.1270 -1.8179
  792TIP3   OH223866   5.510   1.578   2.184  0.1690  0.8113 -0.2257
  792TIP3    H123867   5.603   1.599   2.189  0.6010 -1.1501  1.1775
  792TIP3    H223868   5.500   1.500   2.239 -1.7628 -0.8447 -2.6639
  793TIP3   OH223869   2.462   2.069  16.126 -0.1893 -0.5309 -0.3466
  793TIP3    H123870   2.504   2.042  16.044  0.6125  0.5853 -0.3254
  793TIP3    H223871   2.512   2.023  16.194  0.0841 -0.3323 -0.4093
  794TIP3   OH223872   1.553   6.730   6.116 -0.3285  0.3862 -0.0781
  794TIP3    H123873   1.497   6.787   6.064 -0.7071  0.3333  0.2718
  794TIP3    H223874   1.622   6.788   6.149 -0.6359  0.6142  0.1642
  795TIP3   OH223875   2.425   6.585   0.455  0.5350 -0.0251 -0.0510
  795TIP3    H123876   2.454   6.669   0.418  0.9433  0.3019  0.9640
  795TIP3    H223877   2.360   6.553   0.393 -1.1095  1.9945  0.4986
  796TIP3   OH223878   6.573   5.471   0.250 -0.3275 -0.0762 -0.7600
  796TIP3    H123879   6.529   5.484   0.166 -0.5548  2.4455 -0.3297
  796TIP3    H223880   6.518   5.518   0.313  0.5808 -0.7487  0.5641
  797TIP3   OH223881   0.219   2.893   5.888  0.2161 -0.0116 -0.3364
  797TIP3    H123882   0.238   2.806   5.923 -2.3335 -0.2327  0.7623
  797TIP3    H223883   0.165   2.934   5.956 -1.6350  1.0431 -2.3235
  798TIP3   OH223884   1.653   4.463  10.840  0.6797 -0.0768 -0.7562
  798TIP3    H123885   1.649   4.547  10.888  1.9953  0.1354 -0.9757
  798TIP3    H223886   1.604   4.479  10.760  1.1287  0.5828 -0.9116
  799TIP3   OH223887   6.480   2.145  12.924  0.8665 -0.7738 -0.1544
  799TIP3    H123888   6.570   2.157  12.893  0.6896 -0.9907 -0.7649
  799TIP3    H223889   6.489   2.096  13.005  1.2163 -2.3027 -1.0778
  800TIP3   OH223890   1.239   0.450  11.784  0.0239  0.6886  0.2944
  800TIP3    H123891   1.201   0.486  11.703 -0.2533  2.1615  1.0535
  800TIP3    H223892   1.199   0.364  11.793 -0.0845  0.5780 -1.0341
  801TIP3   OH223893   4.689   1.856  15.186 -0.0872 -0.7921 -0.3972
  801TIP3    H123894   4.637   1.925  15.227 -0.1173 -0.8665 -0.3110
  801TIP3    H223895   4.653   1.775  15.220 -0.2687 -0.8647 -0.7547
  802TIP3   OH223896   6.252   0.091  13.868  0.4476  0.1779  0.1355
  802TIP3    H123897   6.303   0.104  13.788  0.8690 -0.8890  0.2091
  802TIP3    H223898   6.280   0.161  13.926  0.7613  0.4639 -0.3534
  803TIP3   OH223899   6.143   2.151   1.061 -0.2721 -0.1109 -0.2364
  803TIP3    H123900   6.197   2.178   0.986 -0.7471  0.8173 -0.2593
  803TIP3    H223901   6.055   2.144   1.025 -0.0355 -2.7330 -0.4655
  804TIP3   OH223902   0.865   2.667   5.637  0.0771  0.4985  0.4276
  804TIP3    H123903   0.812   2.735   5.677  1.4128  1.4943  0.5977
  804TIP3    H223904   0.847   2.588   5.687 -1.1196  0.8434  0.5524
  805TIP3   OH223905   5.742   5.884  15.646 -0.1388  0.1246  0.5699
  805TIP3    H123906   5.733   5.798  15.605 -1.3990 -0.8057  2.6181
  805TIP3    H223907   5.802   5.932  15.589  0.4536 -2.0371 -0.7395
  806TIP3   OH223908   4.438   2.966   2.969  0.7336  0.3509  0.2475
  806TIP3    H123909   4.406   2.876   2.971  1.1703  0.1185 -1.4411
  806TIP3    H223910   4.406   3.005   3.050  0.6926 -1.3703  1.0932
  807TIP3   OH223911   5.904   1.291   4.586  0.0570 -0.1194  0.2110
  807TIP3    H123912   5.932   1.210   4.543  1.7105  0.3160  0.4047
  807TIP3    H223913   5.934   1.361   4.528  1.2962  0.4306  1.4372
  808TIP3   OH223914   2.223   1.204   3.088  0.0232 -0.0839 -0.5444
  808TIP3    H123915   2.300   1.163   3.127 -0.3791  0.3373  0.7230
  808TIP3    H223916   2.165   1.223   3.162  0.1138  2.5938 -1.0722
  809TIP3   OH223917   0.800   3.972  16.575  0.6958  0.2587 -0.7618
  809TIP3    H123918   0.866   3.983  16.644  1.1945  4.2429 -1.6450
  809TIP3    H223919   0.720   3.949  16.622  1.9940 -1.7081  0.6203
  810TIP3   OH223920   1.348   4.521  15.545  0.3721  0.1018 -0.2177
  810TIP3    H123921   1.272   4.504  15.601  0.1474  1.9809  0.1445
  810TIP3    H223922   1.327   4.478  15.462 -1.1216  0.5961 -0.1340
  811TIP3   OH223923   5.689   5.552  16.245 -0.4728 -0.3540  0.0715
  811TIP3    H123924   5.774   5.529  16.282 -0.6163 -3.8723 -1.4053
  811TIP3    H223925   5.686   5.648  16.249  2.9860 -0.1587  1.2778
  812TIP3   OH223926   2.978   6.283   5.071 -0.3063 -0.2371 -0.1027
  812TIP3    H123927   2.966   6.239   5.156 -1.7016 -2.4556 -1.3330
  812TIP3    H223928   3.057   6.243   5.034  0.8242  1.3825  0.4823
  813TIP3   OH223929   4.561   2.323   4.175  0.2101  0.4389 -0.2385
  813TIP3    H123930   4.612   2.303   4.254  0.5509 -1.9674 -0.9832
  813TIP3    H223931   4.475   2.348   4.207  0.3533 -0.4778  0.8992
  814TIP3   OH223932   1.896   2.737  17.100 -0.0000 -0.3979  0.0088
  814TIP3    H123933   1.880   2.823  17.061 -0.8278  0.0817  1.3721
  814TIP3    H223934   1.826   2.725  17.164  0.3621 -1.8970  0.1659
  815TIP3   OH223935   6.661   3.121  13.299 -0.3091  0.1456  0.0955
  815TIP3    H123936   6.674   3.068  13.377  0.5460 -0.4529 -0.4385
  815TIP3    H223937   6.700   3.206  13.320  1.7491 -0.6294 -0.3540
  816TIP3   OH223938   0.228   0.934  15.687  0.0482  0.1922  0.1024
  816TIP3    H123939   0.153   0.964  15.636 -0.4760  0.3250  0.9293
  816TIP3    H223940   0.196   0.857  15.733  0.6711 -0.2319 -0.1638
  817TIP3   OH223941   3.525   6.359  15.341  0.2061 -0.0637 -0.3047
  817TIP3    H123942   3.469   6.408  15.281 -0.5123  1.5400  1.5363
  817TIP3    H223943   3.520   6.408  15.423  1.1350 -2.1325  1.0807
  818TIP3   OH223944   6.107   1.683   2.118 -0.4321 -0.1038 -0.1451
  818TIP3    H123945   6.037   1.680   2.053 -0.7153  0.2718  0.1388
  818TIP3    H223946   6.089   1.761   2.169  1.7767  1.6492 -1.8373
  819TIP3   OH223947   0.216   5.605   4.010 -0.2540  0.2238 -0.1979
  819TIP3    H123948   0.128   5.571   3.995 -0.3088  0.9394 -1.7430
  819TIP3    H223949   0.208   5.662   4.086 -0.9165 -0.4094  0.2248
  820TIP3   OH223950   4.137   3.471  14.596 -0.8875 -0.6411  0.9566
  820TIP3    H123951   4.140   3.376  14.600 -2.3586 -0.7275  0.8397
  820TIP3    H223952   4.136   3.492  14.503 -0.1740 -0.4929  0.9829
  821TIP3   OH223953   2.249   0.378  15.865  0.2551  0.0168  0.1904
  821TIP3    H123954   2.201   0.368  15.783 -0.0206  0.9096  0.2281
  821TIP3    H223955   2.181   0.400  15.929  0.4266 -0.9684  0.7300
  822TIP3   OH223956   3.371   6.497   0.528  0.4083 -0.2017 -0.3862
  822TIP3    H123957   3.397   6.523   0.440 -0.0198  1.1506 -0.1295
  822TIP3    H223958   3.368   6.579   0.577 -1.4192 -0.6808  0.3514
  823TIP3   OH223959   5.895   3.893   4.989 -0.1486  0.2391  0.6486
  823TIP3    H123960   5.959   3.963   4.995  0.6651 -0.5189  1.0768
  823TIP3    H223961   5.924   3.828   5.053 -1.6193  0.0878  1.2022
  824TIP3   OH223962   6.160   6.263   3.097 -0.3287 -0.4806 -0.0696
  824TIP3    H123963   6.226   6.281   3.031 -1.5513 -2.6324 -2.0112
  824TIP3    H223964   6.158   6.168   3.104 -2.1769 -0.4143  1.0341
  825TIP3   OH223965   0.009   3.366  16.281 -0.5840  0.6315  0.1838
  825TIP3    H123966  -0.069   3.407  16.319 -0.2367  0.8470  0.6727
  825TIP3    H223967  -0.015   3.348  16.190 -1.8836 -1.0920  0.8355
  826TIP3   OH223968   5.280   5.931  15.060  0.2454  0.3867 -0.9294
  826TIP3    H123969   5.340   5.880  15.006 -0.3122  1.5302 -2.7101
  826TIP3    H223970   5.249   6.001  15.002 -0.6290  1.4915  0.7919
  827TIP3   OH223971   3.481   1.373   3.460 -0.4746  0.2731  0.1510
  827TIP3    H123972   3.465   1.288   3.418  1.8669  0.1904 -0.6876
  827TIP3    H223973   3.548   1.356   3.525  0.4247  1.5449 -0.3958
  828TIP3   OH223974   3.765   5.591  14.826 -0.1292  0.6057  0.1961
  828TIP3    H123975   3.777   5.607  14.732  0.1031  1.2399  0.3257
  828TIP3    H223976   3.769   5.496  14.836  0.4324  0.5665 -0.3590
  829TIP3   OH223977   6.146   0.041   1.311 -0.2549 -0.0631  0.9103
  829TIP3    H123978   6.141  -0.054   1.304 -0.2241  0.0491 -1.3244
  829TIP3    H223979   6.234   0.057   1.345 -1.0339 -0.8333  3.5380
  830TIP3   OH223980   5.839   3.589   3.701  0.2320 -0.2184 -0.6987
  830TIP3    H123981   5.818   3.497   3.714 -0.2937 -0.0348 -0.1753
  830TIP3    H223982   5.817   3.606   3.609 -0.8367 -0.3324 -0.4862
  831TIP3   OH223983   1.235   1.003   5.324  0.3618  0.1738 -0.6685
  831TIP3    H123984   1.315   1.003   5.272  0.2637  0.1747 -0.8216
  831TIP3    H223985   1.167   1.030   5.262 -0.1580 -2.0977 -1.1855
  832TIP3   OH223986   5.998   3.239  11.393  0.1263  0.0576 -0.3187
  832TIP3    H123987   5.929   3.176  11.414 -0.0009  0.5918  0.9543
  832TIP3    H223988   6.078   3.201  11.431  0.3397 -0.0615 -0.8797
  833TIP3   OH223989   0.837   0.019  11.190  0.2946 -0.0590  0.2659
  833TIP3    H123990   0.914   0.003  11.135  0.0360  1.6680 -0.6987
  833TIP3    H223991   0.872   0.062  11.268  0.2632  1.7560 -0.6669
  834TIP3   OH223992   1.253   0.320  14.262 -0.4000  0.3409  0.2215
  834TIP3    H123993   1.327   0.266  14.291  0.9343  1.1985 -1.3632
  834TIP3    H223994   1.232   0.286  14.175 -2.6170 -0.5515  1.0346
  835TIP3   OH223995   5.277   1.772  16.670  0.0227 -0.1272 -0.0583
  835TIP3    H123996   5.271   1.803  16.580  0.8520  0.0850 -0.0535
  835TIP3    H223997   5.204   1.815  16.715 -0.0251  0.2543 -0.4907
  836TIP3   OH223998   1.626   6.087   3.557  0.2838  0.3014 -0.0139
  836TIP3    H123999   1.679   6.120   3.485 -0.1273  2.1379  0.4712
  836TIP3    H224000   1.571   6.019   3.518 -1.1993  2.4333 -1.9022
  837TIP3   OH224001   1.797   2.106  16.084  0.4357 -0.5746  0.0073
  837TIP3    H124002   1.798   2.197  16.054  1.5830 -0.2819  0.8521
  837TIP3    H224003   1.889   2.081  16.085  0.1913 -1.4814  0.5703
  838TIP3   OH224004   3.299   5.034  15.014  0.0920 -0.3935  0.5944
  838TIP3    H124005   3.356   5.019  14.938 -1.0404  1.0515 -0.6025
  838TIP3    H224006   3.341   4.986  15.085  1.7897 -0.8990 -0.6813
  839TIP3   OH224007   3.263   4.703   4.382  0.0992 -0.1201 -0.2576
  839TIP3    H124008   3.215   4.679   4.304 -0.7908  0.8638 -0.0371
  839TIP3    H224009   3.280   4.797   4.372  1.5482 -0.3389 -0.0935
  840TIP3   OH224010   3.359   3.949  14.120 -0.4422  0.6779 -0.1302
  840TIP3    H124011   3.296   4.018  14.102  0.3758  1.5740  0.3490
  840TIP3    H224012   3.309   3.868  14.115 -2.1193  1.4641  2.4502
  841TIP3   OH224013   1.685   2.429  13.384 -0.4348 -0.5009  0.0768
  841TIP3    H124014   1.757   2.465  13.436 -0.6510 -2.7656  2.1558
  841TIP3    H224015   1.607   2.448  13.436 -0.8602 -1.3624 -0.2302
  842TIP3   OH224016   1.561   3.833  16.622  0.0177  0.3704  0.2522
  842TIP3    H124017   1.473   3.796  16.624  1.0582 -2.3953 -0.1508
  842TIP3    H224018   1.548   3.927  16.627 -2.8821  0.0031  1.4415
  843TIP3   OH224019   1.922   0.192  14.654  0.5772  0.3445 -0.5230
  843TIP3    H124020   1.833   0.181  14.687  0.7383  0.7006  0.0421
  843TIP3    H224021   1.959   0.104  14.656 -0.8251 -0.4681 -3.9609
  844TIP3   OH224022   1.051   6.053  11.994  0.1631  0.0390 -0.5355
  844TIP3    H124023   0.997   6.089  12.065 -1.0032  0.4395 -1.5984
  844TIP3    H224024   1.121   6.005  12.040 -0.7932 -0.0768  0.8851
  845TIP3   OH224025   0.010   3.830   5.722 -0.0293  0.4648 -0.7130
  845TIP3    H124026   0.014   3.857   5.814  1.4348 -0.9397 -0.3288
  845TIP3    H224027  -0.067   3.772   5.717 -0.0749  0.4959 -0.3665
  846TIP3   OH224028   3.999   3.686  15.710 -0.7801 -0.0882  0.2240
  846TIP3    H124029   3.948   3.762  15.680  1.5286  0.9382 -1.4361
  846TIP3    H224030   4.009   3.700  15.804 -1.2167  1.1608  0.1061
  847TIP3   OH224031   4.949   2.147   1.160 -0.8948  0.0355  0.1628
  847TIP3    H124032   5.017   2.086   1.189 -0.3012  0.7837  0.3992
  847TIP3    H224033   4.905   2.174   1.240 -2.8046 -1.9033 -0.1410
  848TIP3   OH224034   1.403   3.618  15.614 -0.7326 -0.5622 -0.0931
  848TIP3    H124035   1.413   3.599  15.707 -0.5550  2.0160  0.4864
  848TIP3    H224036   1.460   3.554  15.570  1.3046 -0.1487  1.7524
  849TIP3   OH224037   6.625   2.362  16.635 -0.1831 -0.6436 -0.1339
  849TIP3    H124038   6.627   2.438  16.577  0.3145 -0.7890 -0.3159
  849TIP3    H224039   6.688   2.301  16.596  1.5642 -0.0192  1.5418
  850TIP3   OH224040   3.865   6.113  13.855 -0.4864  0.4110  0.1444
  850TIP3    H124041   3.789   6.055  13.848  1.1769 -1.7733 -1.4167
  850TIP3    H224042   3.912   6.099  13.773  2.7324 -0.0244  1.9107
  851TIP3   OH224043   1.889   3.098   6.298  0.1391  0.3244  0.1469
  851TIP3    H124044   1.867   3.072   6.388 -0.7093  0.2793 -0.0585
  851TIP3    H224045   1.844   3.182   6.287 -1.8463 -0.8041 -1.0144
  852TIP3   OH224046   3.600   3.061  11.712  0.0853 -0.1508 -0.0748
  852TIP3    H124047   3.688   3.037  11.685 -0.1913 -0.6342 -0.5570
  852TIP3    H224048   3.596   3.156  11.697  0.6251 -0.0689  0.2636
  853TIP3   OH224049   5.110   0.708   1.634  0.0916 -0.1644  0.2943
  853TIP3    H124050   5.141   0.617   1.636  0.0149 -0.2430 -0.8843
  853TIP3    H224051   5.096   0.731   1.725 -0.0646 -1.4038  0.6008
  854TIP3   OH224052   1.918   4.366  17.010 -0.5072 -0.4796 -0.3194
  854TIP3    H124053   1.980   4.430  16.975 -1.5570  0.1702 -1.0767
  854TIP3    H224054   1.842   4.373  16.952 -1.1914 -1.4204  0.4322
  855TIP3   OH224055   0.853   3.725   5.921 -0.2974  0.2177 -0.8683
  855TIP3    H124056   0.924   3.703   5.982 -1.1666  1.3454  0.6285
  855TIP3    H224057   0.835   3.643   5.875 -0.2165 -0.9558  1.0634
  856TIP3   OH224058   3.327   3.523  12.954  0.3949 -0.8688 -0.1399
  856TIP3    H124059   3.244   3.540  12.911  1.5681  0.2102 -2.1370
  856TIP3    H224060   3.320   3.566  13.039 -1.3562 -1.4934  0.0564
  857TIP3   OH224061   3.308   0.739  12.484 -0.0186 -0.1742 -0.3909
  857TIP3    H124062   3.236   0.733  12.547 -0.9294 -0.2716 -1.3881
  857TIP3    H224063   3.380   0.690  12.524 -0.3983  0.1926  0.7738
  858TIP3   OH224064   4.579   5.203  11.560 -0.3150  0.4118 -0.0304
  858TIP3    H124065   4.635   5.281  11.554  0.7805 -0.3273  0.1953
  858TIP3    H224066   4.508   5.220  11.499 -0.4042  1.8290  0.4286
  859TIP3   OH224067   6.313   6.772   5.164  0.1633  0.1858  0.3343
  859TIP3    H124068   6.266   6.778   5.247 -0.6472 -0.3394 -0.0673
  859TIP3    H224069   6.250   6.732   5.104  0.6181  0.8527 -0.6216
  860TIP3   OH224070   0.568   0.027  15.150 -0.6221 -0.4789 -0.6950
  860TIP3    H124071   0.659   0.005  15.168  0.2733  2.5161 -1.1304
  860TIP3    H224072   0.548  -0.016  15.067  0.5707 -0.6670 -0.8947
  861TIP3   OH224073   5.307   4.322   0.426  0.4004  0.0819  0.0556
  861TIP3    H124074   5.232   4.309   0.484 -0.3874  0.6196 -0.8071
  861TIP3    H224075   5.306   4.246   0.367 -1.2208  1.4015 -1.7789
  862TIP3   OH224076   0.865   6.735  14.495 -0.0464 -0.6018 -0.3856
  862TIP3    H124077   0.812   6.782  14.560  1.3622 -1.6724  1.6685
  862TIP3    H224078   0.878   6.799  14.425 -1.5466  0.6663  0.4118
  863TIP3   OH224079   2.288   5.928   4.590  0.1799 -0.2879 -0.4098
  863TIP3    H124080   2.373   5.905   4.552 -0.0631 -0.9801 -0.5567
  863TIP3    H224081   2.300   5.918   4.684  0.2782 -0.3276 -0.4261
  864TIP3   OH224082   1.746   1.851  12.298  0.0795 -0.0683 -0.8638
  864TIP3    H124083   1.832   1.861  12.257  0.4069 -3.1280 -1.1663
  864TIP3    H224084   1.686   1.842  12.224  0.1825 -2.1672 -0.7597
  865TIP3   OH224085   6.095   1.420   6.082 -0.8635  0.0833  0.2758
  865TIP3    H124086   6.156   1.422   6.008 -0.6636  0.0642  0.4404
  865TIP3    H224087   6.089   1.327   6.104 -1.5145  0.0017 -0.2037
  866TIP3   OH224088   6.303   0.387  11.544 -0.2879  0.1027 -0.3034
  866TIP3    H124089   6.230   0.355  11.491 -0.7645  1.2662 -0.3695
  866TIP3    H224090   6.271   0.469  11.582 -0.4445 -1.2514  2.8236
  867TIP3   OH224091   6.015   2.046  12.238 -0.3043 -0.3920  0.0813
  867TIP3    H124092   6.096   1.996  12.227  0.0648  0.0804  0.6164
  867TIP3    H224093   6.041   2.137  12.229 -0.9617 -0.2764 -0.7773
  868TIP3   OH224094   3.476   3.290   5.703 -0.1235 -0.3839  0.2511
  868TIP3    H124095   3.435   3.250   5.779 -1.8308  1.7934  0.5937
  868TIP3    H224096   3.406   3.295   5.638 -0.0561  2.0242  0.2820
  869TIP3   OH224097   3.101   0.107  15.911  0.5346  0.1030 -0.0213
  869TIP3    H124098   3.055   0.099  15.995  2.1339 -1.2243  0.7825
  869TIP3    H224099   3.031   0.108  15.846 -0.6799 -2.0776  1.1287
  870TIP3   OH224100   6.804   5.168  16.480 -0.4136 -0.4535  0.5244
  870TIP3    H124101   6.874   5.128  16.531  1.4386 -0.4531 -1.8249
  870TIP3    H224102   6.743   5.096  16.463  1.7205 -1.8945 -1.7032
  871TIP3   OH224103   6.286   4.433  16.901 -0.9879  0.1940  0.5627
  871TIP3    H124104   6.209   4.431  16.845  0.2337 -2.4242 -1.2360
  871TIP3    H224105   6.298   4.343  16.929  2.7687 -0.1437 -1.3879
  872TIP3   OH224106   4.367   0.716   5.696 -0.2357  0.1112  0.1209
  872TIP3    H124107   4.378   0.678   5.609  0.0184  2.4929 -0.9746
  872TIP3    H224108   4.272   0.718   5.710 -0.4894  2.1747 -1.3731
  873TIP3   OH224109   2.862   3.881   5.846  0.3550 -0.0770 -0.2937
  873TIP3    H124110   2.896   3.792   5.835 -2.9379 -1.5216  0.0488
  873TIP3    H224111   2.836   3.885   5.937  1.7719  1.8429  0.0862
  874TIP3   OH224112   0.698   1.860  13.441  0.0279  0.2456 -0.6227
  874TIP3    H124113   0.792   1.848  13.427  0.5852 -0.0237  2.6009
  874TIP3    H224114   0.688   1.955  13.450 -0.0603  0.2846 -1.0864
  875TIP3   OH224115   3.401   4.547   1.986 -0.1033 -0.0160  0.0975
  875TIP3    H124116   3.366   4.634   1.966 -0.7088 -0.4587 -0.8829
  875TIP3    H224117   3.481   4.541   1.933  0.5027  0.3265  0.9643
  876TIP3   OH224118   3.333   3.829  16.239 -0.3029  0.8953 -0.0971
  876TIP3    H124119   3.386   3.819  16.318 -1.1855  0.7101  0.4823
  876TIP3    H224120   3.330   3.742  16.200 -0.2150  0.8996 -0.1144
  877TIP3   OH224121   1.368   3.065   1.702 -0.3214  0.0196 -0.0084
  877TIP3    H124122   1.375   3.144   1.649 -0.8496 -0.4332 -0.7666
  877TIP3    H224123   1.296   3.083   1.762  0.2637  0.5227  0.5603
  878TIP3   OH224124   6.741   3.357  12.084  0.5307  0.6002 -0.1763
  878TIP3    H124125   6.775   3.405  12.008 -1.2798  1.7768 -0.3179
  878TIP3    H224126   6.646   3.369  12.078  0.1249 -1.7557  0.6722
  879TIP3   OH224127   0.587   1.354  11.121 -0.6267 -0.0486 -0.4499
  879TIP3    H124128   0.565   1.443  11.095 -1.1938 -0.4349 -1.3472
  879TIP3    H224129   0.538   1.340  11.202 -3.0127 -0.5431 -1.8766
  880TIP3   OH224130   5.894   3.920  16.563  0.6568  0.0433  0.1964
  880TIP3    H124131   5.880   3.852  16.497  2.4009 -0.9512  0.7958
  880TIP3    H224132   5.914   3.872  16.643 -2.0806  1.2007  1.7016
  881TIP3   OH224133   1.343   5.866  16.250 -0.7810 -0.2013  0.7192
  881TIP3    H124134   1.411   5.871  16.317 -1.2190  0.0418  1.1502
  881TIP3    H224135   1.384   5.904  16.172 -0.5085  0.1810  1.0442
  882TIP3   OH224136   0.622   3.878   1.516 -0.2453  0.3104  0.3517
  882TIP3    H124137   0.599   3.971   1.523  0.3614  0.6032 -1.0458
  882TIP3    H224138   0.650   3.868   1.425  2.3090 -0.6313  1.1539
  883TIP3   OH224139   0.796   4.934   1.151 -0.0662 -0.2347 -0.3318
  883TIP3    H124140   0.729   4.902   1.090 -1.4774  0.5272  0.7684
  883TIP3    H224141   0.767   5.023   1.173  1.0383 -0.0899  0.5714
  884TIP3   OH224142   0.068   6.523  11.244 -0.5394  0.0874  0.2627
  884TIP3    H124143   0.100   6.432  11.241 -2.7120 -0.8714  2.5303
  884TIP3    H224144  -0.026   6.515  11.255 -0.8122  2.6537  0.4016
  885TIP3   OH224145   6.642   1.118   1.609  0.3523 -0.2315 -0.2221
  885TIP3    H124146   6.609   1.041   1.656  2.8449 -1.0433  0.3515
  885TIP3    H224147   6.614   1.192   1.662 -1.0398 -0.7769 -0.1318
  886TIP3   OH224148   5.063   5.131  16.385  0.1240 -0.1429 -0.4894
  886TIP3    H124149   5.059   5.170  16.472 -2.4320  2.2468 -1.4845
  886TIP3    H224150   5.136   5.176  16.342  0.3068 -0.0671 -0.1049
  887TIP3   OH224151   6.684   0.992  12.466  0.3730  0.1522 -0.5420
  887TIP3    H124152   6.735   1.072  12.461 -0.4910  0.6541 -2.1452
  887TIP3    H224153   6.719   0.936  12.397 -0.3340 -0.0317 -0.7677
  888TIP3   OH224154   2.932   2.101  12.225 -0.4265  0.0906 -0.2732
  888TIP3    H124155   2.956   2.122  12.134 -1.4722  1.5096 -0.2605
  888TIP3    H224156   2.901   2.184  12.261  1.0041 -0.1862  1.7573
  889TIP3   OH224157   6.148   3.362   1.322 -0.7722  0.0849 -0.3567
  889TIP3    H124158   6.110   3.326   1.402  0.5847 -1.5883 -0.4014
  889TIP3    H224159   6.229   3.404   1.350 -0.0824 -0.8624 -0.8593
  890TIP3   OH224160   1.642   5.730  11.055 -0.7892  0.2309  0.0219
  890TIP3    H124161   1.617   5.657  10.999 -1.7301 -0.7740  1.6651
  890TIP3    H224162   1.718   5.699  11.104 -0.7388  0.6158  0.1947
  891TIP3   OH224163   4.492   2.343  13.478  0.2751 -0.9175 -0.0989
  891TIP3    H124164   4.494   2.250  13.458  1.1814 -1.3128  1.6271
  891TIP3    H224165   4.537   2.385  13.405  1.3311 -2.0180 -0.1052
  892TIP3   OH224166   3.112   1.377  10.698  0.0590 -1.0953  0.4723
  892TIP3    H124167   3.132   1.468  10.679 -1.3176 -1.1258 -1.4060
  892TIP3    H224168   3.027   1.379  10.742 -0.9063 -1.5242 -1.2815
  893TIP3   OH224169   5.388   5.445   0.301 -0.2238  0.0734 -0.5322
  893TIP3    H124170   5.403   5.395   0.220 -0.0945 -3.0733  1.2894
  893TIP3    H224171   5.445   5.404   0.365 -1.6923  1.2724  1.6525
  894TIP3   OH224172   5.372   3.201  11.476 -0.4819 -0.5016  0.7527
  894TIP3    H124173   5.335   3.183  11.389 -1.5148  2.0544  0.5456
  894TIP3    H224174   5.466   3.208  11.461 -0.6981  0.5778 -0.3720
  895TIP3   OH224175   2.512   3.148  14.721  0.4007 -0.1922  0.5012
  895TIP3    H124176   2.558   3.148  14.637 -0.6958  0.2400 -0.1058
  895TIP3    H224177   2.467   3.063  14.723  1.2983 -0.6777  1.1622
  896TIP3   OH224178   2.555   6.605   1.539 -0.3933 -0.3756 -0.0177
  896TIP3    H124179   2.512   6.611   1.454 -0.9639 -0.3616  0.2707
  896TIP3    H224180   2.521   6.524   1.578 -0.2440 -0.3085  0.2596
  897TIP3   OH224181   3.973   2.767  12.763 -0.0568 -0.1635 -0.3595
  897TIP3    H124182   3.883   2.748  12.786  0.1835 -1.3575 -0.3603
  897TIP3    H224183   4.022   2.755  12.844  0.0017  1.3915 -0.1266
  898TIP3   OH224184   0.380   1.018  13.007 -0.0722 -0.0829 -0.2895
  898TIP3    H124185   0.413   1.043  13.093 -0.8166 -2.6212  0.8342
  898TIP3    H224186   0.360   1.101  12.964  1.2342  1.2903  1.5830
  899TIP3   OH224187   5.279   6.329   0.364 -0.4592  0.1196 -0.1439
  899TIP3    H124188   5.330   6.258   0.327 -0.5043  0.0041  0.0135
  899TIP3    H224189   5.263   6.388   0.290 -1.4264 -0.6186 -0.5404
  900TIP3   OH224190   1.650   6.006  12.296  0.5078  0.0780 -0.0475
  900TIP3    H124191   1.647   6.013  12.392  1.7929 -0.3514  0.0437
  900TIP3    H224192   1.593   6.077  12.265 -0.2571 -0.0336  1.0292
  901TIP3   OH224193   0.965   4.338  15.862 -0.2661 -0.2299  0.1637
  901TIP3    H124194   0.933   4.251  15.889  0.9084 -0.8672 -0.4101
  901TIP3    H224195   1.050   4.347  15.905  1.0164 -0.6883 -2.0852
  902TIP3   OH224196   0.458   0.134  14.594 -1.2131 -0.6336 -0.4032
  902TIP3    H124197   0.458   0.039  14.578  0.3717 -0.7540  0.1625
  902TIP3    H224198   0.371   0.152  14.630 -0.6220 -2.3801  2.1410
  903TIP3   OH224199   5.875   5.905   2.129  0.6561  0.2926 -0.3757
  903TIP3    H124200   5.841   5.878   2.214 -0.3628  2.4536 -0.0369
  903TIP3    H224201   5.964   5.937   2.149  0.4253  0.7834 -0.1110
  904TIP3   OH224202   4.921   6.537   3.920  0.2717  0.0169  0.2741
  904TIP3    H124203   4.977   6.581   3.856  0.2552 -1.3394 -0.7098
  904TIP3    H224204   4.972   6.539   4.001  1.1919 -0.0354 -0.2815
  905TIP3   OH224205   0.267   5.268   1.143  0.0061  0.4167  0.4565
  905TIP3    H124206   0.361   5.260   1.158  0.0536  2.5221  1.6320
  905TIP3    H224207   0.260   5.318   1.061 -0.1420 -0.7565 -0.2740
  906TIP3   OH224208   4.293   1.642   1.534  0.0773  0.3589  0.1277
  906TIP3    H124209   4.350   1.651   1.610  1.1157 -1.5087 -0.3803
  906TIP3    H224210   4.257   1.554   1.541 -1.5775  0.9503 -0.3927
  907TIP3   OH224211   2.182   6.820  11.997  0.2350  0.3978  1.2008
  907TIP3    H124212   2.255   6.801  12.057 -0.0808  1.0521  1.8154
  907TIP3    H224213   2.220   6.881  11.933  0.6924 -0.6494  0.4551
  908TIP3   OH224214   4.725   4.262  12.288 -0.2417  0.5506 -0.3224
  908TIP3    H124215   4.717   4.176  12.249  0.7345  1.1984 -2.0372
  908TIP3    H224216   4.648   4.310  12.257 -2.6317 -0.5487  3.2452
  909TIP3   OH224217   3.982   4.460   1.729 -0.1676 -0.3076  0.0537
  909TIP3    H124218   4.044   4.465   1.802  0.3604 -1.5098 -0.2812
  909TIP3    H224219   3.928   4.538   1.737  2.8530  2.0635 -0.9784
  910TIP3   OH224220   0.974   5.237   3.898 -0.4020 -0.1777 -0.6068
  910TIP3    H124221   0.892   5.213   3.942  0.0862 -1.5380 -0.3748
  910TIP3    H224222   0.968   5.332   3.886 -1.7043 -0.1529  0.0195
  911TIP3   OH224223   3.313   5.667  10.944  0.2055 -0.1789 -0.0720
  911TIP3    H124224   3.265   5.592  10.979 -1.3177  0.8650  0.1869
  911TIP3    H224225   3.313   5.653  10.849  0.8022 -0.9978  0.0455
  912TIP3   OH224226   4.686   0.727   0.462 -0.3600 -0.9597  0.2648
  912TIP3    H124227   4.692   0.810   0.510  0.9564  0.2942 -1.9145
  912TIP3    H224228   4.726   0.663   0.520 -2.0602 -0.3038  2.3161
  913TIP3   OH224229   3.464   3.463   0.562 -0.1627  0.4521 -1.2997
  913TIP3    H124230   3.369   3.468   0.556 -0.3274  1.1284  0.9721
  913TIP3    H224231   3.495   3.489   0.475 -2.0291 -0.3128 -2.2442
  914TIP3   OH224232   4.481   5.894   3.522  0.2243  0.0691 -0.3081
  914TIP3    H124233   4.542   5.960   3.554  1.1352 -0.5962 -0.6327
  914TIP3    H224234   4.525   5.811   3.538 -1.1107 -0.5024  0.5323
  915TIP3   OH224235   6.672   0.277   3.655  0.4118 -0.1571 -0.0045
  915TIP3    H124236   6.720   0.286   3.572  0.7805 -0.9851  0.1087
  915TIP3    H224237   6.588   0.239   3.629  0.6650 -0.7609  0.0241
  916TIP3   OH224238   3.559   3.166   2.878 -0.1358 -0.2157  0.1320
  916TIP3    H124239   3.518   3.250   2.901 -1.1213  0.3332 -3.1857
  916TIP3    H224240   3.486   3.109   2.856  0.6631 -0.4360 -2.1725
  917TIP3   OH224241   3.667   1.744   2.492  0.2116 -0.2422 -0.3799
  917TIP3    H124242   3.702   1.693   2.419  1.0634  0.1272 -0.2453
  917TIP3    H224243   3.625   1.819   2.449 -3.3746 -2.2440 -0.7628
  918TIP3   OH224244   5.859   2.484   3.336  0.1791  0.2177  0.1846
  918TIP3    H124245   5.833   2.522   3.252  0.6662  0.1141 -0.0140
  918TIP3    H224246   5.788   2.423   3.357 -0.8633  1.5462  0.7394
  919TIP3   OH224247   4.797   5.340  12.707 -0.0160  0.3597 -0.3721
  919TIP3    H124248   4.792   5.277  12.635 -2.3703 -1.9934  1.6017
  919TIP3    H224249   4.746   5.415  12.677 -1.3730 -0.7714 -1.0256
  920TIP3   OH224250   1.762   5.386  13.858  0.1965  0.5392  0.1440
  920TIP3    H124251   1.802   5.327  13.794 -0.1875 -2.4417  2.4347
  920TIP3    H224252   1.670   5.390  13.831  0.0472 -0.6342  0.4127
  921TIP3   OH224253   4.566   1.782   2.613 -0.2387  0.3045 -0.0869
  921TIP3    H124254   4.605   1.862   2.647 -2.3865  1.4175 -0.0227
  921TIP3    H224255   4.624   1.712   2.643  1.3802  1.7653  0.3602
  922TIP3   OH224256   2.164   6.395   0.666 -0.4700 -0.5715  0.0375
  922TIP3    H124257   2.161   6.407   0.760 -1.6093  2.9184 -0.3194
  922TIP3    H224258   2.162   6.483   0.629  2.3652 -1.6554 -3.2766
  923TIP3   OH224259   1.264   5.571   0.339 -0.0203  0.3946  0.5273
  923TIP3    H124260   1.204   5.529   0.277  0.2748  0.5023  0.1695
  923TIP3    H224261   1.227   5.550   0.425 -0.4260  0.2379  0.3176
  924TIP3   OH224262   5.349   6.408   0.102 -0.2128 -0.0093  0.4755
  924TIP3    H124263   5.294   6.427   0.026 -0.5577 -0.7759  0.5174
  924TIP3    H224264   5.431   6.454   0.085  0.1364 -1.0943 -0.9224
  925TIP3   OH224265   1.791   6.232  13.140 -0.0391 -1.0331 -0.8990
  925TIP3    H124266   1.836   6.309  13.106 -1.0741  0.7926  1.5095
  925TIP3    H224267   1.859   6.183  13.187  0.0647  0.1944  0.3068
  926TIP3   OH224268   6.503   0.402  12.013  0.3784  0.6228  0.6481
  926TIP3    H124269   6.488   0.318  12.056 -3.0495 -0.1116 -1.5596
  926TIP3    H224270   6.578   0.387  11.957  0.2261 -0.7800  0.7743
  927TIP3   OH224271   1.963   0.014   3.068 -0.3112  0.0048  0.4383
  927TIP3    H124272   2.025  -0.024   3.005 -1.9950  1.5327 -2.3719
  927TIP3    H224273   2.006   0.094   3.098 -0.2492  0.2285 -0.2286
  928TIP3   OH224274   6.087   6.584   1.279  0.1714  0.7591  0.2267
  928TIP3    H124275   6.014   6.547   1.230  0.3328 -1.9472  1.8139
  928TIP3    H224276   6.149   6.511   1.289  2.5593  2.6284 -0.0232
  929TIP3   OH224277   5.363   3.867   4.921 -0.2996  0.1459  0.2814
  929TIP3    H124278   5.407   3.819   4.851 -0.5558  1.5034 -0.8634
  929TIP3    H224279   5.310   3.802   4.967  2.1823 -1.3760  1.1627
  930TIP3   OH224280   1.600   1.591  13.258 -0.3012 -0.2906  0.3152
  930TIP3    H124281   1.564   1.619  13.175 -0.5229 -1.9832 -0.1987
  930TIP3    H224282   1.693   1.577  13.241 -0.1802  0.1736  0.5781
  931TIP3   OH224283   3.583   6.657   5.297  0.5183 -0.2578 -0.4453
  931TIP3    H124284   3.647   6.619   5.357 -0.0023  0.2583  0.4541
  931TIP3    H224285   3.580   6.595   5.224  2.6697  0.1303 -0.9454
  932TIP3   OH224286   2.970   6.382  15.416  0.4253 -0.1753  0.2280
  932TIP3    H124287   3.009   6.311  15.468  3.2701 -0.2841 -1.8057
  932TIP3    H224288   3.037   6.449  15.413 -0.4865  0.7220 -1.5111
  933TIP3   OH224289   2.671   5.137   6.218 -0.3538 -0.1429 -0.1472
  933TIP3    H124290   2.607   5.192   6.174 -1.6696 -1.5597 -0.1259
  933TIP3    H224291   2.619   5.083   6.278  1.2816  1.4206  2.9361
  934TIP3   OH224292   3.502   5.335   3.323 -0.4942  0.0300 -0.0156
  934TIP3    H124293   3.542   5.417   3.353 -1.1075  0.0002  0.9579
  934TIP3    H224294   3.572   5.289   3.277  0.6220 -0.0646  1.6952
  935TIP3   OH224295   6.406   2.513  11.779 -0.5346  0.1975  0.1970
  935TIP3    H124296   6.372   2.534  11.866 -1.0725  0.3838 -0.0515
  935TIP3    H224297   6.332   2.471  11.734 -0.3560  0.3754 -0.2712
  936TIP3   OH224298   0.376   5.116  15.345 -0.4707  0.4888  0.5321
  936TIP3    H124299   0.413   5.028  15.344  0.5829  0.9092  0.2880
  936TIP3    H224300   0.345   5.128  15.435  0.1349  0.1625  0.7920
  937TIP3   OH224301   1.603   6.624   4.572  0.2081 -0.8107  0.0234
  937TIP3    H124302   1.551   6.601   4.649 -0.3547  0.8359  0.1726
  937TIP3    H224303   1.551   6.691   4.528  0.9406 -1.1111 -1.3239
  938TIP3   OH224304   5.583   0.567   2.454  0.1499  0.2935 -0.5359
  938TIP3    H124305   5.489   0.551   2.458 -0.0656  1.5188 -0.3014
  938TIP3    H224306   5.591   0.662   2.446  1.3647  0.1907 -0.7754
  939TIP3   OH224307   2.889   0.480   0.255  0.2750  0.3907 -0.3369
  939TIP3    H124308   2.911   0.552   0.196  1.2280  0.8155  0.4864
  939TIP3    H224309   2.923   0.509   0.340 -0.4963 -0.4731  0.2822
  940TIP3   OH224310   4.619   2.927  13.488  0.3529 -0.5189 -0.2568
  940TIP3    H124311   4.546   2.943  13.428  1.6885 -1.8259 -2.3521
  940TIP3    H224312   4.668   3.009  13.489 -1.3193  0.5534  1.5772
  941TIP3   OH224313   3.639   6.478  16.388 -0.1111  0.7758  0.1005
  941TIP3    H124314   3.697   6.503  16.316 -0.4759  0.2489 -0.3834
  941TIP3    H224315   3.692   6.420  16.443 -0.1981  0.2526 -0.3677
  942TIP3   OH224316   3.374   6.755   0.199 -0.2573 -0.4183 -0.5397
  942TIP3    H124317   3.333   6.812   0.264 -0.2667 -1.7353  0.6382
  942TIP3    H224318   3.330   6.778   0.117 -2.5166 -0.9212  0.4513
  943TIP3   OH224319   0.884   3.911   5.688 -0.3066  0.4300  0.3102
  943TIP3    H124320   0.896   3.869   5.773  0.2608  0.8906  0.4657
  943TIP3    H224321   0.906   3.843   5.624 -1.5457 -0.1783  0.4941
  944TIP3   OH224322   1.853   5.568  15.715  0.1831  0.0390 -0.4393
  944TIP3    H124323   1.943   5.542  15.696  0.6312  0.9382  0.3916
  944TIP3    H224324   1.822   5.500  15.776 -0.2316 -1.1177 -1.8882
  945TIP3   OH224325   6.647   5.453  11.245 -0.7480  1.0076  0.1395
  945TIP3    H124326   6.606   5.394  11.182 -1.2167  1.2987  0.1694
  945TIP3    H224327   6.580   5.519  11.264 -0.5162  1.0849  0.7266
  946TIP3   OH224328   0.676   6.387  16.292  0.2221 -0.0300 -0.6338
  946TIP3    H124329   0.657   6.310  16.347 -2.8540 -0.0876 -1.5702
  946TIP3    H224330   0.667   6.355  16.203  0.6272  1.0744 -1.0852
  947TIP3   OH224331   6.652   4.591   2.392 -0.4638  0.4908  0.6759
  947TIP3    H124332   6.728   4.534   2.406  0.5335  1.4301 -0.6121
  947TIP3    H224333   6.594   4.574   2.467  1.1383 -0.0623  1.8414
  948TIP3   OH224334   1.571   2.719  13.332  0.3471 -0.0661  0.1579
  948TIP3    H124335   1.587   2.812  13.348  0.8772 -0.3698  1.5635
  948TIP3    H224336   1.540   2.685  13.416 -0.7150 -0.9844 -0.5812
  949TIP3   OH224337   3.605   2.238   3.290  0.8313  0.3896  0.0453
  949TIP3    H124338   3.664   2.238   3.214  0.0472  0.1675 -0.5840
  949TIP3    H224339   3.572   2.148   3.295  0.9558  0.3768  0.7148
  950TIP3   OH224340   0.803   0.667  11.244  0.5082 -0.2894 -0.0752
  950TIP3    H124341   0.831   0.754  11.215 -0.9525  0.4146  0.5155
  950TIP3    H224342   0.859   0.606  11.197  0.5665  0.9215 -1.6414
  951TIP3   OH224343   3.422   0.137   2.360  0.2923 -0.2417 -0.2744
  951TIP3    H124344   3.376   0.210   2.318  0.5592 -0.3875 -0.8215
  951TIP3    H224345   3.471   0.096   2.290 -0.4290 -1.4041 -0.1170
  952TIP3   OH224346   6.580   6.081   5.493 -0.2496 -0.2702 -0.0872
  952TIP3    H124347   6.640   6.034   5.434 -1.2604 -1.9399  0.1591
  952TIP3    H224348   6.554   6.158   5.444 -0.6221 -1.3321 -1.6275
  953TIP3   OH224349   2.911   6.786  15.445  0.0355 -0.0233  0.0179
  953TIP3    H124350   2.849   6.748  15.382 -0.4596  1.3636 -0.3554
  953TIP3    H224351   2.974   6.833  15.392 -0.0031  0.6074  0.5227
  954TIP3   OH224352   4.445   4.202  14.382 -0.5338  0.2373  0.5444
  954TIP3    H124353   4.540   4.205  14.385 -0.5497  2.6868  0.7414
  954TIP3    H224354   4.424   4.111  14.359  1.8086 -0.4311  0.8294
  955TIP3   OH224355   0.257   5.725   3.394  0.9198  0.6169 -0.0034
  955TIP3    H124356   0.242   5.633   3.374  2.3782  0.5568 -1.0126
  955TIP3    H224357   0.188   5.748   3.456  0.9357 -1.3276  0.8152
  956TIP3   OH224358   6.665   0.180   2.755  0.2644 -0.0434  0.9856
  956TIP3    H124359   6.596   0.236   2.719 -0.3737 -1.5030 -0.1770
  956TIP3    H224360   6.737   0.240   2.774 -0.3726  1.1736 -0.2541
  957TIP3   OH224361   6.435   4.582  15.808 -0.3247  0.6715  0.5856
  957TIP3    H124362   6.511   4.612  15.857 -0.4460 -0.2423  1.3752
  957TIP3    H224363   6.461   4.497  15.773 -0.3441  1.1839 -0.7228
  958TIP3   OH224364   0.925   6.540  14.143  0.5199 -0.5181  0.0619
  958TIP3    H124365   0.979   6.487  14.085  1.7339  0.0579  0.6433
  958TIP3    H224366   0.854   6.572  14.087 -0.4789 -2.9741 -0.2452
  959TIP3   OH224367   2.627   4.041   2.870 -0.1803 -0.4842  0.2902
  959TIP3    H124368   2.657   4.132   2.866 -2.1253  0.1923  0.1262
  959TIP3    H224369   2.616   4.023   2.963 -3.5434  0.8489  0.2985
  960TIP3   OH224370   4.003   5.798   4.015  0.6931 -0.2430  0.0312
  960TIP3    H124371   4.042   5.780   3.930 -1.0988 -1.9095 -0.4932
  960TIP3    H224372   4.011   5.893   4.025 -0.0793  0.1776 -2.5478
  961TIP3   OH224373   3.312   1.062   5.127 -0.1069 -0.0998 -0.1542
  961TIP3    H124374   3.352   1.018   5.201  0.0902 -0.5333 -0.5103
  961TIP3    H224375   3.283   1.146   5.161 -2.3170 -1.2855  1.0321
  962TIP3   OH224376   1.820   1.488  11.139  0.0041 -0.5680 -0.0907
  962TIP3    H124377   1.769   1.408  11.126  0.8452 -1.1241 -0.0914
  962TIP3    H224378   1.907   1.466  11.105 -0.3830  1.1643 -2.4341
  963TIP3   OH224379   4.254   4.974  13.505 -0.1055  0.0180 -0.3210
  963TIP3    H124380   4.226   5.064  13.486  1.9088  0.3269 -2.2773
  963TIP3    H224381   4.174   4.930  13.531 -1.2912  2.2106  0.0319
  964TIP3   OH224382   5.615   6.246   1.570 -0.0720 -0.2362  0.3103
  964TIP3    H124383   5.704   6.222   1.597 -0.0180 -0.7438 -0.3001
  964TIP3    H224384   5.606   6.338   1.594  1.1454  0.2392 -0.9326
  965TIP3   OH224385   3.864   6.151  15.082 -0.1747  0.4311 -0.1034
  965TIP3    H124386   3.847   6.245  15.079  2.2265  0.9713  0.7996
  965TIP3    H224387   3.929   6.141  15.152  0.7777 -1.6878 -1.2161
  966TIP3   OH224388   2.090   0.377  11.305  0.1397 -0.0279 -0.0566
  966TIP3    H124389   2.056   0.463  11.280  0.8162  0.1762 -0.2843
  966TIP3    H224390   2.030   0.315  11.265 -0.6996  0.3340  0.5921
  967TIP3   OH224391   5.696   5.157  12.244  0.0201  0.0869  0.1302
  967TIP3    H124392   5.702   5.247  12.210  2.4906 -0.3134 -0.7026
  967TIP3    H224393   5.604   5.134  12.233 -0.6300  2.4072  0.0977
  968TIP3   OH224394   5.115   4.572   0.526 -0.4462 -0.1332  0.1262
  968TIP3    H124395   5.046   4.635   0.542  1.1426  1.4563  1.0153
  968TIP3    H224396   5.193   4.625   0.509  0.3526 -1.8416 -2.0422
  969TIP3   OH224397   6.112   3.831  15.938  0.1341 -0.0246 -0.3188
  969TIP3    H124398   6.076   3.744  15.924 -1.5869  0.4563  0.7597
  969TIP3    H224399   6.107   3.844  16.033  0.4348  1.2109 -0.4514
  970TIP3   OH224400   1.755   0.112  12.702 -0.3961  0.3475  0.0189
  970TIP3    H124401   1.747   0.067  12.786  0.2558  1.2956  0.6097
  970TIP3    H224402   1.670   0.154  12.689 -0.5982 -0.0531  0.0637
  971TIP3   OH224403   4.266   6.117   5.634 -0.3664 -0.2520  0.0968
  971TIP3    H124404   4.318   6.152   5.706 -1.3790  1.5680  0.0094
  971TIP3    H224405   4.240   6.029   5.663 -0.1633  0.1686  1.6300
  972TIP3   OH224406   0.086   4.671   3.441 -0.5956  0.0121  0.0394
  972TIP3    H124407   0.040   4.692   3.523 -3.0074 -0.2608 -1.1523
  972TIP3    H224408   0.018   4.675   3.374  0.7021 -2.4769 -1.5859
  973TIP3   OH224409   6.634   1.677  12.504 -0.1034 -0.3737 -0.2057
  973TIP3    H124410   6.650   1.583  12.512 -1.5318 -0.7533 -1.2794
  973TIP3    H224411   6.593   1.701  12.587 -1.9412 -1.2508 -0.7924
  974TIP3   OH224412   3.591   5.465   6.793  0.0538 -0.2798  0.0323
  974TIP3    H124413   3.642   5.514   6.729  0.0040 -2.0744 -1.4348
  974TIP3    H224414   3.656   5.421   6.848  0.0787  0.3680  0.5433
  975TIP3   OH224415   0.786   2.204  14.829 -0.1891  0.1247 -0.3853
  975TIP3    H124416   0.790   2.299  14.833  0.8857  0.1000 -0.6370
  975TIP3    H224417   0.731   2.186  14.752 -1.9096  0.5143  0.6960
  976TIP3   OH224418   5.615   4.070  12.241  0.2967  0.4760  0.2112
  976TIP3    H124419   5.681   4.009  12.209  0.8915  0.1228  1.9537
  976TIP3    H224420   5.567   4.021  12.307 -1.4291  0.8886 -0.6955
  977TIP3   OH224421   0.749   1.309   1.131  0.1226 -0.0610 -0.6138
  977TIP3    H124422   0.743   1.403   1.144  1.2441 -0.2521  2.0366
  977TIP3    H224423   0.680   1.273   1.187 -0.4796 -0.8409 -1.8106
  978TIP3   OH224424   1.807   5.842   0.688 -0.5473  0.2403  0.2185
  978TIP3    H124425   1.738   5.886   0.737 -0.2368 -0.6162  1.4949
  978TIP3    H224426   1.764   5.766   0.649 -0.5498  0.2853  0.1336
  979TIP3   OH224427   3.213   4.348  13.061  0.1472  0.0385 -0.2936
  979TIP3    H124428   3.176   4.362  13.147 -1.0531 -0.9223 -0.6376
  979TIP3    H224429   3.292   4.402  13.060 -0.2959  0.7462  1.0755
  980TIP3   OH224430   1.161   5.742   1.927 -0.2024 -0.3254 -0.6408
  980TIP3    H124431   1.241   5.705   1.891 -0.3791 -0.3211 -1.0397
  980TIP3    H224432   1.118   5.785   1.853 -0.4592 -0.1250 -0.3811
  981TIP3   OH224433   5.449   3.698   4.237  0.5723 -0.0118 -0.2033
  981TIP3    H124434   5.367   3.684   4.190  0.8112  0.8761 -0.9086
  981TIP3    H224435   5.479   3.783   4.208  1.2775  0.0866  0.7709
  982TIP3   OH224436   3.419   5.871  16.165  0.6280 -0.3950 -0.4463
  982TIP3    H124437   3.483   5.803  16.184 -0.0344 -0.6964  0.8410
  982TIP3    H224438   3.344   5.824  16.130 -0.6764 -0.6879  2.4476
  983TIP3   OH224439   0.656   6.638  16.413  0.5102  0.1540 -0.0123
  983TIP3    H124440   0.665   6.589  16.495 -2.0354 -0.3275  0.0398
  983TIP3    H224441   0.657   6.570  16.345  1.7655  0.4870 -0.3638
  984TIP3   OH224442   6.289   5.829   4.155 -0.2352  0.4034 -0.1307
  984TIP3    H124443   6.335   5.883   4.091  3.2716  0.3014  1.9931
  984TIP3    H224444   6.310   5.739   4.129 -0.6352  0.2833 -0.0462
  985TIP3   OH224445   1.519   3.321   2.537  0.4886 -0.2413  0.0698
  985TIP3    H124446   1.537   3.258   2.607  0.7773  0.3239  0.5126
  985TIP3    H224447   1.425   3.337   2.542  0.3746 -0.7878 -0.1825
  986TIP3   OH224448   1.833   4.574  14.709 -0.2231  0.1554 -0.1522
  986TIP3    H124449   1.759   4.516  14.692  0.0611  0.0579 -1.1131
  986TIP3    H224450   1.820   4.648  14.650  1.0073 -0.3930 -1.1747
  987TIP3   OH224451   0.328   0.715   1.988  0.2502  0.2277 -0.0424
  987TIP3    H124452   0.388   0.788   1.992 -1.6729  1.9437 -0.7457
  987TIP3    H224453   0.384   0.637   1.991  2.3635  1.6888  0.5943
  988TIP3   OH224454   4.313   6.606   0.962 -0.4319  0.5859 -0.0071
  988TIP3    H124455   4.272   6.543   0.903  0.0271  0.5710 -0.3178
  988TIP3    H224456   4.292   6.575   1.049 -1.4961  0.8511 -0.1529
  989TIP3   OH224457   6.581   6.698  15.583 -0.2252 -0.2470 -0.1579
  989TIP3    H124458   6.657   6.668  15.534 -0.7954 -0.2046 -1.0914
  989TIP3    H224459   6.519   6.625  15.578  0.6761 -1.3799  2.8145
  990TIP3   OH224460   3.684   4.331   1.677 -0.0991  0.1678  0.3367
  990TIP3    H124461   3.596   4.312   1.645 -0.6636  0.3359  1.7193
  990TIP3    H224462   3.698   4.270   1.748  2.0648 -1.8009 -1.6027
  991TIP3   OH224463   4.407   5.653  15.919  0.8740  1.0052 -0.0093
  991TIP3    H124464   4.432   5.563  15.936 -0.1409  1.3071  4.3866
  991TIP3    H224465   4.337   5.648  15.854  0.3647 -1.4498  0.6573
  992TIP3   OH224466   1.969   5.904  13.654 -0.6367  0.0661  0.1573
  992TIP3    H124467   1.915   5.983  13.664 -1.1526 -0.3122  0.3460
  992TIP3    H224468   2.054   5.938  13.625 -0.4539  0.8142  1.4534
  993TIP3   OH224469   4.854   1.735   3.601 -0.2635  0.3292  0.2887
  993TIP3    H124470   4.849   1.640   3.592  2.1956 -0.0855  2.1862
  993TIP3    H224471   4.882   1.765   3.514 -0.1259 -0.7874 -0.0768
  994TIP3   OH224472   1.841   5.930  11.540  0.0394  0.4643  0.3446
  994TIP3    H124473   1.873   5.862  11.600 -0.2952  0.0563  0.0694
  994TIP3    H224474   1.759   5.960  11.580 -0.8573 -0.7221 -0.5567
  995TIP3   OH224475   1.437   6.424  12.353  0.2608  0.2217 -0.0945
  995TIP3    H124476   1.432   6.518  12.335 -0.3343  0.5844  1.7157
  995TIP3    H224477   1.499   6.417  12.426 -0.6095 -0.6358  0.5962
  996TIP3   OH224478   2.428   6.302   4.797  0.1006 -0.1370  0.3702
  996TIP3    H124479   2.416   6.216   4.837 -0.9509 -0.4112 -0.4932
  996TIP3    H224480   2.373   6.361   4.848  0.4469 -0.0719  0.6665
  997TIP3   OH224481   0.993   4.867  12.311 -0.4846 -0.0620 -0.3562
  997TIP3    H124482   0.952   4.888  12.394 -1.8857 -1.5920 -0.6043
  997TIP3    H224483   0.938   4.910  12.245  0.3413  0.7479 -0.5425
  998TIP3   OH224484   6.154   5.541  13.167 -0.5654  0.1188 -0.6032
  998TIP3    H124485   6.067   5.573  13.144 -0.9700  0.5508  1.3362
  998TIP3    H224486   6.180   5.595  13.242  1.4713  0.1240 -1.2428
  999TIP3   OH224487   1.576   5.431  17.134 -0.0592  0.5068 -0.2324
  999TIP3    H124488   1.594   5.406  17.043 -1.0250 -0.4431 -0.1936
  999TIP3    H224489   1.509   5.368  17.163 -0.2834  1.2378  0.9108
 1000TIP3   OH224490   2.979   3.330   5.679 -0.2798 -0.1081  0.4327
 1000TIP3    H124491   2.924   3.371   5.745 -0.6562  0.6735 -0.3481
 1000TIP3    H224492   2.934   3.248   5.658  1.7389 -2.3407  3.8102
 1001TIP3   OH224493   1.608   1.865   1.752 -0.0024 -0.3571 -0.1395
 1001TIP3    H124494   1.653   1.947   1.771 -0.6831 -0.0977  0.3977
 1001TIP3    H224495   1.631   1.808   1.826  1.1031 -0.9258 -0.9024
 1002TIP3   OH224496   6.218   2.374  16.984 -0.4870 -0.1561 -0.5209
 1002TIP3    H124497   6.310   2.392  17.002 -0.7017  0.7804 -0.3206
 1002TIP3    H224498   6.219   2.331  16.898  0.0722  0.5429 -0.8714
 1003TIP3   OH224499   2.936   5.583  13.129 -0.3438  1.0711  0.1936
 1003TIP3    H124500   2.941   5.599  13.223  2.8144  0.2670  0.2790
 1003TIP3    H224501   2.963   5.666  13.089 -0.7192  1.1120  0.0195
 1004TIP3   OH224502   4.294   5.972  15.745  0.4124  0.1050 -0.1838
 1004TIP3    H124503   4.319   5.970  15.837  0.0285  1.5881 -0.0080
 1004TIP3    H224504   4.356   5.915  15.701  0.0774 -1.2882  1.0973
 1005TIP3   OH224505   3.175   1.255   1.572  0.1693 -0.3240 -0.0856
 1005TIP3    H124506   3.228   1.302   1.508 -1.1334  0.0058 -0.9740
 1005TIP3    H224507   3.156   1.171   1.530  0.0374 -0.4559  0.2366
 1006TIP3   OH224508   1.984   0.992   4.564  0.7097 -0.1615 -0.1398
 1006TIP3    H124509   2.055   0.933   4.538  2.0604  0.7141  1.3268
 1006TIP3    H224510   2.013   1.078   4.533  0.7132  0.3331  1.1640
 1007TIP3   OH224511   5.416   5.432  16.511  0.0182  0.5789 -0.1340
 1007TIP3    H124512   5.399   5.485  16.433 -1.9514 -2.0044 -1.6313
 1007TIP3    H224513   5.509   5.411  16.506  0.2451  1.6782 -0.9519
 1008TIP3   OH224514   6.651   3.293   5.389 -0.6977  0.2426  0.6146
 1008TIP3    H124515   6.742   3.320   5.378 -0.9939  0.9756 -0.1816
 1008TIP3    H224516   6.655   3.200   5.412  0.1618 -0.4387 -2.0323
 1009TIP3   OH224517   6.640   2.953   0.500  0.9031 -0.4608 -0.0261
 1009TIP3    H124518   6.674   2.863   0.496  1.1334 -0.3787  0.0705
 1009TIP3    H224519   6.596   2.958   0.585 -0.2875 -0.8936 -0.5856
 1010TIP3   OH224520   6.303   2.455   0.364  0.5080 -0.4309 -0.1046
 1010TIP3    H124521   6.242   2.456   0.438  3.9012 -1.1843  3.0265
 1010TIP3    H224522   6.344   2.542   0.366  0.8259 -0.5589 -0.9234
 1011TIP3   OH224523   4.789   2.515  10.939  0.3501  0.0605 -0.0302
 1011TIP3    H124524   4.840   2.435  10.951 -0.1435 -0.2394  0.0772
 1011TIP3    H224525   4.698   2.489  10.952  0.0047  0.2740 -1.7658
 1012TIP3   OH224526   2.657   0.606   5.404  0.6792  0.2915 -0.2685
 1012TIP3    H124527   2.674   0.539   5.337 -3.3332  0.4281 -1.6965
 1012TIP3    H224528   2.621   0.558   5.478  1.2965  0.5551  0.2155
 1013TIP3   OH224529   0.906   5.182  14.425  0.0980  0.3680  0.1715
 1013TIP3    H124530   0.943   5.260  14.383  1.1345 -0.7731 -1.1432
 1013TIP3    H224531   0.917   5.198  14.519  1.6336  1.2019 -0.1066
 1014TIP3   OH224532   3.560   6.766   0.427  0.4963 -0.4251 -0.0018
 1014TIP3    H124533   3.507   6.773   0.348  1.0736  0.1344 -0.3450
 1014TIP3    H224534   3.647   6.794   0.400  0.6499 -0.0306  0.8892
 1015TIP3   OH224535   5.579   5.556  15.925  0.1000 -0.4707  0.3591
 1015TIP3    H124536   5.574   5.462  15.939 -0.7416 -0.5575 -0.4412
 1015TIP3    H224537   5.501   5.591  15.968 -1.1035 -0.4701 -1.6710
 1016TIP3   OH224538   1.146   4.774   4.761  0.5796 -0.6528 -0.0578
 1016TIP3    H124539   1.070   4.724   4.791 -0.4762  0.6725 -0.4052
 1016TIP3    H224540   1.175   4.821   4.840 -0.2760  0.4327 -0.3578
 1017TIP3   OH224541   2.109   5.705   3.210 -0.6600 -0.4401  0.2177
 1017TIP3    H124542   2.183   5.711   3.271 -1.8674 -1.6788  1.8737
 1017TIP3    H224543   2.056   5.782   3.229 -0.1884  0.0881 -0.5092
 1018TIP3   OH224544   3.191   3.118   0.349  0.1021 -0.4785 -0.2758
 1018TIP3    H124545   3.198   3.058   0.275  1.0163  0.3007 -0.8337
 1018TIP3    H224546   3.100   3.147   0.348  0.0333 -0.7003 -0.9122
 1019TIP3   OH224547   1.538   6.282  13.196 -0.6722  0.1270 -0.7457
 1019TIP3    H124548   1.476   6.258  13.126  0.4286  0.6835 -1.9401
 1019TIP3    H224549   1.622   6.248  13.166 -0.4354 -1.0859  1.1054
 1020TIP3   OH224550   3.865   3.648  11.264  0.0113  0.0956  0.4108
 1020TIP3    H124551   3.825   3.564  11.287 -1.7307  1.1510  1.4063
 1020TIP3    H224552   3.811   3.713  11.307  0.2919  1.8624 -1.7370
 1021TIP3   OH224553   6.159   3.417   0.016  0.2404 -1.0311  0.4590
 1021TIP3    H124554   6.136   3.325   0.026 -1.7058 -0.7151 -0.6242
 1021TIP3    H224555   6.079   3.465   0.037  0.1210  0.2206 -2.4148
 1022TIP3   OH224556   0.070   0.988   2.123  0.3149  0.5572  0.3017
 1022TIP3    H124557   0.081   1.037   2.204 -1.0247  0.6346  0.4482
 1022TIP3    H224558   0.064   0.897   2.150 -0.6918  0.6290  0.3600
 1023TIP3   OH224559   3.702   0.637   0.637 -0.0370 -0.3815  0.2490
 1023TIP3    H124560   3.760   0.656   0.562 -0.3045  1.0116  0.3831
 1023TIP3    H224561   3.709   0.542   0.648  1.2412 -0.4074 -0.5426
 1024TIP3   OH224562   4.587   1.968   1.898  0.2081  0.3907 -0.2145
 1024TIP3    H124563   4.540   2.051   1.904  0.7239  0.6406  0.4640
 1024TIP3    H224564   4.593   1.937   1.989  0.6655 -0.0226 -0.3833
 1025TIP3   OH224565   2.071   4.732  16.010  0.3403  0.3330 -0.1610
 1025TIP3    H124566   2.100   4.725  16.101  0.5417  1.0070 -0.1712
 1025TIP3    H224567   2.099   4.650  15.970 -0.0095 -0.0980  0.4508
 1026TIP3   OH224568   5.865   3.942  13.470  0.2839 -0.1365  0.3341
 1026TIP3    H124569   5.801   3.871  13.477  0.3057 -0.1041  0.9544
 1026TIP3    H224570   5.828   4.013  13.523  0.8701 -0.1475  0.7655
 1027TIP3   OH224571   1.474   6.180   0.680 -0.2704 -0.0503  0.4329
 1027TIP3    H124572   1.406   6.143   0.624  0.4032 -0.5375 -0.0731
 1027TIP3    H224573   1.547   6.200   0.621  0.1439  0.1851  1.0082
 1028TIP3   OH224574   3.605   5.337  15.008 -0.4392 -0.3889  0.4726
 1028TIP3    H124575   3.595   5.329  14.913  0.5756  2.0631  0.0740
 1028TIP3    H224576   3.548   5.411  15.031 -0.1696 -0.5475  1.6646
 1029TIP3   OH224577   1.279   3.047   2.084 -0.0830  0.4775 -0.0786
 1029TIP3    H124578   1.336   2.971   2.072 -0.2290  0.1749  1.0457
 1029TIP3    H224579   1.272   3.057   2.179 -1.6432  0.7040 -0.1923
 1030TIP3   OH224580   4.588   6.528  11.728 -0.2213  0.0773 -0.0823
 1030TIP3    H124581   4.515   6.476  11.693  0.1991  0.3914 -1.5213
 1030TIP3    H224582   4.547   6.608  11.761 -0.5105  0.5724 -1.5386
 1031TIP3   OH224583   4.082   4.985   1.628  0.4565 -0.1423  0.3922
 1031TIP3    H124584   4.160   4.961   1.677  0.5627  0.0223  0.3035
 1031TIP3    H224585   4.031   4.904   1.623  1.0892 -0.4916 -0.4288
 1032TIP3   OH224586   5.376   1.510   5.135 -0.5245  0.0799 -0.6017
 1032TIP3    H124587   5.465   1.529   5.165 -0.4032 -1.6594  0.2392
 1032TIP3    H224588   5.387   1.443   5.068 -1.3001 -1.8630  1.1299
 1033TIP3   OH224589   6.188   3.340  13.137 -0.4604 -0.2533 -0.1254
 1033TIP3    H124590   6.248   3.293  13.195  1.1677  1.0927 -0.6436
 1033TIP3    H224591   6.212   3.310  13.049 -0.8767 -0.0440 -0.3105
 1034TIP3   OH224592   0.680   5.788  11.203 -0.4000  0.1055 -0.2232
 1034TIP3    H124593   0.650   5.708  11.245 -1.4813  0.9058  0.5690
 1034TIP3    H224594   0.751   5.759  11.144 -0.9423 -1.4454 -0.1541
 1035TIP3   OH224595   4.251   3.053   3.859 -0.6963  0.4827  0.0908
 1035TIP3    H124596   4.172   3.006   3.832 -0.5043  0.6875 -0.8498
 1035TIP3    H224597   4.318   2.986   3.863 -0.7410  0.4402  0.1401
 1036TIP3   OH224598   4.107   4.254  16.055 -0.7127 -0.7723  0.2804
 1036TIP3    H124599   4.091   4.233  16.147  0.9048 -0.4969  0.6569
 1036TIP3    H224600   4.194   4.217  16.036  0.3281  1.7147 -0.2559
 1037TIP3   OH224601   0.771   0.067  12.181 -0.1772  0.6732  0.0886
 1037TIP3    H124602   0.688   0.110  12.200  0.6732  2.4121  0.0426
 1037TIP3    H224603   0.803   0.039  12.266  0.0766  1.7029  0.3379
 1038TIP3   OH224604   6.545   6.421  15.376 -0.0155 -0.4476 -0.1935
 1038TIP3    H124605   6.478   6.415  15.445  0.4813  0.5707  0.4130
 1038TIP3    H224606   6.627   6.400  15.421  0.4769  1.3687 -0.1594
 1039TIP3   OH224607   5.151   6.232  15.136  0.1110  0.1946  0.2800
 1039TIP3    H124608   5.089   6.305  15.134 -0.1494 -0.0138 -2.4100
 1039TIP3    H224609   5.112   6.168  15.195 -2.2176  0.1248 -1.2323
 1040TIP3   OH224610   0.862   4.640  11.389  0.5884 -0.1828  0.2451
 1040TIP3    H124611   0.954   4.654  11.367  0.5943  0.6061  0.7227
 1040TIP3    H224612   0.862   4.560  11.442  1.3197  1.0166  2.1579
 1041TIP3   OH224613   2.685   4.597  11.578 -0.4963  0.0746  0.1757
 1041TIP3    H124614   2.751   4.626  11.515 -1.0332 -0.9311 -0.8935
 1041TIP3    H224615   2.709   4.640  11.660 -0.6437  2.5937 -1.0374
 1042TIP3   OH224616   5.804   4.139  15.762 -0.5870  0.3094 -0.1276
 1042TIP3    H124617   5.739   4.131  15.832  0.6392  1.0166  1.1358
 1042TIP3    H224618   5.760   4.190  15.694 -2.0297 -0.9544 -0.2007
 1043TIP3   OH224619   1.715   5.044   6.456  0.1015 -0.3595 -0.1669
 1043TIP3    H124620   1.641   5.074   6.508 -0.7330 -0.5863 -1.1769
 1043TIP3    H224621   1.675   4.998   6.382  1.2814 -1.7865  0.0327
 1044TIP3   OH224622   6.326   2.811   6.558  0.1224 -0.6312  0.0998
 1044TIP3    H124623   6.271   2.867   6.613 -1.5561  1.9799 -3.7896
 1044TIP3    H224624   6.413   2.816   6.597 -0.1687  3.9466  0.7250
 1045TIP3   OH224625   2.784   0.895  15.292 -0.2320 -1.1578  0.0018
 1045TIP3    H124626   2.772   0.856  15.379 -0.0761 -0.6905  0.2361
 1045TIP3    H224627   2.775   0.989  15.306 -2.6805 -1.1881 -0.9089
 1046TIP3   OH224628   5.765   2.018   0.321  0.1575  0.2578  0.0096
 1046TIP3    H124629   5.673   1.996   0.312 -0.2664  0.8921  2.1883
 1046TIP3    H224630   5.793   2.045   0.233 -1.6943 -0.0251 -0.6945
 1047TIP3   OH224631   5.678   2.321   5.988  0.7362 -0.1065 -0.7965
 1047TIP3    H124632   5.682   2.235   5.948 -0.1071 -0.3585 -0.3741
 1047TIP3    H224633   5.617   2.370   5.933  0.3419 -0.1441 -0.4031
 1048TIP3   OH224634   4.658   1.316  15.140  0.0382  0.2258 -0.0513
 1048TIP3    H124635   4.700   1.351  15.219 -0.1810  0.9682 -0.2513
 1048TIP3    H224636   4.722   1.254  15.104  1.1658  1.6262 -0.5697
 1049TIP3   OH224637   1.071   2.021  16.189  0.0841 -0.3183 -0.3086
 1049TIP3    H124638   1.000   1.968  16.226 -0.3742  1.0539  0.8485
 1049TIP3    H224639   1.050   2.111  16.214  1.2456  0.3495 -1.5695
 1050TIP3   OH224640   3.777   5.838   4.203  0.4979 -0.1638  0.4273
 1050TIP3    H124641   3.781   5.770   4.270 -0.8655 -0.9866 -0.2887
 1050TIP3    H224642   3.846   5.814   4.141 -0.9530 -1.8548 -0.6360
 1051TIP3   OH224643   2.731   3.663  14.448 -0.0103  0.2183  0.0082
 1051TIP3    H124644   2.683   3.667  14.366  0.7699 -0.8023 -0.5197
 1051TIP3    H224645   2.749   3.754  14.470  0.4102  0.4837 -1.3497
 1052TIP3   OH224646   0.081   3.226  13.888  1.1262 -1.0472  0.1908
 1052TIP3    H124647   0.086   3.133  13.868  1.2140 -1.0405  0.1816
 1052TIP3    H224648   0.017   3.261  13.826  0.5765 -1.2256  0.6432
 1053TIP3   OH224649   2.747   4.602  16.625  0.2179 -0.1821  0.6808
 1053TIP3    H124650   2.779   4.691  16.614  0.1699 -0.0268  1.7055
 1053TIP3    H224651   2.661   4.602  16.584  0.4002  0.1153  0.2862
 1054TIP3   OH224652   3.370   2.101  13.572 -0.1197  0.5311  0.0059
 1054TIP3    H124653   3.341   2.021  13.617 -2.0204 -0.6700 -3.0152
 1054TIP3    H224654   3.456   2.079  13.538 -0.2999  0.0335 -0.1423
 1055TIP3   OH224655   1.235   4.861   0.850 -0.3079  0.0809 -0.3294
 1055TIP3    H124656   1.251   4.945   0.807  0.5316 -0.4000 -0.9819
 1055TIP3    H224657   1.151   4.873   0.895  0.4020  1.6875  0.6710
 1056TIP3   OH224658   5.673   1.594   1.415  0.0986 -0.4389  0.2067
 1056TIP3    H124659   5.584   1.618   1.389  0.1806  0.2789  0.5580
 1056TIP3    H224660   5.669   1.589   1.511 -0.1572 -2.8650  0.1159
 1057TIP3   OH224661   3.530   4.594  13.348  0.0814  0.6011  0.2139
 1057TIP3    H124662   3.529   4.507  13.308 -2.3431 -1.1155  3.4817
 1057TIP3    H224663   3.473   4.647  13.292  1.5656  0.1781 -1.8145
 1058TIP3   OH224664   6.238   4.414  11.582  0.2584 -0.0500 -0.2295
 1058TIP3    H124665   6.197   4.441  11.665  0.6728 -0.8831  0.2573
 1058TIP3    H224666   6.191   4.334  11.558  0.0396  0.2684 -0.8919
 1059TIP3   OH224667   6.819   6.414  16.095  0.1023  0.3302 -0.3968
 1059TIP3    H124668   6.831   6.480  16.027  1.9155  0.8073  0.3218
 1059TIP3    H224669   6.725   6.397  16.096 -0.0104  0.4298 -2.8750
 1060TIP3   OH224670   6.254   0.347   0.045 -0.4255  0.3825  0.0725
 1060TIP3    H124671   6.320   0.349  -0.024  0.0943  0.7377  0.5732
 1060TIP3    H224672   6.303   0.326   0.125 -1.0045  0.0530  0.3524
 1061TIP3   OH224673   0.121   6.103   1.174  0.6174  0.2693 -0.1465
 1061TIP3    H124674   0.112   6.049   1.096  0.8070  0.2909 -0.1836
 1061TIP3    H224675   0.053   6.071   1.233 -0.3807  1.1163 -0.8125
 1062TIP3   OH224676   5.931   1.372   0.907 -0.3197 -0.0596  0.7585
 1062TIP3    H124677   5.944   1.366   0.813 -2.8425 -1.7270  0.4158
 1062TIP3    H224678   6.018   1.359   0.945  0.5921 -0.2699 -1.3079
 1063TIP3   OH224679   6.597   2.220   1.713  0.1770 -0.6875 -0.6005
 1063TIP3    H124680   6.599   2.156   1.785  1.6620 -0.1094 -0.0917
 1063TIP3    H224681   6.506   2.250   1.711  0.4811  0.9503  2.5945
 1064TIP3   OH224682   2.988   2.059   2.049 -0.4918 -0.3614 -0.6007
 1064TIP3    H124683   2.946   1.984   2.090 -1.2719 -0.5919 -1.7916
 1064TIP3    H224684   2.942   2.135   2.085 -1.0640 -0.5525 -0.9173
 1065TIP3   OH224685   6.088   1.626  15.781  0.6155 -0.2684  0.5781
 1065TIP3    H124686   6.027   1.684  15.826  0.9753  0.0176  0.7009
 1065TIP3    H224687   6.107   1.557  15.845 -0.3895 -0.9430  0.1738
 1066TIP3   OH224688   2.126   0.273   5.518  0.0896  0.1451 -0.2252
 1066TIP3    H124689   2.210   0.237   5.545  1.6629  1.0084 -3.5389
 1066TIP3    H224690   2.064   0.200   5.530  1.1611 -0.4464  2.4495
 1067TIP3   OH224691   6.649   3.956   3.323 -0.3975  0.1487 -0.2534
 1067TIP3    H124692   6.621   3.946   3.232  0.3538  0.2802 -0.4970
 1067TIP3    H224693   6.685   3.870   3.346  1.2792  0.7030 -0.7227
 1068TIP3   OH224694   3.063   3.105   4.399  0.2811  0.0420 -0.0747
 1068TIP3    H124695   3.113   3.035   4.358  0.9124  0.3507  0.1618
 1068TIP3    H224696   2.972   3.074   4.397  0.2498  0.1596 -1.9206
 1069TIP3   OH224697   5.940   2.090  16.205  0.9125  0.9839 -0.1168
 1069TIP3    H124698   6.005   2.021  16.209  0.9934  1.0917  0.5005
 1069TIP3    H224699   5.904   2.095  16.294 -1.2476 -0.3334 -0.8262
 1070TIP3   OH224700   3.191   2.691   5.658 -0.2090 -0.1606  0.7362
 1070TIP3    H124701   3.218   2.781   5.641 -2.4179  0.2838 -0.8376
 1070TIP3    H224702   3.145   2.665   5.579  0.8551 -2.9195  0.9169
 1071TIP3   OH224703   2.541   0.914   0.311  0.8755 -0.2828 -0.5521
 1071TIP3    H124704   2.626   0.869   0.305  1.1548 -0.1209  1.4478
 1071TIP3    H224705   2.494   0.867   0.381  0.4501  1.3518  0.3151
 1072TIP3   OH224706   4.508   6.086   2.019  0.3535  0.2298  0.4243
 1072TIP3    H124707   4.548   6.171   2.036  0.4964  0.0186  1.2048
 1072TIP3    H224708   4.536   6.032   2.093 -0.6181 -0.1807  0.5060
 1073TIP3   OH224709   6.120   4.174  11.080 -0.2386  0.9648  0.2851
 1073TIP3    H124710   6.089   4.101  11.133  0.2105  0.5585  0.0037
 1073TIP3    H224711   6.081   4.160  10.994  1.1488  0.0986 -0.2560
 1074TIP3   OH224712   3.162   5.538  11.449 -0.5636 -0.3736 -0.0101
 1074TIP3    H124713   3.170   5.448  11.480  0.0835 -0.1900  0.3782
 1074TIP3    H224714   3.103   5.532  11.374 -3.1132 -0.6500  1.9023
 1075TIP3   OH224715   6.181   2.763  14.369  0.0843 -0.1894 -0.3356
 1075TIP3    H124716   6.274   2.739  14.367 -0.6711 -3.6141 -1.2866
 1075TIP3    H224717   6.160   2.783  14.278 -0.2739 -0.0913 -0.2311
 1076TIP3   OH224718   0.764   2.047   2.058  0.4567 -0.1172 -0.0625
 1076TIP3    H124719   0.701   2.103   2.104 -0.6391 -1.0916 -0.3401
 1076TIP3    H224720   0.770   1.968   2.112  1.8855  0.1729  0.2537
 1077TIP3   OH224721   0.883   2.406  17.087 -0.2859  0.4325 -0.5433
 1077TIP3    H124722   0.931   2.404  17.004 -1.4846 -0.4630 -1.2493
 1077TIP3    H224723   0.791   2.408  17.061 -0.7961 -2.2040  0.6859
 1078TIP3   OH224724   1.713   2.412  14.021  0.2012  0.0667  0.2579
 1078TIP3    H124725   1.684   2.454  13.941 -0.6578  2.3299  1.6718
 1078TIP3    H224726   1.689   2.320  14.009  0.8065  0.1723 -2.3517
 1079TIP3   OH224727   6.728   5.506   2.201  0.4655 -0.2039 -0.2697
 1079TIP3    H124728   6.758   5.536   2.115  0.3636  0.1291 -0.1904
 1079TIP3    H224729   6.643   5.549   2.212  1.7362  2.1218  1.2680
 1080TIP3   OH224730   0.426   6.685  14.561  0.3206  0.7990  0.3537
 1080TIP3    H124731   0.504   6.631  14.554 -0.1347  0.1754 -0.0272
 1080TIP3    H224732   0.376   6.666  14.482 -0.7235  0.3706  1.0848
 1081TIP3   OH224733   1.282   5.704   6.063  0.1739  0.5813 -0.4484
 1081TIP3    H124734   1.353   5.769   6.063  0.9108 -0.1944 -1.0668
 1081TIP3    H224735   1.203   5.755   6.079  1.0367  1.2789  2.0192
 1082TIP3   OH224736   3.969   1.886  13.798 -0.8278  0.5620 -0.9366
 1082TIP3    H124737   3.956   1.963  13.744  0.8738  0.2985 -1.7859
 1082TIP3    H224738   3.959   1.812  13.738  3.3801  0.2976 -1.6265
 1083TIP3   OH224739   6.457   1.675  15.828 -0.2688  0.0805  0.2147
 1083TIP3    H124740   6.384   1.700  15.884 -0.8516  0.3224 -0.6442
 1083TIP3    H224741   6.530   1.729  15.860 -0.4945 -0.0323  0.9551
 1084TIP3   OH224742   1.403   2.670   2.287 -0.1363  0.0007  0.3684
 1084TIP3    H124743   1.443   2.612   2.222 -0.9059 -1.4993  1.1854
 1084TIP3    H224744   1.452   2.752   2.279  1.5863 -1.0255 -0.2277
 1085TIP3   OH224745   2.749   2.404  17.059 -0.0014 -0.3498  0.5956
 1085TIP3    H124746   2.746   2.462  17.135 -0.9732 -0.6248  0.7810
 1085TIP3    H224747   2.682   2.338  17.077  1.1091 -1.5788  0.4231
 1086TIP3   OH224748   0.721   3.178   4.136 -0.1019  0.8094 -0.3511
 1086TIP3    H124749   0.809   3.200   4.167  0.3104 -1.0251 -0.0690
 1086TIP3    H224750   0.683   3.261   4.108  1.0799  1.9094  1.1348
 1087TIP3   OH224751   1.315   4.525  13.038  1.0528  0.1702  0.1408
 1087TIP3    H124752   1.274   4.493  13.118 -1.8137 -0.1733 -1.3474
 1087TIP3    H224753   1.270   4.606  13.018  0.7717 -0.4213 -1.8007
 1088TIP3   OH224754   1.946   6.424   2.579  0.4525 -0.6349 -0.7001
 1088TIP3    H124755   1.977   6.359   2.643  0.1617  0.9634  1.1637
 1088TIP3    H224756   2.024   6.475   2.559 -0.0902  1.0005  1.0705
 1089TIP3   OH224757   4.172   2.970   2.610  0.4422 -0.0189 -0.3829
 1089TIP3    H124758   4.194   2.930   2.694  0.7277 -2.5419 -1.5632
 1089TIP3    H224759   4.143   2.896   2.555  0.0746  1.5612 -2.4422
 1090TIP3   OH224760   0.248   2.697   3.269  0.9991 -0.0341 -0.0818
 1090TIP3    H124761   0.293   2.777   3.298 -0.0614  0.7486 -0.5098
 1090TIP3    H224762   0.197   2.669   3.346  1.5323 -0.4299  0.1338
 1091TIP3   OH224763   4.531   0.455  15.240  0.6103 -0.3463  0.4380
 1091TIP3    H124764   4.524   0.359  15.240 -0.8341 -0.2725  1.2572
 1091TIP3    H224765   4.448   0.485  15.277  0.3524  1.2920 -1.2889
 1092TIP3   OH224766   4.295   4.693   2.714 -0.1220 -0.2291 -0.1017
 1092TIP3    H124767   4.232   4.728   2.777  1.7584  0.2479  1.6284
 1092TIP3    H224768   4.332   4.770   2.670 -0.0856 -0.4414 -0.4529
 1093TIP3   OH224769   1.237   4.484  16.088  0.0945  0.0300  0.0894
 1093TIP3    H124770   1.204   4.572  16.067  3.0912  1.3811  0.5879
 1093TIP3    H224771   1.266   4.449  16.004  0.4693  0.2217  0.1385
 1094TIP3   OH224772   6.307   1.445  12.864 -0.7005  0.2679  0.4551
 1094TIP3    H124773   6.351   1.448  12.780 -0.0912  1.0157  0.7858
 1094TIP3    H224774   6.347   1.372  12.911 -1.6364 -0.6943 -0.2086
 1095TIP3   OH224775   2.289   4.841  13.228  0.1065 -0.0738 -0.1467
 1095TIP3    H124776   2.379   4.858  13.257 -0.1264 -0.4301  0.8255
 1095TIP3    H224777   2.265   4.920  13.179  0.5108  0.5785  0.6770
 1096TIP3   OH224778   2.002   5.648  15.213 -0.1834  0.1234  0.1060
 1096TIP3    H124779   2.044   5.732  15.191 -0.8860  0.7814  1.1903
 1096TIP3    H224780   2.033   5.628  15.301 -1.1806  0.0033  0.4367
 1097TIP3   OH224781   1.265   0.623   0.862  0.0596  0.0376 -0.1396
 1097TIP3    H124782   1.181   0.577   0.863  0.4608 -0.6931  0.1327
 1097TIP3    H224783   1.243   0.711   0.832 -0.8759 -0.0140  0.3648
 1098TIP3   OH224784   4.953   4.394   0.335 -0.0110 -0.0068  0.0705
 1098TIP3    H124785   5.041   4.400   0.371  0.5380 -0.7914 -1.0840
 1098TIP3    H224786   4.940   4.478   0.291  1.1325 -0.7331 -1.7899
 1099TIP3   OH224787   6.136   3.315   6.401  0.0191 -0.6050 -0.2249
 1099TIP3    H124788   6.071   3.356   6.345  0.9403  1.6046  0.2312
 1099TIP3    H224789   6.088   3.289   6.479 -0.6389 -0.6937 -0.6525
 1100TIP3   OH224790   0.089   0.272   2.547  0.0435  0.5167 -0.1372
 1100TIP3    H124791   0.119   0.195   2.596 -0.2377  0.0910 -0.6222
 1100TIP3    H224792   0.143   0.273   2.469 -0.6961  0.1711 -0.6616
 1101TIP3   OH224793   1.077   3.140   3.661  0.3900 -0.4682 -0.8657
 1101TIP3    H124794   1.101   3.123   3.752 -1.4409 -0.1175 -0.2802
 1101TIP3    H224795   1.157   3.176   3.622  1.8271 -2.5014  0.0402
 1102TIP3   OH224796   3.253   2.538   1.557 -0.0024 -0.4439  0.5281
 1102TIP3    H124797   3.343   2.567   1.542  0.1055 -0.1968  1.5729
 1102TIP3    H224798   3.254   2.444   1.538  0.3828 -0.3744  0.1941
 1103TIP3   OH224799   0.827   0.213   4.841 -0.2725 -0.0619  1.1376
 1103TIP3    H124800   0.827   0.254   4.755 -0.7709 -1.0108  0.6685
 1103TIP3    H224801   0.905   0.157   4.841  0.4624  0.9160  1.8112
 1104TIP3   OH224802   3.562   3.224  12.337  0.3662  0.5386  0.2426
 1104TIP3    H124803   3.467   3.225  12.335  0.2252 -1.7152  1.7311
 1104TIP3    H224804   3.584   3.172  12.415  2.8299  1.8121  0.5138
 1105TIP3   OH224805   4.233   0.892  12.810  0.5442 -0.5694 -0.7796
 1105TIP3    H124806   4.227   0.864  12.901 -1.4575 -0.0210 -0.7024
 1105TIP3    H224807   4.311   0.846  12.776  2.4272  0.6323  1.6366
 1106TIP3   OH224808   4.375   1.021   4.367  0.7125  0.0181  0.2647
 1106TIP3    H124809   4.348   0.930   4.357 -1.4544  0.5069  1.1103
 1106TIP3    H224810   4.415   1.025   4.454 -1.3867  0.2943  1.2717
 1107TIP3   OH224811   2.225   5.753   2.428  0.0671  0.7645  0.0050
 1107TIP3    H124812   2.130   5.744   2.420  0.0607 -1.5296  1.7220
 1107TIP3    H224813   2.251   5.687   2.492  3.0994 -0.1364 -1.9304
 1108TIP3   OH224814   2.011   6.279  15.998 -0.2250  0.3185  0.1102
 1108TIP3    H124815   1.976   6.356  16.042  1.4583  0.8040  0.7020
 1108TIP3    H224816   2.106   6.285  16.012 -0.1481 -3.0178  2.1700
 1109TIP3   OH224817   2.409   2.595   4.228  0.0991  0.2436 -0.5924
 1109TIP3    H124818   2.462   2.557   4.158 -0.0791 -0.6385 -0.2627
 1109TIP3    H224819   2.417   2.533   4.300 -0.8494  0.4349 -0.3113
 1110TIP3   OH224820   4.226   1.480  14.623  0.1612 -0.0188 -0.2023
 1110TIP3    H124821   4.157   1.534  14.585 -3.0708 -2.9661  0.9253
 1110TIP3    H224822   4.234   1.512  14.713  2.8605  2.4522 -1.1572
 1111TIP3   OH224823   2.724   1.126   4.251  0.5137 -0.0326  0.2840
 1111TIP3    H124824   2.682   1.212   4.260 -0.3068 -0.4546  0.6470
 1111TIP3    H224825   2.664   1.076   4.196  1.2861 -0.1898 -0.4209
 1112TIP3   OH224826   5.037   3.349   1.291  0.0974 -0.2090 -0.3616
 1112TIP3    H124827   5.122   3.393   1.284 -0.0856  0.0977 -0.7589
 1112TIP3    H224828   4.975   3.413   1.254 -0.6025  0.4478  1.8242
 1113TIP3   OH224829   3.755   4.288  15.000  0.0084  0.1161  0.5202
 1113TIP3    H124830   3.665   4.257  14.988  0.2420 -0.4031  0.0411
 1113TIP3    H224831   3.792   4.289  14.912  0.7464 -0.5698  0.8011
 1114TIP3   OH224832   5.075   4.892   2.627 -0.4540 -0.0978  0.0055
 1114TIP3    H124833   5.012   4.892   2.700  0.6747 -2.2534  1.0600
 1114TIP3    H224834   5.025   4.858   2.553 -0.8347 -0.7761  0.5578
 1115TIP3   OH224835   1.867   0.630   4.727 -0.6996  0.2024 -0.2143
 1115TIP3    H124836   1.810   0.565   4.770 -1.8994  1.2768 -0.1242
 1115TIP3    H224837   1.859   0.708   4.782  1.8400  0.0655  0.4904
 1116TIP3   OH224838   3.015   6.108   0.295  0.0432  0.3761 -0.0650
 1116TIP3    H124839   2.922   6.085   0.293 -0.3174  1.6569  0.7380
 1116TIP3    H224840   3.038   6.125   0.204 -0.7817  1.0586 -0.1501
 1117TIP3   OH224841   6.541   5.109  11.942  0.8347 -0.1542 -0.1090
 1117TIP3    H124842   6.630   5.142  11.949  0.2749  1.3761  0.2207
 1117TIP3    H224843   6.531   5.086  11.849  0.8621  1.9113 -0.6747
 1118TIP3   OH224844   2.253   4.185  12.371  0.8177  0.2570 -1.0035
 1118TIP3    H124845   2.169   4.139  12.367  1.0990 -0.3927  0.0671
 1118TIP3    H224846   2.312   4.133  12.316  1.4281 -1.3850  1.0792
 1119TIP3   OH224847   6.261   1.570  13.551 -0.4359  0.0836  0.9391
 1119TIP3    H124848   6.185   1.628  13.548  0.2383  0.9530  0.1289
 1119TIP3    H224849   6.274   1.542  13.461  1.3965  1.5839  0.6652
 1120TIP3   OH224850   3.134   5.121  14.019  0.3060 -0.6505  0.0257
 1120TIP3    H124851   3.166   5.043  13.974  0.7083 -1.5005  1.7059
 1120TIP3    H224852   3.040   5.123  14.001  0.4811 -0.8939 -0.9263
 1121TIP3   OH224853   4.137   6.791  16.759 -0.2666 -0.1875 -0.1035
 1121TIP3    H124854   4.200   6.747  16.702  0.3124  0.2804  0.1611
 1121TIP3    H224855   4.177   6.876  16.777 -0.0443 -0.6165  1.6545
 1122TIP3   OH224856   5.983   3.157   0.019 -0.6503 -0.1276 -0.1558
 1122TIP3    H124857   6.028   3.083   0.060 -0.7132 -0.4024 -0.5772
 1122TIP3    H224858   5.997   3.144  -0.075  0.3961  1.0593 -0.1952
 1123TIP3   OH224859   5.973   6.428  10.351  0.1570 -0.2153 -0.0487
 1123TIP3    H124860   5.890   6.476  10.352 -0.1107 -0.6627 -0.1321
 1123TIP3    H224861   6.041   6.495  10.349 -0.1820  0.1736  0.9718
 1124TIP3   OH224862   5.475   2.665  14.027  0.0711 -0.3545  0.6761
 1124TIP3    H124863   5.439   2.643  14.113  0.8360  0.9975  1.3740
 1124TIP3    H224864   5.522   2.747  14.041  0.6719 -0.3936 -0.9228
 1125TIP3   OH224865   5.138   3.012  14.177  0.1681  0.2279 -0.2504
 1125TIP3    H124866   5.203   2.975  14.236  0.9445  1.3210 -0.3981
 1125TIP3    H224867   5.061   3.026  14.231  0.1421 -0.8183 -0.0076
 1126TIP3   OH224868   6.336   5.995  15.695 -0.1449  0.5681  0.4051
 1126TIP3    H124869   6.392   5.944  15.753 -0.2570  0.0850  0.0959
 1126TIP3    H224870   6.265   6.025  15.751 -0.6886 -0.5780  0.3525
 1127TIP3   OH224871   5.302   6.676   0.585  0.1452  0.2216  0.4822
 1127TIP3    H124872   5.321   6.770   0.581  0.2026  0.3064  2.0043
 1127TIP3    H224873   5.358   6.643   0.655 -2.6104 -0.1755  2.7108
 1128TIP3   OH224874   2.623   0.448   2.160 -0.2441  0.0893  0.1906
 1128TIP3    H124875   2.600   0.510   2.091  0.2876 -0.0144 -0.0831
 1128TIP3    H224876   2.561   0.376   2.149  0.6252 -0.5181 -0.9902
 1129TIP3   OH224877   4.250   3.094  12.318  0.2201 -0.7418  0.6709
 1129TIP3    H124878   4.236   3.003  12.291 -1.3809 -0.7365  1.4249
 1129TIP3    H224879   4.317   3.126  12.257 -2.4373 -1.0553 -2.7081
 1130TIP3   OH224880   3.143   4.940   5.287 -0.3459 -0.3770  0.1936
 1130TIP3    H124881   3.120   5.028   5.319  1.2595 -0.5166  1.8976
 1130TIP3    H224882   3.060   4.904   5.256 -1.3572  1.1092  1.0215
 1131TIP3   OH224883   2.859   2.641  12.443 -0.1474 -0.1897  0.2887
 1131TIP3    H124884   2.816   2.609  12.522 -1.3449 -1.0539 -0.6636
 1131TIP3    H224885   2.861   2.736  12.453 -0.1243 -0.2976  1.4184
 1132TIP3   OH224886   4.635   1.457  14.033 -0.6771  0.5519 -0.5151
 1132TIP3    H124887   4.603   1.402  14.105 -0.3614  1.6321  0.4809
 1132TIP3    H224888   4.685   1.396  13.978 -0.1972 -0.1493  0.6421
 1133TIP3   OH224889   1.996   0.495   3.709 -0.3340  0.0944  0.0837
 1133TIP3    H124890   1.927   0.560   3.719 -0.1479  0.3104 -0.0276
 1133TIP3    H224891   2.002   0.479   3.614 -1.3975 -1.1926  0.2047
 1134TIP3   OH224892   1.779   0.895   2.253  0.2530 -0.1778 -0.0556
 1134TIP3    H124893   1.716   0.939   2.196  0.0474 -0.0671  0.2583
 1134TIP3    H224894   1.762   0.931   2.340 -0.9683 -2.0313  0.5102
 1135TIP3   OH224895   3.438   2.944   0.615 -0.3507 -0.3055 -0.6373
 1135TIP3    H124896   3.450   2.903   0.529 -0.5660 -2.3079  0.2168
 1135TIP3    H224897   3.524   2.980   0.636  0.0480 -0.9098 -1.1655
 1136TIP3   OH224898   2.176   5.690  13.742 -0.1188 -0.1108  0.6221
 1136TIP3    H124899   2.108   5.640  13.787 -0.2356 -0.8847 -0.3835
 1136TIP3    H224900   2.131   5.728  13.667  0.5933 -0.7929 -0.1626
 1137TIP3   OH224901   2.628   6.813   2.639 -0.2297  0.3258  0.1237
 1137TIP3    H124902   2.709   6.816   2.689  0.1642 -0.9620 -0.4009
 1137TIP3    H224903   2.603   6.721   2.638 -0.7007  0.4352 -1.2814
 1138TIP3   OH224904   5.412   4.811   5.362  0.0302 -0.2512  0.0155
 1138TIP3    H124905   5.420   4.876   5.431  0.4290  0.6135 -0.8225
 1138TIP3    H224906   5.460   4.735   5.395 -1.5968 -0.6509  1.5834
 1139TIP3   OH224907   5.787   6.812  14.073 -0.1011 -0.6381 -0.1384
 1139TIP3    H124908   5.880   6.791  14.062  0.5920  1.6221  0.8200
 1139TIP3    H224909   5.756   6.754  14.142  0.5275 -1.5746 -0.6336
 1140TIP3   OH224910   5.860   3.812   4.063  0.0099 -0.1215  0.1862
 1140TIP3    H124911   5.829   3.728   4.096  1.0316 -0.5226  0.1884
 1140TIP3    H224912   5.822   3.820   3.976  1.2945 -1.4513 -0.5501
 1141TIP3   OH224913   0.934   0.100   1.935 -0.0083  0.1997 -0.2803
 1141TIP3    H124914   1.027   0.115   1.914  0.1422  1.0017  0.8347
 1141TIP3    H224915   0.891   0.182   1.910 -0.2392  0.1964  0.1005
 1142TIP3   OH224916   2.894   1.518  15.949 -0.0802  0.6325  0.4274
 1142TIP3    H124917   2.956   1.551  16.014  0.7281  0.2377 -0.1348
 1142TIP3    H224918   2.844   1.451  15.996  0.8691 -0.0392  0.5087
 1143TIP3   OH224919   4.143   1.890   2.134 -0.5355 -0.5817  0.0854
 1143TIP3    H124920   4.096   1.972   2.125  0.9325  0.3761  0.7601
 1143TIP3    H224921   4.083   1.824   2.101 -1.7161  0.7667 -0.5544
 1144TIP3   OH224922   0.283   4.901  11.690 -0.5702 -0.2808 -0.4537
 1144TIP3    H124923   0.255   4.960  11.620 -2.3592  0.9084  1.1507
 1144TIP3    H224924   0.259   4.947  11.770  4.1448 -0.1220  1.1523
 1145TIP3   OH224925   4.329   1.185   2.274  0.5384 -0.4699  0.2357
 1145TIP3    H124926   4.311   1.138   2.355  0.7030  0.0425  0.5724
 1145TIP3    H224927   4.415   1.224   2.287 -0.9508  2.8361  1.3975
 1146TIP3   OH224928   0.470   1.353   6.018  0.1768 -0.0545  0.1696
 1146TIP3    H124929   0.475   1.390   5.930 -0.2312  1.8655  0.9011
 1146TIP3    H224930   0.380   1.321   6.026 -0.6040  2.0941  0.6981
 1147TIP3   OH224931   3.082   4.260   3.179 -0.5648  0.4081  0.1351
 1147TIP3    H124932   3.004   4.272   3.126 -0.2336 -0.1405 -0.4981
 1147TIP3    H224933   3.122   4.347   3.183 -0.5832  0.4572 -0.5525
 1148TIP3   OH224934   3.112   4.009  15.690 -0.1699 -0.3244 -0.4859
 1148TIP3    H124935   3.138   4.040  15.604 -3.2918 -0.9799 -1.8152
 1148TIP3    H224936   3.082   4.088  15.736 -0.3994 -0.2364 -0.7842
 1149TIP3   OH224937   2.996   5.126  16.000 -0.1956 -0.1338 -0.4749
 1149TIP3    H124938   2.954   5.054  16.047  0.4754 -0.6214 -0.5998
 1149TIP3    H224939   3.082   5.091  15.976  0.1869  0.7616 -0.4231
 1150TIP3   OH224940   4.754   6.537   1.373 -0.3925  0.0773 -0.4608
 1150TIP3    H124941   4.771   6.621   1.331 -1.3237  0.4882 -0.0419
 1150TIP3    H224942   4.796   6.543   1.458  1.6838 -0.8381 -1.3656
 1151TIP3   OH224943   1.216   1.716  16.496 -0.4866  0.1597  1.0541
 1151TIP3    H124944   1.277   1.652  16.459 -0.6944  1.7145 -2.3546
 1151TIP3    H224945   1.134   1.700  16.450 -0.8508  2.0827  0.9442
 1152TIP3   OH224946   3.483   1.584   1.568  0.0296 -0.1805  0.4894
 1152TIP3    H124947   3.452   1.673   1.586  0.8334  0.3974 -0.8641
 1152TIP3    H224948   3.536   1.562   1.645 -0.1781  0.4984  0.8396
 1153TIP3   OH224949   2.568   3.533   5.260 -0.3636  0.1871  0.2065
 1153TIP3    H124950   2.501   3.475   5.295 -0.8186  0.4505 -0.2192
 1153TIP3    H224951   2.614   3.565   5.338  0.6343 -1.5866  0.4153
 1154TIP3   OH224952   2.288   4.140  16.494  0.0358 -0.5134 -0.5737
 1154TIP3    H124953   2.243   4.092  16.424  0.9074  0.1508 -1.6193
 1154TIP3    H224954   2.265   4.232  16.479 -1.1500 -0.4915  1.0695
 1155TIP3   OH224955   3.272   4.947  14.501  0.1320 -0.0817 -0.2633
 1155TIP3    H124956   3.341   4.928  14.438  0.5777 -0.6370  0.3769
 1155TIP3    H224957   3.207   4.879  14.487 -0.4656  0.6390 -1.0993
 1156TIP3   OH224958   0.207   5.427   1.367 -0.2280 -0.5503 -0.2926
 1156TIP3    H124959   0.219   5.376   1.286  0.1118 -1.0276  0.0544
 1156TIP3    H224960   0.228   5.517   1.342 -1.4325 -0.4513 -1.0678
 1157TIP3   OH224961   0.387   3.901   4.462 -0.1254 -0.0635 -0.1138
 1157TIP3    H124962   0.334   3.972   4.498 -0.7087 -0.2579 -0.5763
 1157TIP3    H224963   0.386   3.833   4.529 -0.1374  0.0868  0.0391
 1158TIP3   OH224964   3.566   3.808  11.698 -0.1228  0.4622 -0.2031
 1158TIP3    H124965   3.528   3.895  11.691 -0.6101  0.2018 -0.8522
 1158TIP3    H224966   3.580   3.780  11.608  1.2456  0.3886  0.0126
 1159TIP3   OH224967   5.047   4.970   4.720  0.1228 -0.5033  0.1518
 1159TIP3    H124968   5.064   5.050   4.670  0.9492  1.2963  3.0479
 1159TIP3    H224969   4.963   4.986   4.762 -0.4872 -1.9093 -0.4763
 1160TIP3   OH224970   6.105   3.540   0.919 -0.7232 -0.2799  0.1723
 1160TIP3    H124971   6.122   3.624   0.876 -0.8002 -0.5574 -0.4231
 1160TIP3    H224972   6.162   3.540   0.995  0.5030 -0.3615 -0.7139
 1161TIP3   OH224973   4.756   6.250   1.485  0.1826  0.0976  0.2562
 1161TIP3    H124974   4.744   6.175   1.427 -0.9402 -0.4749  1.1907
 1161TIP3    H224975   4.786   6.320   1.427 -0.5948 -0.5383 -0.9594
 1162TIP3   OH224976   3.367   3.217  10.864 -0.1198  0.6545 -0.0647
 1162TIP3    H124977   3.370   3.121  10.864 -2.2347  0.5367  0.5289
 1162TIP3    H224978   3.459   3.244  10.859  0.5915 -1.3928  0.8372
 1163TIP3   OH224979   6.309   5.360  17.198 -0.1654  0.1317  0.2506
 1163TIP3    H124980   6.388   5.364  17.144 -0.2404  0.7441  0.1788
 1163TIP3    H224981   6.263   5.282  17.167  0.7455 -0.6408  0.7694
 1164TIP3   OH224982   0.478   5.913   0.432  0.2832 -0.3606  0.1693
 1164TIP3    H124983   0.523   5.995   0.412  2.1317 -1.5286 -0.7331
 1164TIP3    H224984   0.393   5.922   0.389  1.0964  0.4339 -1.3907
 1165TIP3   OH224985   2.327   4.901  13.980 -0.1471 -0.9460 -0.3076
 1165TIP3    H124986   2.344   4.976  13.923 -0.0702 -0.1959  0.6683
 1165TIP3    H224987   2.324   4.939  14.068 -0.7820 -1.9969  0.1350
 1166TIP3   OH224988   2.446   4.075  14.356  0.0164  0.7277 -0.2882
 1166TIP3    H124989   2.354   4.101  14.355 -0.5521 -1.0729  0.9550
 1166TIP3    H224990   2.461   4.041  14.444  0.5214 -3.3577 -1.7413
 1167TIP3   OH224991   2.908   4.081  13.982 -0.4565  0.4328  0.2108
 1167TIP3    H124992   2.822   4.101  13.943 -0.5267  1.4888  0.8667
 1167TIP3    H224993   2.888   4.057  14.072 -0.0069  1.6055  0.6456
 1168TIP3   OH224994   4.085   3.786   2.517  0.7041  0.5345  0.0910
 1168TIP3    H124995   4.157   3.747   2.468 -1.5429 -0.6742 -2.4924
 1168TIP3    H224996   4.070   3.870   2.473  1.2421  1.3179  1.3642
 1169TIP3   OH224997   2.586   1.544  11.608 -0.0187  0.1868 -0.1274
 1169TIP3    H124998   2.530   1.466  11.604 -0.0192  0.2155 -0.7710
 1169TIP3    H224999   2.642   1.529  11.684  2.0973 -1.8868 -1.9271
 1170TIP3   OH225000   2.834   1.414   3.754  0.2038  0.1758 -0.0691
 1170TIP3    H125001   2.774   1.437   3.825  0.2389  0.4371 -0.1233
 1170TIP3    H225002   2.778   1.401   3.678  0.2541  0.8673 -0.2294
 1171TIP3   OH225003   1.085   5.157   2.037  0.3089  0.1073  0.0871
 1171TIP3    H125004   1.162   5.208   2.013  1.6841 -1.2989  1.2988
 1171TIP3    H225005   1.017   5.185   1.975  2.1597  0.4044 -1.9418
 1172TIP3   OH225006   5.043   6.536  11.919  0.0360  0.0928  0.4890
 1172TIP3    H125007   5.074   6.450  11.948 -2.2905 -0.8317  0.4702
 1172TIP3    H225008   4.976   6.560  11.983 -1.0515  0.7392 -0.8440
 1173TIP3   OH225009   1.073   2.730  11.224 -0.4764  0.4688  0.6917
 1173TIP3    H125010   1.107   2.806  11.178  0.5368 -0.9302 -0.9784
 1173TIP3    H225011   0.978   2.742  11.222 -0.3539  1.4456  0.0576
 1174TIP3   OH225012   4.716   3.077  11.472 -0.2660 -0.1525 -0.1231
 1174TIP3    H125013   4.750   3.150  11.419 -2.0317  0.3625 -0.6249
 1174TIP3    H225014   4.741   3.099  11.561 -1.5343  1.5874 -0.1444
 1175TIP3   OH225015   6.355   5.133  13.232  0.1939  0.5396 -0.0477
 1175TIP3    H125016   6.395   5.083  13.161 -1.4558 -1.6755  0.4649
 1175TIP3    H225017   6.397   5.099  13.311 -1.2100 -0.3983  0.3370
 1176TIP3   OH225018   4.328   1.277   3.083 -0.0537 -0.6456  0.5651
 1176TIP3    H125019   4.315   1.370   3.066  4.2238 -0.0381 -0.7676
 1176TIP3    H225020   4.287   1.262   3.168  0.8031  3.0403  1.8424
 1177TIP3   OH225021   6.283   4.897  15.377 -0.3685 -0.0431  0.1157
 1177TIP3    H125022   6.245   4.971  15.425 -0.8632 -0.9622  1.1763
 1177TIP3    H225023   6.273   4.822  15.436  0.7564 -0.8283 -0.6513
 1178TIP3   OH225024   5.617   5.831  13.478 -0.6982  0.0299  0.1571
 1178TIP3    H125025   5.631   5.772  13.552  1.1316 -0.4881 -0.5347
 1178TIP3    H225026   5.629   5.776  13.401  0.4557  1.1441 -0.5042
 1179TIP3   OH225027   0.546   3.599  16.465 -0.0691 -0.4331  0.0903
 1179TIP3    H125028   0.473   3.543  16.491 -0.4089  0.0198  0.1064
 1179TIP3    H225029   0.551   3.666  16.532 -0.1850  0.0385 -0.3680
 1180TIP3   OH225030   5.923   0.214  14.593 -0.5928  0.3639 -0.3582
 1180TIP3    H125031   5.836   0.221  14.633  1.0014  1.0358  3.3372
 1180TIP3    H225032   5.938   0.120  14.585 -1.0741  0.2060  0.4527
 1181TIP3   OH225033   0.077   1.963   0.738 -0.2555 -0.2865  0.4604
 1181TIP3    H125034   0.085   1.994   0.648  0.5905 -1.4808  0.1027
 1181TIP3    H225035   0.002   2.012   0.773 -1.7729 -1.1159 -1.4559
 1182TIP3   OH225036   1.151   3.341   1.647 -0.3923  0.0267  1.2633
 1182TIP3    H125037   1.205   3.417   1.666 -0.1207 -0.0506  0.8211
 1182TIP3    H225038   1.173   3.278   1.715 -0.9158  0.4809  1.8755
 1183TIP3   OH225039   0.258   0.965  14.986 -0.0895  0.0017 -0.8932
 1183TIP3    H125040   0.241   0.876  14.957  3.2525 -1.7598  1.7651
 1183TIP3    H225041   0.254   0.961  15.081  1.6792  2.2509 -0.6151
 1184TIP3   OH225042   5.312   0.688   5.056  0.2074 -0.0313  0.1496
 1184TIP3    H125043   5.379   0.695   4.988  0.2676 -1.2530  0.0640
 1184TIP3    H225044   5.234   0.728   5.016 -0.2837 -2.3010 -1.4090
 1185TIP3   OH225045   4.946   0.559  11.227 -0.1573  0.4791 -0.2284
 1185TIP3    H125046   4.859   0.592  11.206 -0.4344  0.4022  0.7244
 1185TIP3    H225047   4.975   0.514  11.148 -0.6836  1.1162 -0.7978
 1186TIP3   OH225048   1.499   2.659   1.444 -0.7152  0.0182  0.1937
 1186TIP3    H125049   1.434   2.611   1.392 -1.9198  2.6941 -0.9464
 1186TIP3    H225050   1.450   2.688   1.521  0.2017 -1.1291  1.2449
 1187TIP3   OH225051   3.663   4.781   5.941 -0.1144  0.1628  0.3223
 1187TIP3    H125052   3.604   4.831   5.997 -1.0764 -0.4795 -0.0950
 1187TIP3    H225053   3.694   4.709   5.996 -1.2326 -0.5959 -0.0171
 1188TIP3   OH225054   5.555   4.269  15.375 -0.1688 -0.4427 -0.3128
 1188TIP3    H125055   5.576   4.228  15.459  0.1627 -1.8707 -1.0584
 1188TIP3    H225056   5.570   4.362  15.389 -1.1167 -0.5294  1.4969
 1189TIP3   OH225057   1.945   5.906   5.095 -0.6342 -0.0576 -0.8236
 1189TIP3    H125058   1.971   5.888   5.186  0.8869  0.2140 -1.1838
 1189TIP3    H225059   1.863   5.858   5.084 -0.0359 -1.3961  0.2303
 1190TIP3   OH225060   3.826   0.488  12.388  1.0896  0.3070  0.5078
 1190TIP3    H125061   3.858   0.576  12.368  0.2174  0.7825  1.1311
 1190TIP3    H225062   3.758   0.471  12.324 -0.3288  1.0332  1.7585
 1191TIP3   OH225063   1.469   1.295   1.779  0.0715 -0.5810  0.4273
 1191TIP3    H125064   1.375   1.310   1.775 -0.3610 -3.0803 -1.6167
 1191TIP3    H225065   1.488   1.290   1.873 -1.2460  2.5978  0.9781
 1192TIP3   OH225066   3.470   6.342  16.222  0.0488 -0.1484 -0.5841
 1192TIP3    H125067   3.497   6.392  16.299 -0.2840 -1.6505  0.5676
 1192TIP3    H225068   3.440   6.258  16.258 -1.8411 -0.2233 -2.1957
 1193TIP3   OH225069   0.010   3.115  14.260 -0.1556  0.4028 -0.3568
 1193TIP3    H125070  -0.070   3.080  14.299 -0.0817  0.2851 -0.3111
 1193TIP3    H225071  -0.021   3.165  14.184 -0.3189  0.8277 -0.0129
 1194TIP3   OH225072   2.941   6.049   1.369 -0.1014 -0.1012  0.1834
 1194TIP3    H125073   3.020   6.086   1.329 -0.0417 -0.2826  0.1312
 1194TIP3    H225074   2.878   6.043   1.297 -0.1581  0.0349  0.2231
 1195TIP3   OH225075   2.082   2.962   0.368  0.1236  0.0810 -0.6281
 1195TIP3    H125076   1.988   2.974   0.385 -0.0236  1.1612 -2.0355
 1195TIP3    H225077   2.117   3.051   0.362  1.6479 -0.2697  1.7768
 1196TIP3   OH225078   5.107   4.414   4.799  0.4836  0.2929 -0.4791
 1196TIP3    H125079   5.149   4.472   4.861  2.4438  1.9628 -3.1432
 1196TIP3    H225080   5.024   4.457   4.777  0.7751  0.8106 -0.5764
 1197TIP3   OH225081   5.786   3.504   6.493 -0.1854 -0.3533  0.0019
 1197TIP3    H125082   5.762   3.413   6.511 -1.0773  0.2282  1.9746
 1197TIP3    H225083   5.719   3.536   6.432 -0.0010 -0.9369 -0.5127
 1198TIP3   OH225084   1.233   1.249  16.475  0.0023 -0.2596  0.6113
 1198TIP3    H125085   1.284   1.197  16.413  3.4087  2.3130  0.9325
 1198TIP3    H225086   1.186   1.312  16.420 -0.0025 -0.3675  0.4924
 1199TIP3   OH225087   6.559   5.919   2.865 -0.1757  0.0599 -0.1308
 1199TIP3    H125088   6.481   5.968   2.839 -0.0683  0.6142  0.5561
 1199TIP3    H225089   6.631   5.981   2.854  0.3540 -0.8189 -1.9178
 1200TIP3   OH225090   6.658   5.736  13.880 -0.3517 -0.1493  0.5261
 1200TIP3    H125091   6.568   5.756  13.855  0.2986  0.3898 -1.6565
 1200TIP3    H225092   6.704   5.820  13.876  0.5910 -0.6659 -0.1070
 1201TIP3   OH225093   0.896   0.941   0.857 -0.2125 -0.0873  0.3683
 1201TIP3    H125094   0.804   0.963   0.874 -0.2476  0.4829 -0.4888
 1201TIP3    H225095   0.928   0.905   0.940 -1.9537 -2.9729 -0.0807
 1202TIP3   OH225096   1.569   2.461  16.344 -0.5262 -0.0796  0.7474
 1202TIP3    H125097   1.656   2.474  16.305 -0.1153  0.0188  1.6749
 1202TIP3    H225098   1.587   2.431  16.433 -1.4500 -0.8303  0.7014
 1203TIP3   OH225099   0.212   6.385  12.215  0.8073  0.4683 -0.4107
 1203TIP3    H125100   0.299   6.350  12.194  0.8334  1.0646 -1.3950
 1203TIP3    H225101   0.213   6.397  12.310  0.6912 -2.3867  0.0240
 1204TIP3   OH225102   4.887   1.434   5.944  0.0378 -0.3084  0.7838
 1204TIP3    H125103   4.942   1.358   5.963  0.7089 -0.3673 -1.1589
 1204TIP3    H225104   4.903   1.453   5.852 -1.2376  1.3037  0.8400
 1205TIP3   OH225105   6.091   6.353  14.474 -0.0431  0.0694 -0.5010
 1205TIP3    H125106   6.000   6.347  14.445 -0.2401  1.1554 -0.1518
 1205TIP3    H225107   6.128   6.424  14.421  0.3635  0.2124 -0.0256
 1206TIP3   OH225108   0.140   3.159  16.438  0.3161 -0.5274  0.0035
 1206TIP3    H125109   0.215   3.159  16.497  0.3601  2.8532  0.1231
 1206TIP3    H225110   0.160   3.226  16.373 -2.1606 -0.1806 -0.5225
 1207TIP3   OH225111   0.506   2.290  10.288 -0.1051  0.1643  0.0516
 1207TIP3    H125112   0.447   2.301  10.213 -1.0946 -1.4282  0.5685
 1207TIP3    H225113   0.570   2.225  10.258  1.5853  1.9876 -0.5659
 1208TIP3   OH225114   0.516   3.759  15.447 -0.3405  0.2106  0.2094
 1208TIP3    H125115   0.457   3.828  15.478  0.2444 -0.3833  2.9933
 1208TIP3    H225116   0.598   3.775  15.494 -0.1991 -2.3421  1.0066
 1209TIP3   OH225117   3.569   4.643  16.867 -0.1124 -0.5386  0.4500
 1209TIP3    H125118   3.525   4.575  16.815  0.2278 -0.5504  0.1768
 1209TIP3    H225119   3.534   4.631  16.955 -0.7510 -0.4725  0.2165
 1210TIP3   OH225120   6.050   4.016  14.052  0.6323 -0.3278  0.3774
 1210TIP3    H125121   6.016   4.019  14.141  0.9450 -1.0835  0.5319
 1210TIP3    H225122   6.145   4.023  14.062  0.5486  2.3490 -0.0887
 1211TIP3   OH225123   3.448   1.093  16.770  0.3736  0.1365 -0.5144
 1211TIP3    H125124   3.356   1.115  16.758  0.8982  2.6455 -0.5457
 1211TIP3    H225125   3.447   1.006  16.811 -2.0480  0.6610  0.7324
 1212TIP3   OH225126   6.621   6.251  15.919  0.4838 -0.7303 -0.0267
 1212TIP3    H125127   6.637   6.346  15.911 -1.0774 -0.5298 -1.1357
 1212TIP3    H225128   6.533   6.245  15.954 -0.0493 -1.7645 -1.4724
 1213TIP3   OH225129   2.939   2.270   2.990 -0.2459 -0.5860  0.2875
 1213TIP3    H125130   3.025   2.284   2.951 -0.9463  0.1796 -1.0358
 1213TIP3    H225131   2.947   2.186   3.036  1.7363  0.3553  1.7783
 1214TIP3   OH225132   4.826   5.578  13.016 -0.2812 -0.0293 -0.3557
 1214TIP3    H125133   4.880   5.524  13.075  0.6284 -1.3956 -2.3085
 1214TIP3    H225134   4.740   5.537  13.019 -0.9590  1.4082  1.8341
 1215TIP3   OH225135   4.655   3.169  15.171  0.1019 -0.5361  0.0730
 1215TIP3    H125136   4.679   3.204  15.257 -1.2287  0.9851 -0.1314
 1215TIP3    H225137   4.661   3.074  15.182 -0.1101 -0.3872  1.8888
 1216TIP3   OH225138   3.222   0.011  17.187  0.3392  0.4767 -0.5230
 1216TIP3    H125139   3.156   0.017  17.256  0.4652  2.2323 -0.5242
 1216TIP3    H225140   3.178   0.042  17.108  0.7157  0.1832 -0.8545
 1217TIP3   OH225141   0.651   5.392  12.776 -0.4673  0.2073 -0.4435
 1217TIP3    H125142   0.693   5.467  12.818 -0.5078  0.5750 -1.0500
 1217TIP3    H225143   0.699   5.316  12.810 -1.8196  0.2929  1.8725
 1218TIP3   OH225144   3.283   4.669  14.566 -0.0119 -0.5977 -0.2075
 1218TIP3    H125145   3.231   4.702  14.639 -0.2861 -0.1077 -0.6184
 1218TIP3    H225146   3.369   4.708  14.578 -0.4005  0.5007 -0.8267
 1219TIP3   OH225147   4.851   5.576  10.653  0.1220 -0.5288 -0.1203
 1219TIP3    H125148   4.933   5.625  10.644  0.0620 -0.3591  0.2262
 1219TIP3    H225149   4.786   5.627  10.604 -0.1155  0.1708  0.8932
 1220TIP3   OH225150   4.831   2.152   5.088  0.3254  0.3749  0.1378
 1220TIP3    H125151   4.770   2.204   5.140  0.8683  0.4709  0.6990
 1220TIP3    H225152   4.878   2.217   5.036 -0.9693  0.1962 -1.3301
 1221TIP3   OH225153   0.252   6.661   0.486 -0.4457  0.2852  0.2627
 1221TIP3    H125154   0.295   6.580   0.512  0.2326  0.7147  0.5033
 1221TIP3    H225155   0.321   6.727   0.488 -0.8248  0.7262 -0.6618
 1222TIP3   OH225156   5.759   3.289   5.811  0.1165 -1.0842  0.8259
 1222TIP3    H125157   5.811   3.216   5.777  0.9049 -0.3140  0.3479
 1222TIP3    H225158   5.759   3.276   5.906  2.2322 -0.4443  0.9655
 1223TIP3   OH225159   0.780   0.019  12.983  0.1538  1.2603  0.2508
 1223TIP3    H125160   0.864   0.048  12.945  0.3144 -0.8080 -1.1549
 1223TIP3    H225161   0.803  -0.016  13.069  0.9390 -0.0161 -0.4342
 1224TIP3   OH225162   3.276   1.999  11.390 -0.1416  0.3957 -0.6119
 1224TIP3    H125163   3.196   1.958  11.357 -0.4772  1.6592 -1.4473
 1224TIP3    H225164   3.254   2.026  11.479 -0.5927  0.5705 -0.7712
 1225TIP3   OH225165   3.714   1.110   4.214 -0.1003 -0.6814 -0.1049
 1225TIP3    H125166   3.722   1.204   4.232  0.4980 -0.4441 -1.5129
 1225TIP3    H225167   3.747   1.068   4.294 -1.5046  0.2651  1.0320
 1226TIP3   OH225168   1.047   2.571   4.054 -0.0369  0.4281  0.1045
 1226TIP3    H125169   0.965   2.616   4.075 -0.2558 -0.3134  0.8900
 1226TIP3    H225170   1.026   2.518   3.976 -1.0079 -1.5510  1.6240
 1227TIP3   OH225171   2.096   1.764   0.037 -0.3195  0.3762 -0.3995
 1227TIP3    H125172   2.057   1.681   0.064 -0.6266  0.3848 -0.8127
 1227TIP3    H225173   2.064   1.778  -0.052 -0.0045  0.7749 -0.4531
 1228TIP3   OH225174   6.784   6.803   2.551  0.6707  0.3525  0.0023
 1228TIP3    H125175   6.731   6.867   2.599  0.1218  0.1387 -0.3039
 1228TIP3    H225176   6.720   6.755   2.499  0.9801 -0.8936  0.7290
 1229TIP3   OH225177   6.613   4.722  15.438 -0.6142  0.2020  0.2549
 1229TIP3    H125178   6.546   4.776  15.480  0.8251  1.2826  1.2657
 1229TIP3    H225179   6.569   4.683  15.363 -1.7787  2.6937 -0.4560
 1230TIP3   OH225180   3.829   1.711  12.540  0.3085 -0.2129  0.2373
 1230TIP3    H125181   3.924   1.713  12.551  0.4228  2.3878 -0.4552
 1230TIP3    H225182   3.807   1.800  12.511 -2.0461 -1.4224 -2.0763
 1231TIP3   OH225183   1.815   2.531  16.247  0.3574 -0.0436  0.1823
 1231TIP3    H125184   1.814   2.619  16.286  0.6076  0.1793 -0.2974
 1231TIP3    H225185   1.877   2.482  16.300 -1.7254 -0.7412  2.1301
 1232TIP3   OH225186   0.070   2.052   3.536  0.2795 -0.2413  0.3633
 1232TIP3    H125187   0.131   2.010   3.596  0.6640 -0.7737 -0.3756
 1232TIP3    H225188   0.125   2.106   3.480 -0.1447  0.7509  0.8920
 1233TIP3   OH225189   6.002   3.204   4.335 -0.1396 -0.5541  0.3473
 1233TIP3    H125190   6.028   3.131   4.390  2.3608 -0.0624 -0.0197
 1233TIP3    H225191   5.944   3.166   4.269 -0.2563 -1.8357  1.1647
 1234TIP3   OH225192   5.730   4.786  12.517 -0.5969  0.2915  0.1252
 1234TIP3    H125193   5.718   4.753  12.606  0.0620 -0.1431  0.0584
 1234TIP3    H225194   5.824   4.800  12.509 -0.4789 -0.9227 -0.9314
 1235TIP3   OH225195   0.937   6.688  17.159 -0.9216  0.2710 -0.5911
 1235TIP3    H125196   0.927   6.726  17.246 -1.3626 -0.4371 -0.3207
 1235TIP3    H225197   0.921   6.761  17.099 -2.0188  0.4657 -0.0896
 1236TIP3   OH225198   4.764   5.156  12.961 -0.1744 -0.0518  0.0082
 1236TIP3    H125199   4.800   5.094  13.024 -1.4434 -0.1012  0.7139
 1236TIP3    H225200   4.807   5.133  12.878 -0.6286 -1.9067  0.2425
 1237TIP3   OH225201   4.928   6.786  13.937  0.0146  0.1572 -0.4133
 1237TIP3    H125202   4.987   6.818  14.005  0.1401  1.1997 -0.9917
 1237TIP3    H225203   4.983   6.731  13.881  0.6852  1.7342 -1.3953
 1238TIP3   OH225204   2.756   1.326   1.935 -0.3708 -0.0149  0.3263
 1238TIP3    H125205   2.757   1.383   1.858  0.5788 -1.1898 -0.5753
 1238TIP3    H225206   2.828   1.265   1.921 -0.1884 -0.3002  2.1442
 1239TIP3   OH225207   6.724   0.918   0.015 -0.4823  0.0503  0.4057
 1239TIP3    H125208   6.644   0.961   0.046  0.9737  2.3096  1.2719
 1239TIP3    H225209   6.744   0.961  -0.068 -0.8557 -1.4842 -0.5228
 1240TIP3   OH225210   2.526   1.091   0.550 -0.5145  0.3043  0.0014
 1240TIP3    H125211   2.525   1.052   0.463 -0.1295  1.0375 -0.3378
 1240TIP3    H225212   2.617   1.113   0.566 -0.8018  1.6746 -0.0978
 1241TIP3   OH225213   3.856   1.858  17.061 -0.1146  0.2824  0.1745
 1241TIP3    H125214   3.851   1.952  17.043  0.2705  1.0839  3.4731
 1241TIP3    H225215   3.950   1.839  17.057 -0.0972  0.2964  0.4708
 1242TIP3   OH225216   4.834   0.476   0.337  0.2850  0.6084 -0.1025
 1242TIP3    H125217   4.920   0.439   0.358 -0.4733 -0.8198  0.6369
 1242TIP3    H225218   4.794   0.495   0.422 -1.3426 -1.7266 -0.2366
 1243TIP3   OH225219   6.128   2.635   1.952 -0.1444 -0.4231  0.6542
 1243TIP3    H125220   6.036   2.635   1.926  0.2393  0.8489 -0.8558
 1243TIP3    H225221   6.162   2.551   1.921 -0.7313 -0.8272  1.0749
 1244TIP3   OH225222   5.546   6.465   1.742  0.2402  0.0419  0.4924
 1244TIP3    H125223   5.625   6.517   1.757 -0.3277  1.0553 -0.0146
 1244TIP3    H225224   5.487   6.522   1.694  0.4246 -1.7603 -2.0886
 1245TIP3   OH225225   6.281   4.796  13.071 -0.6070 -0.4054  0.0901
 1245TIP3    H125226   6.323   4.833  12.993 -1.6225 -1.6410 -1.0891
 1245TIP3    H225227   6.259   4.706  13.047 -1.6729 -0.5754  1.5228
 1246TIP3   OH225228   1.933   3.681   1.709 -0.4753  0.1800  0.0534
 1246TIP3    H125229   1.951   3.775   1.716 -1.4201  0.2396  2.6487
 1246TIP3    H225230   2.003   3.639   1.760  0.2223 -0.6183 -1.4862
 1247TIP3   OH225231   6.593   2.452  11.006  0.0407  0.1696  0.4582
 1247TIP3    H125232   6.571   2.367  10.970  1.1086  0.1027 -0.0925
 1247TIP3    H225233   6.598   2.438  11.101 -1.1547 -0.0387  0.5049
 1248TIP3   OH225234   1.067   5.491  16.240 -0.0351 -0.5309 -0.1451
 1248TIP3    H125235   1.021   5.425  16.189 -1.1304  1.6228 -2.1326
 1248TIP3    H225236   1.048   5.574  16.196  1.2801  1.1557  2.1954
 1249TIP3   OH225237   3.968   3.518   4.534  0.6272 -0.0061 -0.1188
 1249TIP3    H125238   3.883   3.511   4.578 -0.9292  0.9113 -2.7281
 1249TIP3    H225239   3.977   3.612   4.515  1.9022 -0.1814 -0.4834
 1250TIP3   OH225240   6.042   2.336   2.450  0.4964  0.3256 -0.1823
 1250TIP3    H125241   6.082   2.394   2.515 -0.6356  0.3314  0.5415
 1250TIP3    H225242   5.952   2.369   2.441  0.3270 -0.3147 -0.9805
 1251TIP3   OH225243   2.853   4.202  12.665  0.3589 -0.6285 -0.2650
 1251TIP3    H125244   2.879   4.168  12.751  1.4876  0.3319 -0.2117
 1251TIP3    H225245   2.776   4.256  12.683  0.6448 -0.3554  0.1680
 1252TIP3   OH225246   4.726   1.313   1.355  0.0987 -0.7428 -0.2188
 1252TIP3    H125247   4.659   1.363   1.309 -0.4342 -0.0150  1.2838
 1252TIP3    H225248   4.741   1.237   1.299 -1.1852 -0.3747 -1.1251
 1253TIP3   OH225249   2.145   4.585  17.195 -0.1173 -0.2966 -0.1492
 1253TIP3    H125250   2.232   4.546  17.189 -0.1259 -0.2721 -0.4391
 1253TIP3    H225251   2.146   4.656  17.131 -0.6771 -0.9205 -0.8697
 1254TIP3   OH225252   5.240   2.306   3.943  0.4665  0.3483  0.0800
 1254TIP3    H125253   5.165   2.246   3.948 -0.0071  0.8980 -0.3217
 1254TIP3    H225254   5.314   2.250   3.921 -0.4793  0.2333 -3.4411
 1255TIP3   OH225255   0.075   3.234   5.686  0.2343  0.1918 -0.3980
 1255TIP3    H125256   0.079   3.139   5.670  0.9790 -0.2211  1.8761
 1255TIP3    H225257   0.164   3.265   5.669  0.8449 -0.1308  1.8396
 1256TIP3   OH225258   4.403   5.194   1.257 -0.5706  0.5918  1.2259
 1256TIP3    H125259   4.380   5.139   1.332 -4.8980  2.5752  1.6367
 1256TIP3    H225260   4.340   5.168   1.189  1.5385  0.6863 -0.9011
 1257TIP3   OH225261   5.991   5.628  11.202  0.7014  0.6591  0.7421
 1257TIP3    H125262   5.932   5.634  11.277  2.1020  0.8561  1.8534
 1257TIP3    H225263   6.077   5.609  11.239  1.4280  0.7070 -0.8144
 1258TIP3   OH225264   3.218   5.577   4.167  0.2307  0.2350 -0.0119
 1258TIP3    H125265   3.133   5.596   4.127  0.5420  2.2136  0.1845
 1258TIP3    H225266   3.205   5.592   4.260  0.9797  1.4004 -0.0685
 1259TIP3   OH225267   3.317   3.053  16.886  0.2936  0.2014  0.3131
 1259TIP3    H125268   3.396   3.019  16.928  0.1492 -1.5470 -0.7381
 1259TIP3    H225269   3.281   2.979  16.838 -1.5261  1.1835  0.0444
 1260TIP3   OH225270   5.450   0.957   0.416 -0.1628 -0.1566  0.4397
 1260TIP3    H125271   5.382   0.889   0.421 -0.4395 -0.1234 -1.7849
 1260TIP3    H225272   5.422   1.023   0.480 -0.3057 -1.7292  2.0789
 1261TIP3   OH225273   2.531   2.643   1.351  0.0989 -0.1685  0.5773
 1261TIP3    H125274   2.577   2.724   1.373  0.0422 -0.0322  0.2110
 1261TIP3    H225275   2.447   2.650   1.396 -1.0914  1.2900 -1.6334
 1262TIP3   OH225276   3.276   2.025   6.348 -0.3574  0.4157  0.3499
 1262TIP3    H125277   3.185   2.043   6.371 -0.0721  0.5293  1.4344
 1262TIP3    H225278   3.282   1.930   6.344 -0.4087  0.3914  0.7934
 1263TIP3   OH225279   2.787   2.490  12.664  0.0613  0.5162 -0.3999
 1263TIP3    H125280   2.818   2.442  12.741  0.6035 -0.2764 -1.0821
 1263TIP3    H225281   2.698   2.458  12.650 -0.3915  1.3770  0.4491
 1264TIP3   OH225282   6.490   2.238  16.839 -0.3009  0.5092 -0.0914
 1264TIP3    H125283   6.563   2.217  16.898 -0.2803  2.1851  0.5364
 1264TIP3    H225284   6.532   2.283  16.765 -0.5498  0.2372 -0.3986
 1265TIP3   OH225285   2.298   3.869  16.571 -1.0252  0.3686 -0.3925
 1265TIP3    H125286   2.355   3.858  16.647  1.7184 -0.4661 -2.4015
 1265TIP3    H225287   2.269   3.960  16.576  0.7100  0.9244  0.6053
 1266TIP3   OH225288   4.739   0.078  16.066  0.4912  0.2159 -0.3903
 1266TIP3    H125289   4.659   0.130  16.079  1.4343  1.6102  0.0788
 1266TIP3    H225290   4.790   0.094  16.145  2.3734  1.4734 -1.7946
 1267TIP3   OH225291   2.893   2.747   5.867  0.1917  0.1466 -0.2288
 1267TIP3    H125292   2.811   2.702   5.846  0.4388 -0.3859 -0.0678
 1267TIP3    H225293   2.950   2.678   5.900 -0.1424  0.8897  2.1073
 1268TIP3   OH225294   3.414   5.365   4.104 -0.0001 -0.2524  0.1859
 1268TIP3    H125295   3.369   5.434   4.153  0.0825  0.6784 -0.9939
 1268TIP3    H225296   3.487   5.410   4.063 -0.5277 -0.8209 -1.4328
 1269TIP3   OH225297   1.184   2.695   1.979  0.0399 -0.5689 -0.1722
 1269TIP3    H125298   1.267   2.742   1.976 -0.5247  0.4313 -0.7220
 1269TIP3    H225299   1.140   2.720   1.898 -0.4963 -1.6654 -0.2340
 1270TIP3   OH225300   2.766   0.422   4.239  0.0677  0.0776  0.0639
 1270TIP3    H125301   2.797   0.498   4.189  0.9327  1.0081  1.9255
 1270TIP3    H225302   2.683   0.451   4.277  0.4147  0.1004  0.8035
 1271TIP3   OH225303   1.997   1.461   5.270  0.0590  0.0986  0.2407
 1271TIP3    H125304   1.935   1.520   5.228 -0.0353 -0.5700 -0.5843
 1271TIP3    H225305   1.956   1.437   5.352 -0.9298 -0.5863 -0.4382
 1272TIP3   OH225306   5.647   6.131  14.977  0.4330  0.0274  0.4030
 1272TIP3    H125307   5.592   6.164  14.906  0.3737 -0.2447  0.3219
 1272TIP3    H225308   5.695   6.058  14.938 -1.2328 -1.5814  1.2127
 1273TIP3   OH225309   1.914   0.298   2.171 -0.1452  0.2553  0.0062
 1273TIP3    H125310   1.823   0.322   2.157 -1.0331 -1.3459  2.3107
 1273TIP3    H225311   1.923   0.294   2.267  2.7119  1.6204 -0.1119
 1274TIP3   OH225312   5.672   5.833  16.194 -0.1559 -0.3709 -0.2318
 1274TIP3    H125313   5.620   5.886  16.134 -1.4075 -1.7902 -0.4782
 1274TIP3    H225314   5.684   5.888  16.272 -0.1865  0.7715 -1.0217
 1275TIP3   OH225315   5.371   4.166   3.906 -0.4017  0.1741 -0.5005
 1275TIP3    H125316   5.323   4.248   3.923 -0.4558 -0.0591  0.4837
 1275TIP3    H225317   5.450   4.194   3.860 -0.4470  0.7813 -0.2195
 1276TIP3   OH225318   0.156   5.926  16.561  0.0086  0.3230 -0.2749
 1276TIP3    H125319   0.129   5.834  16.569  0.5457  0.3283  2.9410
 1276TIP3    H225320   0.081   5.969  16.520 -1.7507 -0.9810  1.4024
 1277TIP3   OH225321   6.086   5.688  16.346 -0.2451  0.2192 -0.1853
 1277TIP3    H125322   6.073   5.723  16.258  1.1054  0.3121 -0.3676
 1277TIP3    H225323   6.069   5.762  16.404 -2.3145 -0.1317 -0.2556
 1278TIP3   OH225324   4.667   2.914  14.691 -0.1101 -0.2915  0.5820
 1278TIP3    H125325   4.746   2.880  14.735  1.8612  1.9276 -0.9851
 1278TIP3    H225326   4.647   2.995  14.738 -0.0020  0.3605 -0.4681
 1279TIP3   OH225327   2.567   0.666   4.250 -0.0147 -0.1267 -0.4295
 1279TIP3    H125328   2.585   0.736   4.312 -1.3273 -0.1357 -0.0043
 1279TIP3    H225329   2.472   0.668   4.239  0.0215 -1.2505 -1.1134
 1280TIP3   OH225330   2.336   6.632  15.785 -0.4059  0.9969 -0.2596
 1280TIP3    H125331   2.266   6.567  15.777  1.5598 -1.2274 -0.3630
 1280TIP3    H225332   2.304   6.707  15.735 -2.6378  0.0343 -0.4066
 1281TIP3   OH225333   3.572   0.990  13.411  0.6217 -0.7285  0.6462
 1281TIP3    H125334   3.605   1.067  13.363 -2.0009  0.5025  0.6656
 1281TIP3    H225335   3.553   0.926  13.342  2.7887 -1.4316  0.6266
 1282TIP3   OH225336   5.664   4.682   0.465  0.7852 -0.4624  0.1014
 1282TIP3    H125337   5.605   4.686   0.539 -0.2203 -0.7129 -0.6680
 1282TIP3    H225338   5.702   4.594   0.469  2.2132  0.1680  1.3969
 1283TIP3   OH225339   5.721   4.786   6.517 -0.5658 -0.1546  0.6201
 1283TIP3    H125340   5.697   4.868   6.474 -1.4180  0.7299  2.6409
 1283TIP3    H225341   5.641   4.733   6.513 -0.2815 -0.5566  0.0946
 1284TIP3   OH225342   6.458   2.647  14.112 -0.8417 -0.1597 -0.2977
 1284TIP3    H125343   6.395   2.716  14.094  0.4090  1.4077  1.0087
 1284TIP3    H225344   6.451   2.631  14.206  0.7036  0.1041 -0.1025
 1285TIP3   OH225345   5.664   1.373   2.035 -1.1591 -0.4687 -0.5438
 1285TIP3    H125346   5.607   1.362   1.959  1.6608 -4.3961 -2.4235
 1285TIP3    H225347   5.726   1.440   2.009  0.3440 -2.4045 -2.3102
 1286TIP3   OH225348   1.243   3.869  10.663  0.1377 -0.6413  0.0191
 1286TIP3    H125349   1.215   3.824  10.583 -0.7488  2.7785 -1.7829
 1286TIP3    H225350   1.302   3.938  10.632  0.4075  0.3155  2.4401
 1287TIP3   OH225351   3.525   0.393  15.580 -0.1867 -0.5199  0.0550
 1287TIP3    H125352   3.504   0.393  15.673  0.8203 -0.0633  0.2890
 1287TIP3    H225353   3.514   0.484  15.553  0.4881 -0.4637 -0.0422
 1288TIP3   OH225354   3.458   2.711  15.107 -0.2741 -0.3151  0.2114
 1288TIP3    H125355   3.452   2.716  15.012 -0.5983 -2.6965  0.0519
 1288TIP3    H225356   3.477   2.801  15.135  0.6039  0.2809 -2.1350
 1289TIP3   OH225357   1.262   5.379  16.422  0.4663 -0.4309  0.6912
 1289TIP3    H125358   1.211   5.408  16.347  0.8990 -2.3382 -0.4220
 1289TIP3    H225359   1.210   5.308  16.461  0.6390 -0.0304  1.7018
 1290TIP3   OH225360   2.243   3.287  12.123  0.5078  0.3210  0.1000
 1290TIP3    H125361   2.232   3.337  12.043  0.9789 -0.7881 -0.6876
 1290TIP3    H225362   2.201   3.203  12.104 -0.1403  0.3429  1.3325
 1291TIP3   OH225363   0.056   4.796   0.820 -0.2768 -0.2864 -0.6092
 1291TIP3    H125364  -0.010   4.762   0.881  0.1959 -0.2336 -0.0528
 1291TIP3    H225365   0.062   4.889   0.842 -1.8230  0.2804 -2.3631
 1292TIP3   OH225366   5.128   1.581  15.669 -0.2143 -0.1587 -0.3691
 1292TIP3    H125367   5.211   1.584  15.621  0.9280  2.9602  1.5065
 1292TIP3    H225368   5.141   1.514  15.736  1.6761  1.6085  1.1596
 1293TIP3   OH225369   0.222   3.613   3.174  0.2343 -0.0508  0.0265
 1293TIP3    H125370   0.178   3.546   3.122 -0.3831  0.0385  0.4349
 1293TIP3    H225371   0.205   3.589   3.265 -1.6655  1.7214  0.1968
 1294TIP3   OH225372   0.450   3.216  16.252 -0.4310 -0.5655 -0.4024
 1294TIP3    H125373   0.482   3.212  16.342  1.4773  0.2149 -0.9918
 1294TIP3    H225374   0.395   3.138  16.243 -0.0617 -1.0528  1.2176
 1295TIP3   OH225375   5.750   1.873  15.565  0.1110 -0.7694 -0.2673
 1295TIP3    H125376   5.764   1.870  15.470 -1.1147 -2.9198 -0.4349
 1295TIP3    H225377   5.662   1.908  15.575  0.3103 -0.3701  0.1013
 1296TIP3   OH225378   0.656   0.867  10.245 -0.4333  0.0377 -0.2310
 1296TIP3    H125379   0.668   0.958  10.219 -0.3717 -0.2568 -1.2721
 1296TIP3    H225380   0.654   0.869  10.341  0.3474  1.0289 -0.2269
 1297TIP3   OH225381   2.236   1.157  12.549  0.3047  0.2597  0.1657
 1297TIP3    H125382   2.155   1.198  12.581 -0.3346  1.2699 -2.4750
 1297TIP3    H225383   2.306   1.208  12.590 -0.4318  1.1142  0.4124
 1298TIP3   OH225384   0.555   2.837  15.506 -0.1875 -0.4171 -0.4227
 1298TIP3    H125385   0.647   2.859  15.516 -0.4126 -0.1215  1.2625
 1298TIP3    H225386   0.549   2.794  15.420  0.7729  3.3106 -2.5350
 1299TIP3   OH225387   0.427   4.177  11.320  0.0029  0.1691  0.3002
 1299TIP3    H125388   0.346   4.175  11.372 -0.4220  0.3692 -0.3434
 1299TIP3    H225389   0.431   4.090  11.281 -0.4363  0.4814 -0.4619
 1300TIP3   OH225390   0.373   5.133  10.958 -0.5435 -0.2950  0.2700
 1300TIP3    H125391   0.462   5.145  10.993 -0.1380 -1.7641 -0.1839
 1300TIP3    H225392   0.365   5.039  10.946 -0.9922  0.0509 -2.7656
 1301TIP3   OH225393   1.879   6.784  16.505  0.1571 -0.1687  0.6213
 1301TIP3    H125394   1.848   6.852  16.446  0.3043 -0.9269 -0.3621
 1301TIP3    H225395   1.800   6.745  16.541  0.0535 -0.0549  0.5172
 1302TIP3   OH225396   0.866   1.245   2.163 -0.0497  0.3953  0.8424
 1302TIP3    H125397   0.907   1.194   2.093  1.7642 -0.2171  2.2556
 1302TIP3    H225398   0.785   1.277   2.125  0.1693 -1.1028 -1.0610
 1303TIP3   OH225399   6.160   5.893   2.156 -0.6286 -0.5620  0.2551
 1303TIP3    H125400   6.229   5.859   2.099 -0.6303  1.8834 -1.3580
 1303TIP3    H225401   6.196   5.888   2.244  0.7995 -1.2053 -0.3379
 1304TIP3   OH225402   0.346   6.024   2.613  0.0396 -0.2851 -0.3324
 1304TIP3    H125403   0.287   6.082   2.661 -0.2275  0.1563 -1.1844
 1304TIP3    H225404   0.432   6.064   2.622  0.0258 -0.3197 -0.0402
 1305TIP3   OH225405   5.733   1.402  15.979 -0.0337 -0.2096  0.8855
 1305TIP3    H125406   5.668   1.464  15.947 -1.1076 -0.9305  1.5909
 1305TIP3    H225407   5.783   1.450  16.044 -0.0450  0.2616  0.5499
 1306TIP3   OH225408   6.139   4.548  11.820 -0.5079  0.2674  0.0809
 1306TIP3    H125409   6.085   4.627  11.815  0.7155  1.3039  1.9306
 1306TIP3    H225410   6.223   4.579  11.854 -0.1588 -1.9122  1.3958
 1307TIP3   OH225411   1.198   4.575  11.591 -0.5034  0.1968 -0.2922
 1307TIP3    H125412   1.120   4.580  11.645 -0.1162 -2.0033  0.5686
 1307TIP3    H225413   1.177   4.510  11.524  0.7396 -0.9035  0.3240
 1308TIP3   OH225414   3.003   2.530  11.954 -0.0538 -0.5615  0.3933
 1308TIP3    H125415   3.019   2.537  12.048  0.5471 -1.9465  0.4216
 1308TIP3    H225416   2.960   2.445  11.943 -1.0989  0.0526 -0.4835
 1309TIP3   OH225417   6.683   1.736  16.732 -0.6667 -0.1561  0.0783
 1309TIP3    H125418   6.595   1.772  16.725 -0.6307 -0.3903 -2.4689
 1309TIP3    H225419   6.677   1.673  16.804 -2.0984  1.0373  1.0685
 1310TIP3   OH225420   0.179   2.235   4.330  0.0376  0.1792  0.1524
 1310TIP3    H125421   0.140   2.190   4.255  1.5959 -0.5831 -0.2388
 1310TIP3    H225422   0.104   2.262   4.383 -1.0622 -0.0897 -1.2023
 1311TIP3   OH225423   4.106   3.991   6.640 -0.3106  0.0036 -0.5988
 1311TIP3    H125424   4.155   3.999   6.722 -2.2576 -0.8022  0.6996
 1311TIP3    H225425   4.174   3.982   6.573  1.3344 -0.9318  1.0958
 1312TIP3   OH225426   4.834   6.016   1.107 -1.0171 -0.1504  0.2707
 1312TIP3    H125427   4.904   5.979   1.161 -0.3735 -1.7133 -1.5433
 1312TIP3    H225428   4.840   6.110   1.120  1.4197 -0.2425  0.1753
 1313TIP3   OH225429   4.257   5.185   1.525  0.2909  0.5668 -0.1741
 1313TIP3    H125430   4.182   5.172   1.583  0.4802 -3.0842 -0.5425
 1313TIP3    H225431   4.226   5.250   1.462 -2.4018 -0.3530  0.0386
 1314TIP3   OH225432   5.515   4.261   4.314 -0.2295 -0.2855  0.3950
 1314TIP3    H125433   5.432   4.222   4.288  0.5199  0.3423 -3.5971
 1314TIP3    H225434   5.574   4.244   4.240  2.4303  1.5699  1.8963
 1315TIP3   OH225435   1.799   1.183   1.716 -0.3875  0.5669 -0.0350
 1315TIP3    H125436   1.832   1.112   1.662 -0.8838  0.9135 -0.8299
 1315TIP3    H225437   1.740   1.141   1.779  1.0418  0.0293  0.9780
 1316TIP3   OH225438   5.840   5.103   3.996  0.7481 -0.1607  0.2555
 1316TIP3    H125439   5.901   5.091   3.923  0.8700 -1.2769  0.5170
 1316TIP3    H225440   5.859   5.191   4.030  0.9858  0.1937 -0.7712
 1317TIP3   OH225441   5.368   1.968  15.298 -0.2719 -0.1790 -1.1578
 1317TIP3    H125442   5.425   1.906  15.251  1.9038 -0.4806  1.6019
 1317TIP3    H225443   5.327   1.915  15.366  0.0393  0.9823 -0.0356
 1318TIP3   OH225444   2.793   6.780  16.281  0.4429 -0.1824 -0.4961
 1318TIP3    H125445   2.840   6.791  16.363  0.2465 -0.9638 -0.2711
 1318TIP3    H225446   2.706   6.749  16.307  0.0134  0.6026 -0.9443
 1319TIP3   OH225447   1.266   4.335   2.726  0.0003 -0.3398  0.5887
 1319TIP3    H125448   1.265   4.269   2.796 -0.1666  0.3893  1.2826
 1319TIP3    H225449   1.173   4.346   2.703 -0.1641  1.0737  1.8415
 1320TIP3   OH225450   2.870   5.278   0.056 -0.0067  0.5370  0.2102
 1320TIP3    H125451   2.922   5.348   0.018 -1.4888  2.3486  1.3523
 1320TIP3    H225452   2.779   5.299   0.033 -0.5473 -0.6888  1.0720
 1321TIP3   OH225453   1.246   2.240  12.921 -0.4826 -0.3631 -0.3254
 1321TIP3    H125454   1.227   2.235  12.828 -1.5213 -2.5430 -0.0425
 1321TIP3    H225455   1.169   2.202  12.964 -0.5951  1.7072  1.5310
 1322TIP3   OH225456   6.094   4.790  13.313 -0.1871 -0.3660  0.0965
 1322TIP3    H125457   6.092   4.765  13.220 -0.0207 -1.8459  0.4700
 1322TIP3    H225458   6.003   4.787  13.341 -0.1687 -0.5555  0.1378
 1323TIP3   OH225459   6.649   1.101   2.971  0.1228  0.9644 -0.8232
 1323TIP3    H125460   6.578   1.108   2.908  0.1182  0.2683 -0.9028
 1323TIP3    H225461   6.674   1.009   2.969  0.6054  1.0790 -0.3352
 1324TIP3   OH225462   5.523   6.374   5.020 -0.3010  0.0244  0.1030
 1324TIP3    H125463   5.564   6.299   5.063  0.6853  0.6389  0.2577
 1324TIP3    H225464   5.440   6.385   5.066  0.8495  0.8496  2.1128
 1325TIP3   OH225465   5.956   4.261  15.384  0.5200 -0.1575  0.4593
 1325TIP3    H125466   6.046   4.271  15.416  0.6086  0.8455 -0.0786
 1325TIP3    H225467   5.901   4.293  15.456  0.6474  0.4054  0.3077
 1326TIP3   OH225468   1.673   4.049  12.751 -0.1643  0.3775 -0.2597
 1326TIP3    H125469   1.752   4.030  12.802  1.6659  1.8044 -2.3986
 1326TIP3    H225470   1.663   3.974  12.694 -0.2888  0.2457 -0.0654
 1327TIP3   OH225471   1.833   1.684   0.651 -0.6689 -0.6552 -0.4648
 1327TIP3    H125472   1.777   1.621   0.695  0.4811 -1.2266  0.2406
 1327TIP3    H225473   1.780   1.763   0.644 -1.6727 -1.2872 -0.1580
 1328TIP3   OH225474   1.665   3.799  11.753 -0.5507  0.2725 -0.1946
 1328TIP3    H125475   1.608   3.727  11.728 -1.4271  0.5362  0.9641
 1328TIP3    H225476   1.607   3.864  11.793  0.5307  0.5568  1.0033
 1329TIP3   OH225477   5.239   2.835   2.786  0.1101 -0.5570 -0.1764
 1329TIP3    H125478   5.325   2.811   2.821  0.0849 -0.5906 -0.1380
 1329TIP3    H225479   5.254   2.846   2.692  0.4794  0.8982  0.0305
 1330TIP3   OH225480   5.689   1.658  11.046  0.2291 -0.1916  0.1036
 1330TIP3    H125481   5.691   1.754  11.052  0.2945 -0.2338  0.8377
 1330TIP3    H225482   5.646   1.640  10.962 -0.5122  0.4813  0.3206
 1331TIP3   OH225483   4.180   2.289  13.773  0.1637  1.0448 -0.2201
 1331TIP3    H125484   4.254   2.346  13.752  2.0764 -1.5515 -1.1550
 1331TIP3    H225485   4.220   2.207  13.801 -2.4204  0.2760  1.6293
 1332TIP3   OH225486   3.364   1.920  14.676 -0.1424  0.6039  0.1509
 1332TIP3    H125487   3.313   1.954  14.603  0.4717 -0.6318 -0.8975
 1332TIP3    H225488   3.353   1.985  14.746 -2.4027  0.8004 -0.3190
 1333TIP3   OH225489   3.355   3.223   1.438  0.0740 -0.6947  0.5592
 1333TIP3    H125490   3.384   3.214   1.347  0.2484  1.5527  0.3351
 1333TIP3    H225491   3.424   3.180   1.489  1.9166  1.1151 -0.2185
 1334TIP3   OH225492   3.997   2.281   6.222  0.0086 -0.2285 -0.4556
 1334TIP3    H125493   3.985   2.321   6.135 -0.5070 -0.8272 -0.6649
 1334TIP3    H225494   3.967   2.348   6.283 -1.0540 -0.3599 -0.8173
 1335TIP3   OH225495   5.939   5.147   2.704 -0.0751 -0.5920 -0.5934
 1335TIP3    H125496   5.939   5.233   2.746 -0.7359 -0.1564 -1.4345
 1335TIP3    H225497   5.948   5.166   2.610 -2.7635 -1.2381 -1.0717
 1336TIP3   OH225498   4.736   1.070  16.569 -0.0867  0.6264 -0.2261
 1336TIP3    H125499   4.672   1.096  16.635  0.3414  1.8553 -0.2679
 1336TIP3    H225500   4.786   1.149  16.552  1.2748 -0.2398 -0.3996
 1337TIP3   OH225501   5.514   3.030   4.872  0.1593  0.0126 -0.4797
 1337TIP3    H125502   5.568   3.107   4.855  0.2381 -0.3987 -2.2307
 1337TIP3    H225503   5.529   2.973   4.797 -0.5702 -1.3385  0.3708
 1338TIP3   OH225504   3.369   6.761   1.621  0.1823 -0.1951  0.2995
 1338TIP3    H125505   3.454   6.720   1.640 -0.3587 -1.0642  0.9029
 1338TIP3    H225506   3.380   6.852   1.647  1.2528 -0.0576 -0.5911
 1339TIP3   OH225507   6.645   6.577   4.103 -0.5757 -0.6369 -0.2415
 1339TIP3    H125508   6.560   6.573   4.146 -1.1184 -0.8218 -1.2982
 1339TIP3    H225509   6.705   6.536   4.166 -0.4774  2.7721  2.1846
 1340TIP3   OH225510   1.293   5.923  12.080  0.1797 -0.6677  0.0178
 1340TIP3    H125511   1.379   5.881  12.078  0.3952 -0.4233  1.9956
 1340TIP3    H225512   1.231   5.851  12.069  0.6084 -0.9872 -0.3553
 1341TIP3   OH225513   4.446   4.380   1.245 -0.2937  0.3764  0.4791
 1341TIP3    H125514   4.399   4.298   1.262  2.0054 -1.4651 -1.4339
 1341TIP3    H225515   4.487   4.401   1.329  0.4604 -1.4010  0.5920
 1342TIP3   OH225516   0.957   5.058  10.764 -0.2931  0.7458 -0.1635
 1342TIP3    H125517   0.995   5.039  10.678  0.4477 -0.0766  0.3285
 1342TIP3    H225518   1.006   5.133  10.796 -2.3066  2.7698 -1.5275
 1343TIP3   OH225519   5.671   5.843   3.672  0.3831 -0.0531  0.1834
 1343TIP3    H125520   5.748   5.899   3.685 -1.3976  2.4859  0.5729
 1343TIP3    H225521   5.640   5.825   3.760 -0.2962  0.2089  0.0014
 1344TIP3   OH225522   5.237   0.616  16.887 -0.1192 -0.1596  0.7252
 1344TIP3    H125523   5.229   0.594  16.980 -0.2685 -1.5327  0.4074
 1344TIP3    H225524   5.173   0.560  16.843 -1.2202  1.6080 -0.0775
 1345TIP3   OH225525   4.210   1.081   3.676  0.4284 -0.8086 -0.0385
 1345TIP3    H125526   4.165   1.159   3.707 -1.3410 -2.4250  1.6831
 1345TIP3    H225527   4.177   1.010   3.731  1.4783 -2.9081 -1.9542
 1346TIP3   OH225528   3.809   3.994  11.814  0.3157  0.3654  0.1299
 1346TIP3    H125529   3.823   3.938  11.737  0.2703  0.9741 -0.3219
 1346TIP3    H225530   3.757   4.067  11.782  1.0186  1.0613  0.5633
 1347TIP3   OH225531   5.355   5.129   2.277 -0.1762  0.0921 -0.9238
 1347TIP3    H125532   5.426   5.137   2.214 -0.0260  0.6393 -0.6932
 1347TIP3    H225533   5.372   5.047   2.323  1.9416  1.5206  1.0813
 1348TIP3   OH225534   0.277   1.747  11.897 -0.2647  0.4534 -0.3047
 1348TIP3    H125535   0.365   1.759  11.934 -0.4689  0.7511  0.1030
 1348TIP3    H225536   0.240   1.675  11.947 -1.0487  1.7442  1.0674
 1349TIP3   OH225537   0.443   5.312  16.677 -0.1050  0.2232  0.8835
 1349TIP3    H125538   0.473   5.379  16.738 -0.0847  0.1441  0.9619
 1349TIP3    H225539   0.414   5.240  16.733  1.4636 -0.5277  0.7997
 1350TIP3   OH225540   1.354   1.962   3.129 -0.8447  0.3365 -0.5535
 1350TIP3    H125541   1.346   1.973   3.034 -0.9468  1.0088 -0.4752
 1350TIP3    H225542   1.274   2.001   3.164  0.0084  1.7461 -0.0933
 1351TIP3   OH225543   2.298   1.860  16.957 -0.2017  0.2050 -0.0148
 1351TIP3    H125544   2.299   1.915  16.879 -1.1316  0.1669 -0.0654
 1351TIP3    H225545   2.209   1.824  16.960 -0.3405  0.5923  1.3255
 1352TIP3   OH225546   0.324   5.743   2.816 -0.2314  0.1852  0.3227
 1352TIP3    H125547   0.304   5.825   2.861 -0.9599  2.4719 -3.7067
 1352TIP3    H225548   0.391   5.767   2.751 -0.4103 -2.4462 -0.9592
 1353TIP3   OH225549   5.081   2.583   0.055  0.5675  0.3178 -0.5857
 1353TIP3    H125550   5.102   2.577   0.148  1.1195 -0.8196 -0.7672
 1353TIP3    H225551   4.985   2.582   0.052  0.5452  0.4887 -0.0267
 1354TIP3   OH225552   3.604   6.761  14.966 -0.1256  0.2922  0.3955
 1354TIP3    H125553   3.535   6.805  15.014  1.1584  0.0030  2.6167
 1354TIP3    H225554   3.673   6.827  14.956 -0.8270  0.7398 -2.2531
 1355TIP3   OH225555   6.687   4.440  15.859 -0.3304 -0.3624  1.1369
 1355TIP3    H125556   6.725   4.365  15.813  0.0944  0.5243 -0.0024
 1355TIP3    H225557   6.762   4.491  15.889 -0.6198 -0.1487  1.5076
 1356TIP3   OH225558   3.855   5.676  16.737 -0.2231 -0.2358 -0.1274
 1356TIP3    H125559   3.879   5.622  16.813  1.5208  2.0160  1.0221
 1356TIP3    H225560   3.775   5.721  16.764 -1.6461 -2.0348 -1.0678
 1357TIP3   OH225561   4.700   2.512   4.425 -0.7465 -0.1328 -0.3780
 1357TIP3    H125562   4.650   2.552   4.496 -3.2685 -2.1959 -0.8541
 1357TIP3    H225563   4.670   2.557   4.346  2.1497  2.2530 -0.3070
 1358TIP3   OH225564   6.515   3.584   3.309  0.2610 -0.0897  0.0271
 1358TIP3    H125565   6.514   3.576   3.213 -0.6290 -0.1911  0.0370
 1358TIP3    H225566   6.487   3.498   3.340  2.2917 -0.6509  0.4382
 1359TIP3   OH225567   1.824   3.807  17.102  0.0137  0.3640 -0.4229
 1359TIP3    H125568   1.896   3.782  17.159 -0.2486 -0.3894 -0.4108
 1359TIP3    H225569   1.800   3.895  17.130 -1.8739 -0.9243  2.5163
 1360TIP3   OH225570   3.844   2.144  15.541  0.6380  0.0489 -0.3102
 1360TIP3    H125571   3.806   2.178  15.621  0.9861  1.7948 -0.8589
 1360TIP3    H225572   3.838   2.049  15.551 -2.2369  0.2136  0.3810
 1361TIP3   OH225573   2.553   0.777  15.151  0.4671  0.5668  0.0394
 1361TIP3    H125574   2.591   0.831  15.220  0.5098  1.2478 -0.5003
 1361TIP3    H225575   2.475   0.738  15.191  1.3443 -0.3262  0.9519
 1362TIP3   OH225576   6.792   3.848  10.369  0.1806  0.1473  0.2046
 1362TIP3    H125577   6.851   3.889  10.306 -0.2501  1.5798  0.6879
 1362TIP3    H225578   6.815   3.888  10.453 -0.3943 -0.4639  0.6683
 1363TIP3   OH225579   0.968   2.694  14.900 -0.2168  0.0638  0.4848
 1363TIP3    H125580   0.944   2.772  14.850  0.2105 -0.4491 -0.5495
 1363TIP3    H225581   1.057   2.712  14.931 -0.5897  0.5028  1.3295
 1364TIP3   OH225582   3.895   6.320  14.307  0.0487 -0.1542 -0.3763
 1364TIP3    H125583   3.932   6.290  14.390  0.5571  1.5115  0.0336
 1364TIP3    H225584   3.807   6.283  14.306  0.2687 -0.7580  0.5896
 1365TIP3   OH225585   0.851   1.605   4.392 -0.8826  0.2040  0.2590
 1365TIP3    H125586   0.858   1.677   4.329 -0.8967  1.6739  1.8726
 1365TIP3    H225587   0.756   1.592   4.402 -0.8765 -0.5059 -0.5173
 1366TIP3   OH225588   1.268   1.108  14.425 -0.2029  0.4262  0.2889
 1366TIP3    H125589   1.257   1.064  14.341 -1.2705 -1.0459  1.1475
 1366TIP3    H225590   1.362   1.124  14.432 -0.3132  2.9199 -2.2649
 1367TIP3   OH225591   4.676   5.718  11.851  0.0680  0.1556  0.1975
 1367TIP3    H125592   4.708   5.659  11.919  0.2023 -0.5753 -0.4950
 1367TIP3    H225593   4.715   5.685  11.770  0.2788  1.2889 -0.1814
 1368TIP3   OH225594   1.017   1.898   3.944 -0.1917 -0.1487 -0.8456
 1368TIP3    H125595   1.040   1.991   3.936  0.0166 -0.1508 -0.3071
 1368TIP3    H225596   1.090   1.852   3.903  0.8708 -0.1586  0.9627
 1369TIP3   OH225597   5.852   1.624   1.215  0.2001  0.5414  0.4571
 1369TIP3    H125598   5.798   1.583   1.148  1.7231 -1.6172  0.4709
 1369TIP3    H225599   5.808   1.603   1.297 -0.3988  1.1748  0.3083
 1370TIP3   OH225600   2.914   3.360   3.084 -0.2002  0.0924  0.3216
 1370TIP3    H125601   2.902   3.451   3.056 -2.5192 -0.6522 -1.4423
 1370TIP3    H225602   2.849   3.348   3.153  0.0297 -0.2588  0.4741
 1371TIP3   OH225603   3.825   6.489   2.649  0.3715 -0.5201 -0.0854
 1371TIP3    H125604   3.868   6.512   2.731  0.9990  0.8567 -0.7673
 1371TIP3    H225605   3.870   6.410   2.620  1.5137  0.0969 -0.0701
 1372TIP3   OH225606   1.921   3.427  14.615  0.1347 -0.2996  1.0221
 1372TIP3    H125607   1.994   3.487  14.599  0.4207 -0.5335  1.4507
 1372TIP3    H225608   1.962   3.342  14.631 -0.2704 -0.6474  0.2940
 1373TIP3   OH225609   0.341   1.430   2.083  0.3353 -0.1966  0.0746
 1373TIP3    H125610   0.296   1.435   2.167 -0.5547 -0.5279 -0.3688
 1373TIP3    H225611   0.337   1.338   2.058  2.8748 -0.5972  0.8504
 1374TIP3   OH225612   1.030   3.603   5.147  0.6429  0.4583 -0.5294
 1374TIP3    H125613   1.042   3.581   5.054 -0.1582  0.7892 -0.7203
 1374TIP3    H225614   0.936   3.618   5.156  0.8504  1.4796  0.1013
 1375TIP3   OH225615   1.523   5.401  15.626  0.0082 -0.2732  0.4478
 1375TIP3    H125616   1.594   5.427  15.568  0.4537 -0.4110  0.9191
 1375TIP3    H225617   1.522   5.305  15.621  0.4004 -0.3187  1.0598
 1376TIP3   OH225618   4.371   5.541   0.484 -0.0891  0.0184 -0.6949
 1376TIP3    H125619   4.323   5.517   0.404  0.2812 -0.4345 -0.7858
 1376TIP3    H225620   4.463   5.535   0.459  0.0381 -0.8086 -0.0452
 1377TIP3   OH225621   4.798   5.432   4.374  0.0143 -0.0839  0.3292
 1377TIP3    H125622   4.862   5.481   4.322  0.0907  0.7247  1.1577
 1377TIP3    H225623   4.735   5.398   4.310  1.6130 -1.4798 -0.5951
 1378TIP3   OH225624   2.818   3.684   6.360  0.0185  0.4574  0.0465
 1378TIP3    H125625   2.760   3.759   6.351  0.2790  0.7149  0.5059
 1378TIP3    H225626   2.811   3.638   6.276  1.7522  2.3600 -1.2386
 1379TIP3   OH225627   1.754   5.925  15.353  1.0932  0.0370 -0.4357
 1379TIP3    H125628   1.745   5.882  15.267 -0.1744 -0.1387 -0.2474
 1379TIP3    H225629   1.742   5.854  15.416  2.6740  0.0541 -0.0989
 1380TIP3   OH225630   2.002   6.125   3.782  0.5221 -0.2192  0.3359
 1380TIP3    H125631   1.939   6.163   3.843 -1.7783 -0.9908 -1.4157
 1380TIP3    H225632   2.022   6.039   3.819  1.9073  0.6360  1.7314
 1381TIP3   OH225633   0.633   0.122  12.480  0.3605 -0.1203  0.0568
 1381TIP3    H125634   0.600   0.112  12.390 -0.6921  1.1068  0.2849
 1381TIP3    H225635   0.557   0.103  12.535  0.9460 -0.6434  0.6944
 1382TIP3   OH225636   2.179   3.618  16.556 -0.0395  0.1699 -0.6454
 1382TIP3    H125637   2.224   3.570  16.625  0.2785  2.0358  0.5251
 1382TIP3    H225638   2.207   3.709  16.567 -2.0827  0.9847 -1.5028
 1383TIP3   OH225639   2.100   1.012  13.372 -0.1580 -0.7084  0.3257
 1383TIP3    H125640   2.191   0.997  13.346 -0.0396  0.8579 -0.2876
 1383TIP3    H225641   2.103   1.092  13.424 -0.8549 -2.0574  2.5690
 1384TIP3   OH225642   2.073   2.253   2.935  0.7169  0.3933 -0.0378
 1384TIP3    H125643   2.004   2.227   2.996 -0.7451  0.2025 -1.6966
 1384TIP3    H225644   2.029   2.259   2.850  3.2551 -2.8316 -1.8362
 1385TIP3   OH225645   2.584   0.578   1.594 -0.3064  0.0006  0.0628
 1385TIP3    H125646   2.547   0.490   1.602 -1.2269  0.3424 -0.3045
 1385TIP3    H225647   2.614   0.583   1.503  0.2384 -0.1058  0.2283
 1386TIP3   OH225648   5.989   2.060   4.539 -0.3180  0.0894 -0.0606
 1386TIP3    H125649   5.934   2.005   4.594 -0.4626 -1.2974 -1.5055
 1386TIP3    H225650   6.004   2.139   4.591  0.3101 -1.4813  2.3127
 1387TIP3   OH225651   0.274   1.967   2.894  0.2429 -0.3269 -0.0276
 1387TIP3    H125652   0.343   2.029   2.918  0.0731 -0.0571 -0.2257
 1387TIP3    H225653   0.233   1.944   2.977 -0.1077  0.3255 -0.0112
 1388TIP3   OH225654   5.377   0.046   1.868  0.2724 -0.4078  0.0705
 1388TIP3    H125655   5.461   0.076   1.903  0.7899 -0.8237 -0.7699
 1388TIP3    H225656   5.345   0.119   1.816  0.9552 -0.8419 -1.0005
 1389TIP3   OH225657   4.469   4.883  12.101 -0.6572 -0.0665  0.6845
 1389TIP3    H125658   4.559   4.906  12.126 -0.5729  1.3552 -0.7254
 1389TIP3    H225659   4.443   4.817  12.164  0.8355  0.6141  2.0996
 1390TIP3   OH225660   5.421   5.579  16.285 -0.2205  0.5291 -0.1201
 1390TIP3    H125661   5.403   5.619  16.200  2.2607  2.7355  0.2658
 1390TIP3    H225662   5.512   5.550  16.279 -0.4142 -0.5262  1.3657
 1391TIP3   OH225663   6.670   3.335  11.761 -0.6081  0.4986 -0.1031
 1391TIP3    H125664   6.605   3.310  11.827  0.5983  1.3631  1.4900
 1391TIP3    H225665   6.648   3.426  11.739 -2.1499 -0.3290 -2.3991
 1392TIP3   OH225666   5.352   1.716   0.671  0.3699  0.1790  0.2546
 1392TIP3    H125667   5.324   1.805   0.692 -0.3054 -0.4443  2.1842
 1392TIP3    H225668   5.438   1.707   0.711 -0.0771 -0.3921  1.1247
 1393TIP3   OH225669   6.154   4.696   0.833  0.3864 -0.1653 -0.0453
 1393TIP3    H125670   6.153   4.706   0.738  0.6201 -2.9865 -0.4326
 1393TIP3    H225671   6.227   4.751   0.862 -0.4662  1.7337 -1.2854
 1394TIP3   OH225672   2.267   3.281   1.130 -0.1602 -0.2204 -0.5796
 1394TIP3    H125673   2.268   3.372   1.100  1.2678  0.5058  1.4706
 1394TIP3    H225674   2.324   3.234   1.069  0.8058  0.7139 -0.4083
 1395TIP3   OH225675   1.526   2.973  14.966 -0.1636  0.0921 -0.4476
 1395TIP3    H125676   1.533   2.884  14.999  3.4798  0.0884 -0.7657
 1395TIP3    H225677   1.605   3.016  14.999  0.3238  1.9839 -3.6818
 1396TIP3   OH225678   3.927   4.841   2.187  0.4797 -0.2010 -0.4383
 1396TIP3    H125679   3.843   4.800   2.207  0.6344 -1.3862 -1.9877
 1396TIP3    H225680   3.982   4.821   2.262 -0.2748 -0.4097  0.0721
 1397TIP3   OH225681   4.899   2.490   2.140  0.0813 -0.3458 -0.3583
 1397TIP3    H125682   4.817   2.443   2.126  1.1721 -1.9648 -1.8513
 1397TIP3    H225683   4.952   2.430   2.193  0.1188  0.9355  1.1139
 1398TIP3   OH225684   1.743   1.910  15.516 -0.6935  0.7608  0.1342
 1398TIP3    H125685   1.687   1.878  15.587  1.1536  1.3948  1.9685
 1398TIP3    H225686   1.785   1.988  15.552  1.3723  0.3033 -1.1313
 1399TIP3   OH225687   6.429   3.804  15.570 -0.1134  0.1802  0.0713
 1399TIP3    H125688   6.392   3.718  15.587 -1.3443  0.7148  0.2178
 1399TIP3    H225689   6.450   3.804  15.477  0.3622 -0.4478  0.1761
 1400TIP3   OH225690   6.795   1.653   4.937 -0.2438 -0.0231  0.0729
 1400TIP3    H125691   6.833   1.618   5.018 -0.5742 -1.5779 -0.4043
 1400TIP3    H225692   6.766   1.575   4.889 -0.7688  0.9197 -1.1886
 1401TIP3   OH225693   3.883   4.718  15.972 -0.0436 -0.4770 -0.0521
 1401TIP3    H125694   3.973   4.727  16.004  0.3942 -0.5618 -1.2087
 1401TIP3    H225695   3.850   4.807  15.966 -0.6078 -0.5203  1.8797
 1402TIP3   OH225696   4.008   0.665   4.853 -0.4129  0.1231 -0.4997
 1402TIP3    H125697   3.993   0.571   4.852 -0.4952  0.1376 -0.6357
 1402TIP3    H225698   4.050   0.683   4.769  1.4722 -0.1012  0.3461
 1403TIP3   OH225699   5.287   1.157  14.548 -0.2264 -0.2483  0.0651
 1403TIP3    H125700   5.211   1.206  14.517 -0.3954 -0.7616 -0.3485
 1403TIP3    H225701   5.358   1.183  14.490  0.2319  1.1378  1.1790
 1404TIP3   OH225702   0.662   2.405  12.369  0.2761 -0.1562 -0.0528
 1404TIP3    H125703   0.679   2.431  12.460  2.1480  0.6699 -0.5981
 1404TIP3    H225704   0.713   2.466  12.316  0.0577 -1.2650 -1.6303
 1405TIP3   OH225705   3.055   4.184  11.627  0.1298  0.1841 -0.0284
 1405TIP3    H125706   2.975   4.180  11.680  0.0367  0.8157 -0.1240
 1405TIP3    H225707   3.117   4.128  11.674  0.4079  1.6122  1.3687
 1406TIP3   OH225708   2.795   2.614  13.652 -0.0513  0.3203 -0.1707
 1406TIP3    H125709   2.717   2.664  13.676 -0.7069 -0.5875 -0.3335
 1406TIP3    H225710   2.763   2.548  13.590  1.0508  0.6469 -1.1317
 1407TIP3   OH225711   0.278   5.496   0.620  0.5181  0.1908  0.2764
 1407TIP3    H125712   0.252   5.442   0.546  1.2818  0.3841 -0.1555
 1407TIP3    H225713   0.362   5.459   0.647  1.0737  1.1605 -0.0572
 1408TIP3   OH225714   2.008   2.375  13.893 -0.1749  0.4878  0.7938
 1408TIP3    H125715   1.982   2.302  13.837 -0.5497  1.0049  0.2828
 1408TIP3    H225716   1.962   2.359  13.976 -0.9025  0.5676  0.4157
 1409TIP3   OH225717   0.035   0.415   1.577 -0.1519  0.0681 -0.7657
 1409TIP3    H125718  -0.021   0.487   1.548 -1.5627 -1.4772 -2.0744
 1409TIP3    H225719   0.031   0.351   1.505  1.0063 -1.3448  0.3574
 1410TIP3   OH225720   0.085   6.727   3.211 -0.1141 -0.1660  0.2166
 1410TIP3    H125721   0.156   6.737   3.148 -0.6620 -0.5132 -0.4767
 1410TIP3    H225722   0.090   6.635   3.239 -0.1439 -0.1299  0.3419
 1411TIP3   OH225723   2.980   5.686  15.034 -0.3861 -0.5035 -0.5260
 1411TIP3    H125724   3.040   5.681  14.960  0.4084  0.7069  0.0074
 1411TIP3    H225725   2.966   5.780  15.047 -0.3524 -0.6811  0.9735
 1412TIP3   OH225726   1.973   6.720   0.163 -0.0110 -0.5636 -0.2512
 1412TIP3    H125727   1.939   6.635   0.133  0.5601 -0.9119  0.0590
 1412TIP3    H225728   1.900   6.759   0.210 -0.4580 -0.6371 -0.8709
 1413TIP3   OH225729   4.626   0.197  13.860 -0.4160  0.0949 -0.3725
 1413TIP3    H125730   4.595   0.285  13.883  1.0274  0.3389  0.8132
 1413TIP3    H225731   4.704   0.212  13.808 -1.4477 -0.5191 -2.1880
 1414TIP3   OH225732   3.313   4.953  16.719  0.6009 -0.2337  0.0736
 1414TIP3    H125733   3.382   4.891  16.697  0.0219 -0.4847 -1.1087
 1414TIP3    H225734   3.315   4.959  16.815  1.4874 -1.1119  0.1191
 1415TIP3   OH225735   5.523   5.737   3.470 -0.0750 -0.3702  0.2679
 1415TIP3    H125736   5.582   5.763   3.399  1.2221 -2.0809  0.6632
 1415TIP3    H225737   5.570   5.760   3.550  1.1019 -3.6243  0.6367
 1416TIP3   OH225738   0.493   4.044  14.150  0.2342 -0.0257 -0.0070
 1416TIP3    H125739   0.427   3.975  14.146  0.9975 -0.8302  0.7142
 1416TIP3    H225740   0.515   4.063  14.059  0.6930 -1.4294 -0.2181
 1417TIP3   OH225741   0.200   5.096  12.855  0.3105  0.1135 -0.1573
 1417TIP3    H125742   0.254   5.151  12.912 -0.3732  0.3783  0.2412
 1417TIP3    H225743   0.133   5.059  12.912 -1.9208  2.3187 -1.1504
 1418TIP3   OH225744   2.994   2.469  13.783  0.1018 -0.1836  0.1235
 1418TIP3    H125745   3.078   2.466  13.737  0.1327  0.2126  0.1505
 1418TIP3    H225746   2.939   2.526  13.728  0.2930  0.6976  0.8279
 1419TIP3   OH225747   0.022   5.975  13.897  0.3689  0.4860 -0.3945
 1419TIP3    H125748   0.088   5.907  13.912  0.1309  0.8191  2.6494
 1419TIP3    H225749   0.063   6.056  13.928 -0.1653  1.3925 -1.9381
 1420TIP3   OH225750   2.740   1.323   2.645 -0.8166  0.8499 -0.1106
 1420TIP3    H125751   2.834   1.306   2.638 -0.9506 -0.5216  0.7872
 1420TIP3    H225752   2.718   1.376   2.569  0.7672  1.5773 -0.0862
 1421TIP3   OH225753   0.803   6.420   4.064 -0.3789  0.6564 -0.5068
 1421TIP3    H125754   0.761   6.459   3.987 -1.1417 -0.7329 -0.8244
 1421TIP3    H225755   0.788   6.326   4.055  2.3720  0.1206 -0.3618
 1422TIP3   OH225756   6.555   6.186  15.019  0.2573 -0.4767  0.2926
 1422TIP3    H125757   6.549   6.093  15.041  0.5926 -0.3166  1.0942
 1422TIP3    H225758   6.620   6.221  15.080  0.0841  0.2986  0.0456
 1423TIP3   OH225759   2.916   1.146   6.331  0.2410  0.1413  0.5793
 1423TIP3    H125760   2.922   1.113   6.421  0.8689  2.3994  1.4391
 1423TIP3    H225761   3.000   1.124   6.292 -0.7020 -2.5154 -0.1476
 1424TIP3   OH225762   6.443   2.723   2.037  0.0608  0.0875  0.1486
 1424TIP3    H125763   6.377   2.657   2.018  0.1774 -0.1136  0.4403
 1424TIP3    H225764   6.498   2.724   1.959 -0.5165  0.5424 -0.2646
 1425TIP3   OH225765   0.704   4.403  15.071  0.6892  0.2109  0.1837
 1425TIP3    H125766   0.723   4.375  15.160 -1.6410  0.7127  0.9240
 1425TIP3    H225767   0.786   4.442  15.040  2.3592 -2.3414  1.0893
 1426TIP3   OH225768   3.913   1.938   0.604 -0.0695  0.0383  1.1142
 1426TIP3    H125769   3.822   1.964   0.617  0.5449  1.9656  2.0471
 1426TIP3    H225770   3.933   1.967   0.514 -0.8773 -2.1951  0.1450
 1427TIP3   OH225771   0.247   4.749   5.696  0.0821 -0.1556  0.4221
 1427TIP3    H125772   0.305   4.719   5.766 -2.6296 -0.3845  2.7553
 1427TIP3    H225773   0.303   4.751   5.618  3.4490  0.6446  2.6095
 1428TIP3   OH225774   6.577   3.161  13.012  0.0000 -0.6022 -0.0214
 1428TIP3    H125775   6.566   3.117  13.097  0.4463  1.2177  1.0421
 1428TIP3    H225776   6.606   3.092  12.953  0.2544 -1.8142  1.4492
 1429TIP3   OH225777   0.515   2.322   3.150 -0.1010 -0.5309  0.1045
 1429TIP3    H125778   0.559   2.404   3.128 -1.1559 -0.0141 -0.1466
 1429TIP3    H225779   0.487   2.287   3.066 -0.0766 -0.9088  0.2529
 1430TIP3   OH225780   4.294   5.477  13.779  0.1056  0.4052 -0.2105
 1430TIP3    H125781   4.326   5.563  13.804 -2.5022  2.1317 -2.3183
 1430TIP3    H225782   4.310   5.472  13.684  1.3686 -2.0446  0.0415
 1431TIP3   OH225783   4.068   6.504  13.028 -0.0411  0.0800  0.6216
 1431TIP3    H125784   4.053   6.498  12.934  0.6871 -0.8886  0.5467
 1431TIP3    H225785   3.986   6.475  13.068  0.5585 -2.3498  0.2499
 1432TIP3   OH225786   3.496   1.195  11.607  0.7745  0.2747  0.2706
 1432TIP3    H125787   3.424   1.141  11.640  2.0243 -0.1787  2.4055
 1432TIP3    H225788   3.455   1.280  11.589 -0.6953 -0.5891 -0.6727
 1433TIP3   OH225789   6.356   3.295  16.138  0.5020 -0.3491  0.0320
 1433TIP3    H125790   6.290   3.239  16.097 -1.6914  1.4013  0.9510
 1433TIP3    H225791   6.413   3.320  16.065 -2.1292  1.1063 -1.7088
 1434TIP3   OH225792   6.615   0.362   3.130  0.0702 -0.3076 -0.2093
 1434TIP3    H125793   6.680   0.423   3.095 -0.1717  0.4426  0.6007
 1434TIP3    H225794   6.532   0.409   3.122 -0.1879 -0.7186  0.0022
 1435TIP3   OH225795   1.078   6.116  10.305 -0.2075 -0.2162 -0.3936
 1435TIP3    H125796   0.987   6.145  10.307  0.3992  1.8463 -0.5547
 1435TIP3    H225797   1.081   6.040  10.364 -1.4375  1.4629  1.9517
 1436TIP3   OH225798   1.325   6.045   0.948  0.2275  0.6634  0.1780
 1436TIP3    H125799   1.355   5.959   0.918 -1.3505 -0.1013  0.7122
 1436TIP3    H225800   1.343   6.045   1.042  1.8080  1.6288 -0.0861
 1437TIP3   OH225801   2.477   1.884  15.262 -0.4337  0.4661  0.6123
 1437TIP3    H125802   2.404   1.938  15.233 -1.3197  0.8551  3.3290
 1437TIP3    H225803   2.542   1.946  15.295  1.0693  0.1080 -1.4896
 1438TIP3   OH225804   6.111   6.552   4.273  0.4463  0.2407  0.2499
 1438TIP3    H125805   6.041   6.505   4.319 -0.1811 -0.0682 -0.9472
 1438TIP3    H225806   6.103   6.521   4.182  1.0509  1.4845 -0.2422
 1439TIP3   OH225807   1.660   1.700  12.516 -0.3871 -0.5322  0.0781
 1439TIP3    H125808   1.608   1.630  12.476  1.4431 -1.2733 -1.1878
 1439TIP3    H225809   1.688   1.754  12.442 -1.3198  1.2634  0.9924
 1440TIP3   OH225810   0.708   2.602   3.401 -0.1458 -0.1655 -0.1133
 1440TIP3    H125811   0.691   2.675   3.341  0.2612  0.0979  0.0942
 1440TIP3    H225812   0.722   2.643   3.486  1.0728 -0.4118 -0.1838
 1441TIP3   OH225813   0.165   2.626   0.252  0.2762 -0.1599  0.0534
 1441TIP3    H125814   0.149   2.605   0.160 -2.0321  0.7128  0.1986
 1441TIP3    H225815   0.152   2.720   0.258  0.8294 -0.1398  1.2236
 1442TIP3   OH225816   6.732   5.054   0.614 -0.1468  0.0137  0.3480
 1442TIP3    H125817   6.691   5.091   0.535 -1.0772  1.9956  1.6822
 1442TIP3    H225818   6.659   5.026   0.668  0.4561 -0.5074  0.9103
 1443TIP3   OH225819   3.351   0.903   0.244 -0.2293  0.3186 -0.0796
 1443TIP3    H125820   3.423   0.864   0.293  1.0117  2.8011  0.2469
 1443TIP3    H225821   3.304   0.956   0.308 -1.0418  0.4479 -0.7547
 1444TIP3   OH225822   4.712   1.530  11.662 -0.1949  0.2982 -0.3319
 1444TIP3    H125823   4.720   1.441  11.626  0.1704  0.5716 -0.9449
 1444TIP3    H225824   4.656   1.576  11.600 -0.3610  0.5068 -0.0300
 1445TIP3   OH225825   4.960   2.585   5.587 -0.0553  0.4685 -0.6957
 1445TIP3    H125826   5.018   2.591   5.663  2.3080 -0.0623 -2.3491
 1445TIP3    H225827   4.973   2.668   5.540 -0.0638  0.0386 -1.4764
 1446TIP3   OH225828   0.577   1.919   1.705 -0.1012  0.2352 -0.0671
 1446TIP3    H125829   0.506   1.938   1.644  1.7577  0.6555 -2.2515
 1446TIP3    H225830   0.613   2.004   1.728  0.4978 -0.0245 -0.0191
 1447TIP3   OH225831   2.262   0.939   4.437  0.1107  0.1943 -0.0556
 1447TIP3    H125832   2.319   0.988   4.496 -0.0221 -2.0978  2.0954
 1447TIP3    H225833   2.318   0.869   4.403 -0.6403 -0.2811 -0.3150
 1448TIP3   OH225834   2.952   3.932  12.625  0.5172  0.2499  0.2042
 1448TIP3    H125835   2.895   3.924  12.701  0.5089  0.6838  0.2469
 1448TIP3    H225836   2.964   4.027  12.614  0.8115  0.1771 -0.1135
 1449TIP3   OH225837   0.591   2.754  11.570  0.3317  0.1447 -0.1387
 1449TIP3    H125838   0.585   2.803  11.652 -2.8461  0.0567 -0.1962
 1449TIP3    H225839   0.558   2.814  11.503  3.6367  0.5123 -1.6403
 1450TIP3   OH225840   2.369   4.022  15.233 -0.7424  0.2590 -0.0225
 1450TIP3    H125841   2.305   3.982  15.293 -0.3843 -1.3230 -0.6369
 1450TIP3    H225842   2.453   4.015  15.280 -0.7224  0.5635 -0.0134
 1451TIP3   OH225843   5.997   4.174   3.731  0.3691  0.4008  1.0425
 1451TIP3    H125844   5.951   4.238   3.676  0.8244  1.6006  2.0056
 1451TIP3    H225845   6.082   4.215   3.748  1.6245 -1.5023 -0.2256
 1452TIP3   OH225846   3.666   4.419   5.204  0.4551  0.1900  0.1977
 1452TIP3    H125847   3.607   4.495   5.208  0.7191  0.3881  4.2097
 1452TIP3    H225848   3.751   4.454   5.228  1.3148 -0.8790 -1.1704
 1453TIP3   OH225849   5.175   2.557   2.564  0.4698  0.4032  0.2081
 1453TIP3    H125850   5.092   2.571   2.610  0.1860  1.2494 -0.5267
 1453TIP3    H225851   5.231   2.514   2.628 -1.0534 -1.7347  0.2487
 1454TIP3   OH225852   3.545   2.005   6.717 -0.7081  0.4403 -0.1736
 1454TIP3    H125853   3.629   1.992   6.762  0.7061 -0.1142 -2.7411
 1454TIP3    H225854   3.506   2.081   6.759  0.4470 -0.0675  1.9584
 1455TIP3   OH225855   2.494   1.340   4.890 -0.3265 -0.3611 -0.6902
 1455TIP3    H125856   2.469   1.385   4.971  0.2643  0.2259 -0.8291
 1455TIP3    H225857   2.569   1.287   4.915 -0.7516 -0.9505 -0.6323
 1456TIP3   OH225858   1.247   0.724  15.594 -0.0173 -0.3053 -0.1610
 1456TIP3    H125859   1.203   0.805  15.620 -0.5405 -0.1717 -1.3874
 1456TIP3    H225860   1.315   0.753  15.534  0.9271 -0.6357  0.7260
 1457TIP3   OH225861   3.027   5.964   0.935 -0.2247  0.8236  0.1292
 1457TIP3    H125862   2.959   6.014   0.889  0.9053  2.2752 -0.0258
 1457TIP3    H225863   3.090   6.030   0.964  2.9305 -0.6567 -2.6337
 1458TIP3   OH225864   2.044   0.666   4.535  0.3327 -0.2618  0.3722
 1458TIP3    H125865   2.108   0.614   4.583  0.9531  0.2616  0.1306
 1458TIP3    H225866   1.964   0.661   4.588  1.1173  0.6620  1.6954
 1459TIP3   OH225867   5.540   0.909   5.927  0.4445 -0.0946 -0.2143
 1459TIP3    H125868   5.493   0.894   6.009  0.6979  1.4688  0.2588
 1459TIP3    H225869   5.593   0.830   5.914  0.5614 -0.2772  1.2424
 1460TIP3   OH225870   0.948   0.525  12.513  0.4764 -0.2352 -0.3846
 1460TIP3    H125871   0.895   0.597  12.480 -0.4942 -0.0563  1.4316
 1460TIP3    H225872   0.885   0.465  12.553  1.5009 -0.8025  0.4251
 1461TIP3   OH225873   3.445   4.377   3.807  0.2983 -0.3378 -0.1906
 1461TIP3    H125874   3.467   4.448   3.867 -2.5788  1.0519 -0.5883
 1461TIP3    H225875   3.514   4.312   3.820  0.7306  0.6200  3.3764
 1462TIP3   OH225876   6.366   3.596   0.390  0.2190 -0.0207  0.4768
 1462TIP3    H125877   6.370   3.654   0.466  1.4672 -0.9925  1.2021
 1462TIP3    H225878   6.280   3.613   0.350  0.3896  1.9757  0.9019
 1463TIP3   OH225879   0.997   4.601  15.192  0.5220  0.3448  0.0233
 1463TIP3    H125880   1.015   4.542  15.265  0.6724 -1.4731 -1.3991
 1463TIP3    H225881   1.080   4.606  15.145  0.1758  0.7039 -0.5577
 1464TIP3   OH225882   1.521   2.917  12.130 -0.6041 -0.5110  0.2636
 1464TIP3    H125883   1.537   2.832  12.088  0.0298 -0.0935 -0.3601
 1464TIP3    H225884   1.549   2.903  12.221 -2.8369 -1.6828  0.8510
 1465TIP3   OH225885   6.261   1.444   5.865 -0.0567  0.9427  0.1930
 1465TIP3    H125886   6.191   1.425   5.803 -0.6950  0.3349  1.0754
 1465TIP3    H225887   6.338   1.403   5.828 -0.8312 -1.0894  0.7061
 1466TIP3   OH225888   4.439   2.809   3.635  0.0774 -0.1950  0.3990
 1466TIP3    H125889   4.481   2.729   3.603  0.1998 -0.0674  0.2395
 1466TIP3    H225890   4.357   2.779   3.672  1.3681 -0.8097  3.0188
 1467TIP3   OH225891   4.960   5.346   2.149  0.2061 -0.5345 -0.0677
 1467TIP3    H125892   4.886   5.397   2.118  3.1141  3.0384 -1.9099
 1467TIP3    H225893   4.995   5.396   2.222  1.6994 -1.2647 -0.2463
 1468TIP3   OH225894   5.787   6.609   1.763  0.2744  0.4355  0.4805
 1468TIP3    H125895   5.826   6.693   1.739 -2.0060  1.8241  1.3226
 1468TIP3    H225896   5.847   6.572   1.827  1.6389  1.0796 -0.3720
 1469TIP3   OH225897   5.102   2.667  16.522  0.0384 -0.6670 -0.2732
 1469TIP3    H125898   5.140   2.610  16.590  0.2255  0.0407  0.2344
 1469TIP3    H225899   5.176   2.722  16.494 -0.2340 -0.3976 -0.4608
 1470TIP3   OH225900   2.395   6.135   5.199  0.0760  0.5998  0.5783
 1470TIP3    H125901   2.411   6.052   5.244  0.0587  0.7450  0.8510
 1470TIP3    H225902   2.386   6.110   5.107  1.0389  0.4136  0.5257
 1471TIP3   OH225903   1.623   0.735   5.467 -0.3486  0.1864 -0.2858
 1471TIP3    H125904   1.670   0.694   5.539  2.3135  0.8948 -1.4969
 1471TIP3    H225905   1.538   0.759   5.504  0.6626 -0.0589  2.3953
 1472TIP3   OH225906   1.658   3.884  12.537  0.2524  0.9130 -0.5389
 1472TIP3    H125907   1.650   3.796  12.500 -1.3325  0.3227  1.1081
 1472TIP3    H225908   1.722   3.927  12.480 -1.1563 -0.3000 -3.2302
 1473TIP3   OH225909   5.167   1.059  12.282  0.1043 -0.5531  0.3452
 1473TIP3    H125910   5.232   1.021  12.223  0.5909 -0.0426  0.5490
 1473TIP3    H225911   5.194   1.031  12.370 -0.3232 -0.8820  0.3760
 1474TIP3   OH225912   5.384   3.883   0.893 -0.2382  0.8532  0.1265
 1474TIP3    H125913   5.392   3.909   0.985  1.1790 -0.5601  0.4358
 1474TIP3    H225914   5.466   3.911   0.853  0.7371 -1.7690  0.1562
 1475TIP3   OH225915   2.527   3.925   2.155 -0.6273 -0.1814  0.5439
 1475TIP3    H125916   2.472   3.848   2.141 -2.5574  1.2184  0.0198
 1475TIP3    H225917   2.490   3.966   2.233 -0.5799  0.9652 -0.0173
 1476TIP3   OH225918   4.729   1.629   5.485 -0.3828 -0.1059  0.1289
 1476TIP3    H125919   4.642   1.652   5.453 -0.9730 -1.6087  0.5882
 1476TIP3    H225920   4.729   1.654   5.577 -1.0137 -1.7989  0.6201
 1477TIP3   OH225921   2.602   4.408   1.141 -0.0707  0.2508 -0.6459
 1477TIP3    H125922   2.676   4.465   1.161 -0.3507  0.2634  0.4117
 1477TIP3    H225923   2.592   4.415   1.046  3.1785 -2.1255 -1.3186
 1478TIP3   OH225924   2.046   3.962   6.010  0.7235 -0.1166  0.0010
 1478TIP3    H125925   2.129   4.005   5.990 -0.2019  2.0410  0.5357
 1478TIP3    H225926   2.047   3.951   6.105  1.0461 -1.5529 -0.1503
 1479TIP3   OH225927   1.103   3.354   0.192  0.0210  0.8139 -0.1835
 1479TIP3    H125928   1.107   3.268   0.235  0.4623  1.4541  1.1177
 1479TIP3    H225929   1.022   3.393   0.223  0.5555  1.4586  0.4385
 1480TIP3   OH225930   5.309   4.840  15.776  0.0169  0.5249 -0.5248
 1480TIP3    H125931   5.317   4.876  15.864  1.7076  3.4305 -1.7330
 1480TIP3    H225932   5.388   4.787  15.764  0.1859  0.7826 -0.5561
 1481TIP3   OH225933   2.988   1.717  12.290 -0.1393  0.0833 -0.4721
 1481TIP3    H125934   3.020   1.688  12.376  1.3613 -0.6017 -1.2172
 1481TIP3    H225935   2.903   1.674  12.281 -1.2370  1.6783  1.4423
 1482TIP3   OH225936   6.102   2.409  12.958 -0.4500 -0.5816 -0.2074
 1482TIP3    H125937   6.033   2.469  12.987 -1.1201 -1.2565 -0.3694
 1482TIP3    H225938   6.070   2.375  12.874  0.1988 -0.7079 -0.4048
 1483TIP3   OH225939   3.728   3.161   1.275 -0.2707 -1.0488  0.2481
 1483TIP3    H125940   3.818   3.130   1.290  0.6123  0.3280 -1.7531
 1483TIP3    H225941   3.714   3.227   1.342  1.3601  0.7863 -1.0825
 1484TIP3   OH225942   1.129   4.854   2.115 -0.0198  0.3087 -0.0026
 1484TIP3    H125943   1.092   4.836   2.202  0.1440  2.2470  0.5053
 1484TIP3    H225944   1.083   4.931   2.084  0.9858  0.5486 -0.9692
 1485TIP3   OH225945   5.371   4.463  11.333 -0.7348  0.2661 -0.6132
 1485TIP3    H125946   5.357   4.525  11.262  0.7409  0.1739 -1.0094
 1485TIP3    H225947   5.449   4.414  11.308 -0.5160 -0.1682  0.8036
 1486TIP3   OH225948   5.139   3.302  13.830 -0.0190 -0.0112 -0.3402
 1486TIP3    H125949   5.169   3.308  13.921 -0.0871 -1.0409 -0.2330
 1486TIP3    H225950   5.173   3.217  13.800 -1.6436 -0.5769 -0.6513
 1487TIP3   OH225951   4.210   3.610   6.097 -0.3215  0.2791 -0.4944
 1487TIP3    H125952   4.258   3.673   6.043  0.1065 -0.7282 -1.3118
 1487TIP3    H225953   4.242   3.626   6.186  0.2857  0.7607 -0.7937
 1488TIP3   OH225954   5.227   5.317   3.662  0.2821 -0.1747 -0.1274
 1488TIP3    H125955   5.213   5.275   3.747 -0.3180  0.6669  0.2100
 1488TIP3    H225956   5.261   5.404   3.685 -4.7906  2.2221 -0.3691
 1489TIP3   OH225957   4.776   3.428  16.352  0.5994  0.2444  0.0645
 1489TIP3    H125958   4.776   3.427  16.256  0.9979 -1.3565  0.0628
 1489TIP3    H225959   4.725   3.351  16.377  1.8886 -0.3047  1.1311
 1490TIP3   OH225960   2.852   5.713  16.867 -0.4157 -0.1011  0.4192
 1490TIP3    H125961   2.928   5.669  16.830 -1.1692 -1.3483  0.2843
 1490TIP3    H225962   2.821   5.772  16.798 -0.8194 -1.1662 -0.3336
 1491TIP3   OH225963   3.686   4.270   0.847  0.3526  0.2599  0.1842
 1491TIP3    H125964   3.605   4.316   0.870  0.8515  1.0346  0.4332
 1491TIP3    H225965   3.678   4.254   0.753 -1.0083 -1.5425  0.5542
 1492TIP3   OH225966   2.074   6.682   4.006 -0.1640  0.3310  0.1795
 1492TIP3    H125967   2.119   6.628   4.070  1.5012  1.4295 -0.0055
 1492TIP3    H225968   2.081   6.771   4.039 -1.8820  0.6136 -0.0801
 1493TIP3   OH225969   5.988   0.369   3.298  0.0742  0.3622 -0.3321
 1493TIP3    H125970   5.945   0.299   3.249 -1.3349 -0.2970  1.7256
 1493TIP3    H225971   5.916   0.418   3.339  1.1778  0.7155  1.2771
 1494TIP3   OH225972   6.371   0.862   3.730  0.0485 -0.4071 -0.0883
 1494TIP3    H125973   6.437   0.812   3.683  0.1326  0.1900 -0.6238
 1494TIP3    H225974   6.316   0.899   3.661  0.8996  1.5026  0.2020
 1495TIP3   OH225975   1.583   3.440   0.419 -0.5298  0.6667 -1.0112
 1495TIP3    H125976   1.568   3.449   0.513 -0.2654 -0.6740 -0.8226
 1495TIP3    H225977   1.501   3.405   0.384 -0.9055  1.8948 -1.4314
 1496TIP3   OH225978   6.169   3.922   5.547 -0.4878  0.0117 -0.1078
 1496TIP3    H125979   6.111   3.994   5.524  0.2531  0.0883 -1.9297
 1496TIP3    H225980   6.151   3.855   5.481  1.4987  0.0686 -0.7663
 1497TIP3   OH225981   1.303   1.747   1.994 -0.0265 -0.2565  0.6141
 1497TIP3    H125982   1.363   1.706   2.057  4.1138  2.1639 -1.3655
 1497TIP3    H225983   1.264   1.820   2.042 -0.6790 -1.2096  1.6060
 1498TIP3   OH225984   1.046   3.387   4.028 -0.2805 -0.0525 -0.4715
 1498TIP3    H125985   0.987   3.417   4.097 -2.5667 -1.0142 -1.8915
 1498TIP3    H225986   1.083   3.467   3.991  0.1932  0.5207  1.1775
 1499TIP3   OH225987   0.716   4.560   6.102  0.2722 -0.0828 -0.1492
 1499TIP3    H125988   0.659   4.518   6.166  1.1259 -0.1646  0.5735
 1499TIP3    H225989   0.759   4.488   6.057 -1.0160 -0.0566 -1.4926
 1500TIP3   OH225990   0.033   1.303   4.566 -0.2628  0.4935  0.3978
 1500TIP3    H125991   0.047   1.227   4.622  1.1523  1.8768  2.0945
 1500TIP3    H225992   0.104   1.300   4.502 -2.4534 -1.6385 -2.1764
 1501TIP3   OH225993   5.807   2.117   1.981 -0.5732 -0.2575  1.0630
 1501TIP3    H125994   5.823   2.132   2.075  0.4039  3.1120  0.4743
 1501TIP3    H225995   5.724   2.161   1.964  0.6703  1.7221 -0.1488
 1502TIP3   OH225996   1.587   1.068   4.712  0.1700  0.4527  0.0815
 1502TIP3    H125997   1.632   1.037   4.633  0.0767  2.9191 -1.0400
 1502TIP3    H225998   1.578   0.990   4.767  1.1506 -1.1513 -1.8961
 1503TIP3   OH225999   5.470   1.384   1.847  0.2509  0.3284  0.2932
 1503TIP3    H126000   5.387   1.339   1.864  0.3112  0.4089  0.7946
 1503TIP3    H226001   5.447   1.453   1.785  0.5298 -1.7477 -2.2943
 1504TIP3   OH226002   3.369   3.182  11.961  0.2803  0.0539  0.3313
 1504TIP3    H126003   3.286   3.230  11.960 -0.5674 -1.2640  2.4022
 1504TIP3    H226004   3.350   3.100  11.915  1.1471  0.7032 -1.2924
 1505TIP3   OH226005   4.317   6.247  15.457  0.2701  0.4210 -0.2169
 1505TIP3    H126006   4.410   6.225  15.460 -0.1179 -1.9352 -2.2855
 1505TIP3    H226007   4.313   6.321  15.396  0.7567  0.4589 -0.2115
 1506TIP3   OH226008   3.982   2.854   4.335  0.1632 -0.1572  0.1330
 1506TIP3    H126009   3.998   2.813   4.251  0.6172 -1.7195  0.9459
 1506TIP3    H226010   3.980   2.782   4.398  0.4672  1.0125  1.5614
 1507TIP3   OH226011   2.299   5.704  13.993 -0.2148  0.1719 -0.3471
 1507TIP3    H126012   2.381   5.717  13.944 -0.5319 -0.8547 -1.1723
 1507TIP3    H226013   2.233   5.687  13.926 -0.4476 -2.4196  0.4317
 1508TIP3   OH226014   1.557   4.490   1.930 -0.2373 -0.5423  0.0474
 1508TIP3    H126015   1.544   4.397   1.948 -0.8785 -0.5791 -0.5549
 1508TIP3    H226016   1.508   4.535   1.998 -0.6322 -0.6578 -0.1549
 1509TIP3   OH226017   3.862   3.040  12.980 -0.1089  0.5259 -0.2913
 1509TIP3    H126018   3.908   3.091  12.913  0.4899  0.4916  0.0896
 1509TIP3    H226019   3.783   3.090  12.999  0.7490  1.6305  0.5031
 1510TIP3   OH226020   4.518   5.868   5.545 -0.7749 -0.1942 -0.0614
 1510TIP3    H126021   4.507   5.963   5.547 -1.0520 -0.2144 -0.4740
 1510TIP3    H226022   4.510   5.841   5.637 -2.9583 -0.0634 -0.1626
 1511TIP3   OH226023   0.096   2.442  15.172 -0.0866 -0.7792  0.0870
 1511TIP3    H126024   0.061   2.440  15.261 -0.7704  1.1208 -0.1036
 1511TIP3    H226025   0.032   2.392  15.120  0.2230 -1.7387  0.5937
 1512TIP3   OH226026   3.612   4.265   2.147 -0.3303 -0.4517 -0.0310
 1512TIP3    H126027   3.533   4.298   2.190  0.0066  0.2731  0.0416
 1512TIP3    H226028   3.617   4.173   2.173 -0.9291 -0.3947  0.2941
 1513TIP3   OH226029   3.669   2.098  11.100 -0.2948  0.8821 -0.6299
 1513TIP3    H126030   3.724   2.038  11.151 -0.5242  0.2375 -1.1270
 1513TIP3    H226031   3.602   2.041  11.062 -0.9670  1.5703 -0.4959
 1514TIP3   OH226032   2.363   5.457  13.742 -0.4438  0.1557  0.4690
 1514TIP3    H126033   2.275   5.476  13.774 -0.5916 -0.0823  0.2143
 1514TIP3    H226034   2.404   5.408  13.814 -0.5150  0.2761  0.5924
 1515TIP3   OH226035   4.843   4.071   2.494  0.9302 -0.0707 -0.6759
 1515TIP3    H126036   4.809   4.059   2.406  1.7071  1.3229 -1.2045
 1515TIP3    H226037   4.784   4.135   2.534  0.4662 -0.8425 -0.1023
 1516TIP3   OH226038   4.158   3.348   1.677 -0.3620  0.5978 -0.6064
 1516TIP3    H126039   4.178   3.264   1.636  1.2735  0.5769  0.1544
 1516TIP3    H226040   4.235   3.368   1.730 -0.8225  2.4595 -0.5646
 1517TIP3   OH226041   1.010   6.387  16.718  0.2694 -0.3514 -0.2960
 1517TIP3    H126042   0.962   6.364  16.638  1.1238  1.6184 -1.4448
 1517TIP3    H226043   1.083   6.439  16.688  2.1998 -1.7995  1.5874
 1518TIP3   OH226044   4.190   4.852   2.341  0.2558 -0.4118 -0.1529
 1518TIP3    H126045   4.274   4.892   2.321  0.3402 -0.5472 -0.0746
 1518TIP3    H226046   4.202   4.759   2.320  0.4296 -0.6085  0.7795
 1519TIP3   OH226047   3.476   6.706  16.317  0.2674 -0.8537 -0.8161
 1519TIP3    H126048   3.553   6.750  16.354 -0.9067  1.1459 -0.6004
 1519TIP3    H226049   3.455   6.637  16.379  0.4262  0.2047  0.4640
 1520TIP3   OH226050   3.258   6.164   3.389 -0.5532  0.1966 -0.2476
 1520TIP3    H126051   3.285   6.073   3.393 -2.3712 -0.3621  0.5273
 1520TIP3    H226052   3.205   6.169   3.309  1.7651  1.3006 -1.8371
 1521TIP3   OH226053   1.801   0.668   2.506  0.0985  0.2331  0.1777
 1521TIP3    H126054   1.758   0.750   2.532 -0.0232  0.2583 -0.1022
 1521TIP3    H226055   1.828   0.628   2.589  0.2472  0.6047  0.3119
 1522TIP3   OH226056   3.300   1.317  14.751  0.3788 -0.0785  0.3355
 1522TIP3    H126057   3.224   1.333  14.808 -0.9703 -1.0804 -1.0625
 1522TIP3    H226058   3.272   1.244  14.696  3.0539 -1.6815  0.9242
 1523TIP3   OH226059   2.704   1.325  13.968  0.3496 -0.0388  0.0871
 1523TIP3    H126060   2.635   1.390  13.961  1.2786  1.0793  0.8834
 1523TIP3    H226061   2.776   1.371  14.012  1.7256 -1.0462 -0.9860
 1524TIP3   OH226062   4.214   3.204   5.127 -0.3978  0.1829  0.2321
 1524TIP3    H126063   4.137   3.146   5.134 -0.9756  1.0200  0.9839
 1524TIP3    H226064   4.275   3.170   5.192  0.1183 -0.8147 -0.7318
 1525TIP3   OH226065   1.921   0.095   0.668  0.3848  0.5236  0.3371
 1525TIP3    H126066   1.933   0.031   0.739  0.5060  1.9962  1.7046
 1525TIP3    H226067   1.883   0.044   0.597  0.7134 -1.1251  1.2739
 1526TIP3   OH226068   4.917   5.449   3.990  0.3730  0.1368  1.0751
 1526TIP3    H126069   4.926   5.526   4.046  1.6340 -0.9090  2.3926
 1526TIP3    H226070   4.923   5.375   4.050  3.2039 -1.1083 -0.5588
 1527TIP3   OH226071   6.818   0.839  12.232  0.1344 -0.3288  0.1568
 1527TIP3    H126072   6.795   0.747  12.240 -0.7389 -0.1256  0.1302
 1527TIP3    H226073   6.764   0.871  12.160  1.1702 -0.0250 -0.5125
 1528TIP3   OH226074   6.364   1.824   0.002 -0.4012 -0.6573  0.2655
 1528TIP3    H126075   6.326   1.736   0.011 -2.4219 -0.1120 -1.9555
 1528TIP3    H226076   6.459   1.809   0.002 -0.6542 -2.6316  1.3933
 1529TIP3   OH226077   2.560   0.067  16.524 -0.4301  0.5387 -0.1615
 1529TIP3    H126078   2.541   0.041  16.433 -0.5166  0.5608 -0.1503
 1529TIP3    H226079   2.474   0.064  16.567 -0.1526 -1.1681  0.3513
 1530TIP3   OH226080   6.306   4.650  16.116 -0.4235  0.5650 -0.3480
 1530TIP3    H126081   6.365   4.698  16.057 -1.5230  0.8946 -1.2173
 1530TIP3    H226082   6.333   4.559  16.107 -0.6518  0.5910 -1.4838
 1531TIP3   OH226083   5.882   6.695   5.346 -0.2044 -0.8418  0.5129
 1531TIP3    H126084   5.815   6.628   5.332 -1.3042 -0.0224  1.5878
 1531TIP3    H226085   5.843   6.775   5.313  0.3981 -0.4141  0.8083
 1532TIP3   OH226086   1.659   5.589  14.713 -0.0599  0.3700 -0.3547
 1532TIP3    H126087   1.632   5.673  14.751  0.6908  0.4907 -0.0851
 1532TIP3    H226088   1.753   5.598  14.699 -0.3165  0.4015 -2.4395
 1533TIP3   OH226089   1.376   6.231   5.847  0.7309  0.3860  0.0352
 1533TIP3    H126090   1.445   6.171   5.875  0.9832  0.1174 -1.1448
 1533TIP3    H226091   1.415   6.282   5.777 -0.5840 -0.4898 -1.3818
 1534TIP3   OH226092   3.155   3.341  14.805 -0.1470 -0.2144  0.0086
 1534TIP3    H126093   3.147   3.432  14.833  0.1110  0.4185 -1.8605
 1534TIP3    H226094   3.202   3.345  14.723 -3.8341 -1.5970 -2.4310
 1535TIP3   OH226095   4.476   3.244  13.499  0.2342 -0.0582 -0.7886
 1535TIP3    H126096   4.418   3.266  13.426 -0.7249  0.1421  0.0077
 1535TIP3    H226097   4.447   3.300  13.571  2.7524  1.5615 -0.9073
 1536TIP3   OH226098   4.085   3.636  15.204  0.4749 -0.2377  0.1183
 1536TIP3    H126099   4.063   3.728  15.194  1.5062 -0.2265 -2.6724
 1536TIP3    H226100   4.082   3.621  15.299  2.0832  3.0835  0.8114
 1537TIP3   OH226101   6.778   0.179   0.086  0.5319  0.1737 -0.5936
 1537TIP3    H126102   6.726   0.237   0.142  0.2690 -0.2938 -0.3395
 1537TIP3    H226103   6.766   0.092   0.125  2.3653  0.1976  0.0987
 1538TIP3   OH226104   4.440   3.288  16.338  0.4087  0.2498  0.3634
 1538TIP3    H126105   4.372   3.354  16.353 -0.4050 -0.6989  0.9323
 1538TIP3    H226106   4.461   3.298  16.245  0.1963  1.2108  0.4044
 1539TIP3   OH226107   0.719   5.714  14.677 -0.7845 -0.1744 -0.2164
 1539TIP3    H126108   0.772   5.703  14.756 -0.8968 -0.8615 -0.2329
 1539TIP3    H226109   0.748   5.798  14.641 -0.7680  0.1795  0.5756
 1540TIP3   OH226110   5.351   2.686   0.319  0.2564 -0.3515 -0.0213
 1540TIP3    H126111   5.419   2.677   0.251  0.1298 -1.5479 -0.0217
 1540TIP3    H226112   5.312   2.599   0.324 -1.5386  0.4035 -0.2733
 1541TIP3   OH226113   2.271   6.532  13.959  0.2839 -0.2609 -0.0835
 1541TIP3    H126114   2.287   6.568  14.046  0.2178 -0.0390 -0.1610
 1541TIP3    H226115   2.341   6.571  13.905  0.0984 -0.0964 -0.2070
 1542TIP3   OH226116   4.105   5.832  13.981  0.1450  0.7134 -0.0262
 1542TIP3    H126117   4.043   5.832  13.908  1.3841  1.6280 -1.1255
 1542TIP3    H226118   4.121   5.925  13.999  0.9191  0.4948  0.4789
 1543TIP3   OH226119   2.748   5.587   4.015 -0.0246  0.3200 -0.1176
 1543TIP3    H126120   2.786   5.502   4.037 -1.6396 -0.3932  0.0495
 1543TIP3    H226121   2.714   5.620   4.098  0.2048  0.9237 -0.2616
 1544TIP3   OH226122   1.596   1.392  15.266  0.0200  0.2491 -0.2028
 1544TIP3    H126123   1.596   1.311  15.215 -0.5546  1.4905 -2.3095
 1544TIP3    H226124   1.688   1.413  15.278  0.1933 -0.9475  0.8470
 1545TIP3   OH226125   6.098   4.067   4.969  0.3678  0.2088  0.1845
 1545TIP3    H126126   6.187   4.072   4.935  0.2509 -0.8112 -0.2847
 1545TIP3    H226127   6.060   4.153   4.949  0.0961 -0.5305 -2.8736
 1546TIP3   OH226128   1.551   6.134  11.451 -0.1015 -0.2594 -0.3907
 1546TIP3    H126129   1.468   6.087  11.446 -1.5660  2.0227  0.5531
 1546TIP3    H226130   1.587   6.111  11.536 -0.5089 -0.1692 -0.1912
 1547TIP3   OH226131   1.377   0.437   1.954 -0.4119 -0.3331  0.0029
 1547TIP3    H126132   1.376   0.343   1.975  1.9131 -0.5918 -0.7603
 1547TIP3    H226133   1.376   0.481   2.039  1.1988 -1.1653  0.5022
 1548TIP3   OH226134   3.016   1.453  11.205 -0.9016 -0.5448  0.1659
 1548TIP3    H126135   2.971   1.372  11.181 -1.8079  0.3588 -1.3577
 1548TIP3    H226136   3.100   1.447  11.159 -0.8716 -0.7205  0.2420
 1549TIP3   OH226137   0.062   5.363   2.755  0.3761  0.3896 -0.6996
 1549TIP3    H126138   0.114   5.380   2.834  1.8797 -1.2794 -1.2665
 1549TIP3    H226139   0.067   5.444   2.705 -2.6239  2.4340  1.8595
 1550TIP3   OH226140   1.029   6.205  14.920 -0.0108  0.0026  0.4914
 1550TIP3    H126141   0.996   6.228  14.833 -2.7061 -0.6189  1.2719
 1550TIP3    H226142   1.088   6.277  14.943 -0.8330  1.2198 -0.9991
 1551TIP3   OH226143   0.381   6.438   4.973  0.2799  0.4451  0.1818
 1551TIP3    H126144   0.353   6.412   4.885 -1.0654  0.5530  0.5518
 1551TIP3    H226145   0.353   6.367   5.030  0.2098  0.8462  0.6586
 1552TIP3   OH226146   2.538   4.203  16.124 -0.1196  0.4323 -0.2961
 1552TIP3    H126147   2.593   4.200  16.202  0.1197  0.4866 -0.4588
 1552TIP3    H226148   2.593   4.165  16.055  1.1718  3.7618 -1.3185
 1553TIP3   OH226149   2.844   5.493   5.836 -0.1937 -0.4151 -0.4155
 1553TIP3    H126150   2.865   5.533   5.920  0.9201 -1.9087  0.0667
 1553TIP3    H226151   2.768   5.438   5.854 -1.0859  0.6499 -0.8356
 1554TIP3   OH226152   6.103   1.857  14.761 -0.6991  0.1314  0.3637
 1554TIP3    H126153   6.107   1.762  14.775 -0.4559 -0.2815 -2.0601
 1554TIP3    H226154   6.014   1.873  14.730  0.3630 -0.0979 -3.3791
 1555TIP3   OH226155   5.260   5.774   4.588 -0.8070 -0.2248  0.2746
 1555TIP3    H126156   5.186   5.713   4.592  0.6753 -2.4427 -2.6722
 1555TIP3    H226157   5.335   5.723   4.617 -0.2379  1.9029  2.9236
 1556TIP3   OH226158   2.406   1.572  13.079 -0.0278 -0.5136 -0.3083
 1556TIP3    H126159   2.339   1.516  13.039 -0.6701  0.2769 -0.3713
 1556TIP3    H226160   2.412   1.541  13.169 -0.4943 -0.5793 -0.2973
 1557TIP3   OH226161   5.806   5.555  15.217  0.5056  0.0139 -0.1237
 1557TIP3    H126162   5.810   5.545  15.122  1.1917  2.1439 -0.3772
 1557TIP3    H226163   5.719   5.525  15.241  1.1011 -2.8239 -1.0530
 1558TIP3   OH226164   4.316   4.600  15.778 -0.2807 -0.8428 -0.5480
 1558TIP3    H126165   4.286   4.586  15.868  0.6923 -1.1268 -0.2545
 1558TIP3    H226166   4.383   4.534  15.765  1.8036  1.1133 -0.4105
 1559TIP3   OH226167   0.983   1.090  13.372 -0.1318 -0.4389 -0.4657
 1559TIP3    H126168   0.985   1.185  13.378  0.1158 -0.4863  0.3322
 1559TIP3    H226169   0.890   1.068  13.378 -0.4878 -0.1143 -3.4823
 1560TIP3   OH226170   4.275   6.633  12.256  0.0104  0.4222 -0.2175
 1560TIP3    H126171   4.200   6.583  12.224 -0.4867  1.7815 -1.2889
 1560TIP3    H226172   4.237   6.697  12.316  0.7703 -1.1318  2.0386
 1561TIP3   OH226173   0.801   5.174   5.497 -0.3119 -0.5124 -0.6156
 1561TIP3    H126174   0.852   5.102   5.459 -0.9629  0.1348 -2.8838
 1561TIP3    H226175   0.797   5.154   5.590  0.6435 -2.7177 -0.9862
 1562TIP3   OH226176   4.293   1.733  16.344 -0.1088  0.6398 -0.6143
 1562TIP3    H126177   4.389   1.729  16.343 -0.0525  1.4041  0.2025
 1562TIP3    H226178   4.273   1.817  16.302 -0.3649  0.9338  0.0735
 1563TIP3   OH226179   0.534   5.134   4.102  0.1617 -0.0268 -0.1241
 1563TIP3    H126180   0.540   5.221   4.140  1.4457 -0.6251  1.1320
 1563TIP3    H226181   0.547   5.148   4.008 -1.4513  1.2929 -0.2110
 1564TIP3   OH226182   1.971   6.780  15.586  0.0860 -0.1028 -0.1262
 1564TIP3    H126183   1.907   6.714  15.613  2.0287 -2.0543 -0.0077
 1564TIP3    H226184   2.034   6.783  15.658  0.0620  1.9309 -0.1402
 1565TIP3   OH226185   6.565   6.490   1.645  0.0900 -0.0839 -0.6113
 1565TIP3    H126186   6.570   6.570   1.697  0.5128  0.4688 -1.4785
 1565TIP3    H226187   6.484   6.447   1.674  0.9175 -0.4255  1.3692
 1566TIP3   OH226188   5.467   3.890  12.384  0.1850  0.2644  0.1451
 1566TIP3    H126189   5.391   3.877  12.327  0.4927 -0.1079 -0.1812
 1566TIP3    H226190   5.527   3.820  12.360  0.4582  0.3032  0.6953
 1567TIP3   OH226191   2.522   4.912  13.362  0.1546  0.1611 -0.2297
 1567TIP3    H126192   2.613   4.916  13.332 -0.4492  0.9852 -2.0533
 1567TIP3    H226193   2.527   4.863  13.445  1.9603 -1.8417 -1.4127
 1568TIP3   OH226194   3.817   2.509   5.923 -0.2883 -0.1092 -0.6212
 1568TIP3    H126195   3.886   2.533   5.984 -1.1217 -0.9560  0.7157
 1568TIP3    H226196   3.817   2.413   5.922 -2.1286 -0.1759  0.2996
 1569TIP3   OH226197   5.974   1.516   3.526 -0.3744 -0.0452  0.4984
 1569TIP3    H126198   5.997   1.489   3.615  0.6291 -0.2641  0.1822
 1569TIP3    H226199   6.055   1.552   3.490 -0.9702  0.7754 -0.0653
 1570TIP3   OH226200   2.960   3.473  11.019  0.7167  0.1075  0.2693
 1570TIP3    H126201   2.894   3.541  11.033 -0.2339 -0.4474 -1.2644
 1570TIP3    H226202   2.972   3.471  10.924  1.2978 -1.3562  0.3472
 1571TIP3   OH226203   5.161   6.341  13.537  0.1086  0.6420 -0.1456
 1571TIP3    H126204   5.227   6.406  13.513 -0.2887  1.0905 -0.0408
 1571TIP3    H226205   5.191   6.306  13.621  2.1901 -1.8520 -1.7711
 1572TIP3   OH226206   1.750   5.438  15.962  0.8765  0.2685 -0.0860
 1572TIP3    H126207   1.811   5.438  16.036 -0.2162  1.5944  0.8560
 1572TIP3    H226208   1.672   5.392  15.995  1.1046 -0.8979 -1.0896
 1573TIP3   OH226209   2.291   0.032   1.964  0.2448 -0.4622  0.0335
 1573TIP3    H126210   2.330   0.075   2.041  1.3937 -0.0637 -0.7398
 1573TIP3    H226211   2.200   0.062   1.963 -0.2793 -1.7955  2.1679
 1574TIP3   OH226212   4.073   1.666  14.134 -0.1441 -0.4604 -0.5626
 1574TIP3    H126213   3.990   1.629  14.103 -0.5538  0.0659 -0.1214
 1574TIP3    H226214   4.105   1.719  14.061  1.5744 -3.3691 -2.0643
 1575TIP3   OH226215   3.416   1.779   5.991 -0.1848 -0.4436  0.5182
 1575TIP3    H126216   3.487   1.813   6.045 -0.2212 -2.3269  1.8749
 1575TIP3    H226217   3.350   1.848   5.993  1.0422  0.7814  0.3484
 1576TIP3   OH226218   2.555   1.328  11.990  0.2811  0.4881  0.9165
 1576TIP3    H126219   2.515   1.259  11.936 -0.1652 -0.1895  2.0691
 1576TIP3    H226220   2.644   1.297  12.007  0.3186  0.5497  0.8336
 1577TIP3   OH226221   3.036   3.179  11.680  0.0278 -0.3630  0.3668
 1577TIP3    H126222   3.052   3.250  11.618 -0.6247 -0.0356  0.5629
 1577TIP3    H226223   3.050   3.099  11.629  0.4340 -0.1002  0.0553
 1578TIP3   OH226224   3.178   2.738  13.236 -0.2386  0.0572 -0.1834
 1578TIP3    H126225   3.153   2.731  13.328 -0.8316  2.0144 -0.1681
 1578TIP3    H226226   3.269   2.707  13.234 -0.2894 -0.2334  1.0038
 1579TIP3   OH226227   4.414   4.963   0.887  0.2101  0.0026 -0.1980
 1579TIP3    H126228   4.502   4.969   0.850  0.1066  0.9171 -0.3005
 1579TIP3    H226229   4.356   4.993   0.817 -0.2518 -1.1917 -0.3548
 1580TIP3   OH226230   3.888   0.505   0.955  0.3677  0.5208 -0.0774
 1580TIP3    H126231   3.841   0.534   1.034 -0.0747 -0.9740  0.2387
 1580TIP3    H226232   3.944   0.433   0.985  1.3358  0.9268 -0.8540
 1581TIP3   OH226233   2.159   0.953  15.595  0.1129  0.5626  0.2370
 1581TIP3    H126234   2.070   0.926  15.618  1.0875 -2.5810  0.7872
 1581TIP3    H226235   2.176   1.030  15.649 -1.5239 -0.0565  1.7121
 1582TIP3   OH226236   0.782   6.077   4.678  0.2471 -0.4685  0.5137
 1582TIP3    H126237   0.855   6.114   4.728  0.4602 -1.1150  0.6799
 1582TIP3    H226238   0.709   6.136   4.697  0.9580  0.7888 -0.4626
 1583TIP3   OH226239   4.382   4.664  14.579 -0.3710 -0.0354  0.0285
 1583TIP3    H126240   4.450   4.732  14.569 -1.0143  1.3700  3.6885
 1583TIP3    H226241   4.426   4.593  14.627 -0.7308 -0.4348 -0.2300
 1584TIP3   OH226242   3.028   2.529  15.110  0.3945  0.2436 -0.2256
 1584TIP3    H126243   3.020   2.514  15.016  0.2178  1.7002 -0.4666
 1584TIP3    H226244   2.939   2.543  15.140  0.3377 -1.1929  0.3666
 1585TIP3   OH226245   5.967   2.377  16.444 -0.1092 -0.5501 -0.2709
 1585TIP3    H126246   5.992   2.430  16.520 -0.4872 -0.0131 -0.5182
 1585TIP3    H226247   5.873   2.393  16.433  0.0376 -0.2253 -1.1475
 1586TIP3   OH226248   0.535   0.391   0.450 -0.0459  0.2927 -0.4014
 1586TIP3    H126249   0.454   0.341   0.460  0.7927 -0.7962  1.6895
 1586TIP3    H226250   0.534   0.452   0.524  1.5688 -0.5793  0.3797
 1587TIP3   OH226251   4.094   4.356   1.499  0.1750 -0.4216 -0.6108
 1587TIP3    H126252   4.159   4.288   1.509  1.7717  0.9622 -1.1241
 1587TIP3    H226253   4.064   4.374   1.588  1.2336 -0.3986 -0.2508
 1588TIP3   OH226254   6.727   4.756  15.743 -0.2332  0.1395  0.1166
 1588TIP3    H126255   6.785   4.694  15.786  0.6097  1.5834  1.1332
 1588TIP3    H226256   6.707   4.715  15.658  1.7248 -0.7019  0.0120
 1589TIP3   OH226257   3.750   6.505   5.410  0.2015 -0.4544 -0.1154
 1589TIP3    H126258   3.833   6.471   5.443  0.3332 -1.7900 -1.6844
 1589TIP3    H226259   3.687   6.433   5.423 -0.9040  0.7580  1.6323
 1590TIP3   OH226260   5.755   4.698   4.438 -0.8638  0.0964 -0.2615
 1590TIP3    H126261   5.795   4.664   4.358 -0.2521  1.2084 -0.4523
 1590TIP3    H226262   5.824   4.692   4.504 -1.0087  0.2037 -0.0997
 1591TIP3   OH226263   3.613   1.631  15.967  0.2881  0.3353 -0.0379
 1591TIP3    H126264   3.597   1.637  15.873 -0.1668 -0.8473 -0.0538
 1591TIP3    H226265   3.526   1.616  16.005  0.5783 -0.0669  0.4799
 1592TIP3   OH226266   3.180   1.235   2.403  0.2968  0.3964  0.0987
 1592TIP3    H126267   3.167   1.143   2.382 -0.0931  0.0757  1.5909
 1592TIP3    H226268   3.245   1.235   2.473  1.4490  1.3837 -0.9207
 1593TIP3   OH226269   2.007   1.985   2.784 -0.2848 -0.2636 -0.7922
 1593TIP3    H126270   2.070   1.920   2.754 -0.8590  0.2648 -3.4393
 1593TIP3    H226271   2.060   2.052   2.828  0.4463 -1.8340  0.7965
 1594TIP3   OH226272   5.047   4.298   4.529  0.2643  0.0164  0.1132
 1594TIP3    H126273   5.119   4.321   4.471  0.8303 -0.3517  0.6538
 1594TIP3    H226274   5.049   4.364   4.598  0.7672 -0.5910  0.7000
 1595TIP3   OH226275   5.326   1.012   3.115  0.0362 -0.2725  0.0349
 1595TIP3    H126276   5.314   0.974   3.028 -0.7662  0.5145 -0.2200
 1595TIP3    H226277   5.341   1.105   3.098  0.7909 -0.2661  0.6955
 1596TIP3   OH226278   1.550   2.263  15.582 -0.2197  0.1247  0.1867
 1596TIP3    H126279   1.529   2.248  15.490  0.7709  0.4376 -0.1107
 1596TIP3    H226280   1.483   2.323  15.613 -2.0605 -1.9171  0.3851
 1597TIP3   OH226281   5.996   0.939  10.473 -0.2968 -0.1220 -0.0154
 1597TIP3    H126282   5.974   0.973  10.386 -0.7572  0.4702  0.3271
 1597TIP3    H226283   5.936   0.984  10.533 -0.2013 -0.7587  0.5775
 1598TIP3   OH226284   4.697   5.987  14.934 -0.7610  0.6184 -0.1484
 1598TIP3    H126285   4.650   5.994  14.851 -1.5712  1.5343  0.3780
 1598TIP3    H226286   4.736   6.074  14.947  2.9339 -0.5969 -1.5941
 1599TIP3   OH226287   0.183   4.388   4.545  0.0394 -0.7768 -0.6604
 1599TIP3    H126288   0.154   4.442   4.619  0.3545 -0.1925 -0.9580
 1599TIP3    H226289   0.105   4.340   4.519  0.5163 -3.2417  1.8888
 1600TIP3   OH226290   4.977   0.448  15.833 -0.0338 -0.0539 -0.3235
 1600TIP3    H126291   4.918   0.510  15.788  0.4176  1.0172  0.5143
 1600TIP3    H226292   4.969   0.471  15.926 -0.2177 -1.5930  0.0744
 1601TIP3   OH226293   2.735   1.598  17.049 -0.4684 -0.1373 -0.9886
 1601TIP3    H126294   2.785   1.658  17.104  0.1072  0.6350 -2.2907
 1601TIP3    H226295   2.654   1.646  17.029 -0.8028 -0.5293 -0.5810
 1602TIP3   OH226296   4.267   6.453  13.303 -0.1893 -0.7633  0.1066
 1602TIP3    H126297   4.322   6.450  13.225 -0.6059  1.9962 -0.4046
 1602TIP3    H226298   4.327   6.481  13.373 -0.1792 -1.5105  0.4024
 1603TIP3   OH226299   2.102   6.284   3.046  0.0660  0.2400  0.1340
 1603TIP3    H126300   2.122   6.260   3.137  0.5027 -2.5189 -0.6038
 1603TIP3    H226301   2.115   6.379   3.044 -1.4929  0.6737  3.2975
 1604TIP3   OH226302   1.970   0.734  13.893  0.1034 -0.2968 -0.2407
 1604TIP3    H126303   2.038   0.800  13.884 -0.2850  0.0789 -0.5080
 1604TIP3    H226304   1.979   0.701  13.982 -1.5823  2.2586  1.0039
 1605TIP3   OH226305   6.435   5.191  12.767 -0.2710  0.1381  0.1299
 1605TIP3    H126306   6.385   5.253  12.820 -1.0341  1.0720 -1.6198
 1605TIP3    H226307   6.497   5.246  12.718 -0.2221 -0.5956 -0.6452
 1606TIP3   OH226308   5.369   4.127   5.001  0.0026  0.1816 -0.9771
 1606TIP3    H126309   5.402   4.045   4.964 -0.1867 -0.4784  0.2601
 1606TIP3    H226310   5.276   4.110   5.017  0.0055  0.5690 -0.5366
 1607TIP3   OH226311   1.585   4.411   5.756  0.1872  0.3618 -0.4197
 1607TIP3    H126312   1.539   4.402   5.672 -0.4341  1.1630 -0.1746
 1607TIP3    H226313   1.644   4.336   5.758 -0.8415 -0.4987 -0.9099
 1608TIP3   OH226314   5.083   2.034  15.855  0.0138 -0.5185  0.1502
 1608TIP3    H126315   5.092   2.030  15.760  1.7312  0.2115  0.2544
 1608TIP3    H226316   5.141   1.966  15.888 -1.0643 -1.2085  0.6809
 1609TIP3   OH226317   1.260   4.603   0.904  0.4893  0.0482 -0.2316
 1609TIP3    H126318   1.239   4.694   0.885 -2.7087 -0.1441  1.6232
 1609TIP3    H226319   1.269   4.601   1.000 -1.8334 -1.8941  0.0310
 1610TIP3   OH226320   5.370   3.441   2.810  0.3805  0.0180  0.3812
 1610TIP3    H126321   5.391   3.504   2.879  0.5807  0.8226 -0.4042
 1610TIP3    H226322   5.372   3.356   2.854 -1.7425  0.6606  1.9157
 1611TIP3   OH226323   2.094   1.612   1.876 -0.2192  0.2560 -0.4576
 1611TIP3    H126324   2.081   1.518   1.883 -1.2631  0.4112 -0.0139
 1611TIP3    H226325   2.007   1.646   1.854  0.1603  1.1052 -0.6849
 1612TIP3   OH226326   1.948   4.415   5.606  0.0318 -0.4080 -0.4794
 1612TIP3    H126327   1.932   4.486   5.668  1.4147 -0.5861  0.1066
 1612TIP3    H226328   1.885   4.347   5.631 -0.6173  0.2025 -0.4100
 1613TIP3   OH226329   6.271   3.132  15.838 -0.5006 -0.1582  0.6961
 1613TIP3    H126330   6.319   3.067  15.890  0.2807  0.0160  0.2128
 1613TIP3    H226331   6.326   3.210  15.842  0.0378 -0.4142 -1.1398
 1614TIP3   OH226332   3.103   4.039  15.351  0.2080 -0.4693  1.0241
 1614TIP3    H126333   3.125   3.976  15.282 -0.6813 -1.4591  1.6182
 1614TIP3    H226334   3.009   4.027  15.365  0.2370  0.2317  1.9055
 1615TIP3   OH226335   0.830   3.173  15.298  0.3857 -1.0563  0.4276
 1615TIP3    H126336   0.851   3.266  15.294 -1.6011 -0.5850 -0.0392
 1615TIP3    H226337   0.865   3.138  15.216  2.3969 -1.0546  1.2294
 1616TIP3   OH226338   4.399   3.265   5.925  0.3241 -0.4289 -0.5103
 1616TIP3    H126339   4.472   3.281   5.864  1.2151 -0.2037  0.5775
 1616TIP3    H226340   4.327   3.318   5.890  1.9405  2.8738  0.6841
 1617TIP3   OH226341   2.564   2.233   2.355  0.5322 -0.3412  0.2975
 1617TIP3    H126342   2.640   2.257   2.302  1.3496  0.5999  1.8221
 1617TIP3    H226343   2.493   2.287   2.320  0.1659 -2.0789 -1.9309
 1618TIP3   OH226344   0.697   2.055  16.139  0.0608  0.3928 -0.0661
 1618TIP3    H126345   0.757   2.012  16.201  1.0851  0.7196 -0.8088
 1618TIP3    H226346   0.672   1.986  16.078  0.0304  0.3611 -0.0182
 1619TIP3   OH226347   4.570   1.786   1.598 -0.7988  0.1674 -0.2255
 1619TIP3    H126348   4.630   1.721   1.561 -1.2120  0.5187 -1.5837
 1619TIP3    H226349   4.613   1.870   1.581 -1.2839  0.3707 -0.4814
 1620TIP3   OH226350   0.428   4.956  12.179 -0.1332 -0.4683 -0.1263
 1620TIP3    H126351   0.406   5.032  12.233 -1.1519 -0.8556  0.0188
 1620TIP3    H226352   0.438   4.991  12.091 -1.6153 -0.3061 -0.2457
 1621TIP3   OH226353   2.758   5.840   3.885 -0.1745 -0.1029 -0.0933
 1621TIP3    H126354   2.733   5.752   3.913  0.2894 -0.2707 -0.1905
 1621TIP3    H226355   2.828   5.865   3.945  0.8888 -0.5011 -1.1144
 1622TIP3   OH226356   0.197   1.793  12.383 -0.2851 -0.3740  0.1674
 1622TIP3    H126357   0.128   1.845  12.342  0.5850 -0.0909 -0.9880
 1622TIP3    H226358   0.277   1.844  12.368  0.3613 -1.3084  0.3493
 1623TIP3   OH226359   3.266   5.909   0.734  0.2568 -0.1246  0.2700
 1623TIP3    H126360   3.285   6.000   0.709 -1.3885 -0.1929 -1.4513
 1623TIP3    H226361   3.196   5.916   0.798  0.6623 -0.1560  0.7184
 1624TIP3   OH226362   5.101   1.333  11.608 -0.1638 -0.0745  0.3556
 1624TIP3    H126363   5.129   1.262  11.666 -1.2103 -1.8615 -1.1880
 1624TIP3    H226364   5.031   1.294  11.555  0.4901  1.5500 -1.8491
 1625TIP3   OH226365   3.506   5.218  15.485  0.0975  0.2191  0.0076
 1625TIP3    H126366   3.526   5.190  15.396  0.5078 -0.1933  0.2273
 1625TIP3    H226367   3.572   5.176  15.540 -1.6544 -1.6529  0.8196
 1626TIP3   OH226368   2.868   5.946   5.850 -0.7284  0.5053 -0.2762
 1626TIP3    H126369   2.960   5.917   5.846 -0.9566 -0.6997  1.9561
 1626TIP3    H226370   2.869   6.020   5.912 -1.3431  0.1248  0.1924
 1627TIP3   OH226371   2.438   5.082   5.505 -0.2494  0.6539 -0.2641
 1627TIP3    H126372   2.455   4.991   5.479  0.7832  0.2744  1.5937
 1627TIP3    H226373   2.344   5.095   5.487 -0.4456 -0.8147 -0.4165
 1628TIP3   OH226374   5.460   5.455   3.357 -0.0651  0.0833 -0.0279
 1628TIP3    H126375   5.516   5.500   3.293 -0.7269 -0.3375 -0.9315
 1628TIP3    H226376   5.481   5.496   3.441  1.4828  0.0237 -0.3661
 1629TIP3   OH226377   2.342   6.439  14.285 -0.2241 -0.3382  0.1956
 1629TIP3    H126378   2.328   6.427  14.378 -0.1978  1.5758  0.4808
 1629TIP3    H226379   2.312   6.357  14.245  1.5587 -1.9876  1.9959
 1630TIP3   OH226380   2.497   1.561  13.326 -0.0177  0.2475 -0.1675
 1630TIP3    H126381   2.493   1.510  13.407  0.4358 -0.5264 -0.6183
 1630TIP3    H226382   2.530   1.647  13.354  1.0116 -0.2898  0.3521
 1631TIP3   OH226383   1.088   4.404   4.674  0.2176  0.1683 -0.2369
 1631TIP3    H126384   1.096   4.309   4.681 -0.5038  0.0599 -0.7770
 1631TIP3    H226385   1.143   4.427   4.599  1.3343  0.3338  0.6051
 1632TIP3   OH226386   3.684   1.832  15.022 -0.3922  0.3656 -0.2488
 1632TIP3    H126387   3.643   1.787  14.949 -1.5802  1.4896 -0.3262
 1632TIP3    H226388   3.628   1.811  15.097 -1.1619  1.8894 -0.3470
 1633TIP3   OH226389   1.414   4.498  10.419  0.1188 -0.3095 -0.2247
 1633TIP3    H126390   1.485   4.435  10.431  0.8968  0.6563  0.4201
 1633TIP3    H226391   1.414   4.518  10.325  1.1982  0.2371 -0.1187
 1634TIP3   OH226392   3.266   4.881   2.947  0.0709  0.5694  0.2568
 1634TIP3    H126393   3.302   4.798   2.976  0.7883 -0.2832 -2.7591
 1634TIP3    H226394   3.172   4.866   2.942  0.1629  0.0498  0.0435
 1635TIP3   OH226395   3.143   1.085  14.974 -0.6457  0.5774 -0.0405
 1635TIP3    H126396   3.159   1.050  14.887  1.0639  0.0870  0.4124
 1635TIP3    H226397   3.056   1.054  14.998 -1.1433  0.7469 -1.5687
 1636TIP3   OH226398   3.939   0.960  13.312  0.0419  0.2881 -0.1030
 1636TIP3    H126399   3.930   0.875  13.354 -1.4400  1.4906  2.2951
 1636TIP3    H226400   3.872   0.960  13.244  0.8251 -0.8282 -0.9114
 1637TIP3   OH226401   3.143   2.992   0.095 -0.6171 -0.0808  0.4963
 1637TIP3    H126402   3.102   3.056   0.036 -0.8708 -0.3914  0.3310
 1637TIP3    H226403   3.070   2.956   0.145 -0.2592  1.2675  2.1045
 1638TIP3   OH226404   3.798   4.116   6.268  0.3468  0.2087  0.3332
 1638TIP3    H126405   3.884   4.102   6.229  0.5114  1.3988  0.2372
 1638TIP3    H226406   3.814   4.118   6.362  0.6233  1.5120  0.2828
 1639TIP3   OH226407   1.523   2.604   1.164 -0.0689 -0.1640  0.0144
 1639TIP3    H126408   1.587   2.566   1.223  0.2028  1.8791  1.1287
 1639TIP3    H226409   1.533   2.555   1.082  0.1728 -2.4481  1.3364
 1640TIP3   OH226410   6.546   1.564  11.235 -0.0384  0.0984 -0.4381
 1640TIP3    H126411   6.456   1.558  11.267  0.5284 -2.4479  0.9171
 1640TIP3    H226412   6.546   1.515  11.153  0.4165 -1.3241  0.3878
 1641TIP3   OH226413   4.067   2.530   3.813 -0.0245  0.0749  0.3907
 1641TIP3    H126414   4.097   2.460   3.756 -3.6306 -2.2166  0.9919
 1641TIP3    H226415   3.990   2.566   3.770  0.9477  2.9188  0.7557
 1642TIP3   OH226416   6.150   5.612   5.922  0.0935  0.1172  0.2851
 1642TIP3    H126417   6.204   5.536   5.900  1.4330  1.2017 -0.3184
 1642TIP3    H226418   6.064   5.592   5.882  0.4123 -1.0626  0.1412
 1643TIP3   OH226419   6.056   2.663  11.916  0.4739 -0.1492 -0.3888
 1643TIP3    H126420   6.129   2.651  11.977  1.0355 -0.1346 -1.0353
 1643TIP3    H226421   6.015   2.577  11.908  1.8877 -0.7488 -1.8037
 1644TIP3   OH226422   3.570   5.388  14.726 -0.2135  0.0663 -0.0868
 1644TIP3    H126423   3.529   5.307  14.695  0.6316 -0.4331  0.0735
 1644TIP3    H226424   3.616   5.423  14.650  0.7426 -0.4497  0.2448
 1645TIP3   OH226425   6.801   6.679  12.548  0.3647  0.3741  0.1246
 1645TIP3    H126426   6.807   6.624  12.469  0.7273 -1.1808  1.1921
 1645TIP3    H226427   6.866   6.642  12.607 -1.7620 -0.2752  2.2013
 1646TIP3   OH226428   2.496   1.706  11.371  0.4961  0.3791 -0.2569
 1646TIP3    H126429   2.513   1.640  11.439  0.1636  0.7006  0.1449
 1646TIP3    H226430   2.445   1.659  11.305 -2.5411  0.9411  1.4830
 1647TIP3   OH226431   1.508   0.802  11.167  0.0018 -0.4429  0.1054
 1647TIP3    H126432   1.591   0.791  11.121  0.1070 -0.6223  0.3377
 1647TIP3    H226433   1.503   0.727  11.226  1.5658  1.5971  3.0646
 1648TIP3   OH226434   2.505   6.732  16.265  0.7009  0.2628 -0.6335
 1648TIP3    H126435   2.479   6.657  16.319  0.6521  0.5797 -0.2140
 1648TIP3    H226436   2.430   6.749  16.209  1.1552 -0.7753 -1.6072
 1649TIP3   OH226437   4.670   6.048   3.606  0.2067  0.2537  0.0411
 1649TIP3    H126438   4.651   6.139   3.584 -0.1479 -0.2022 -1.6951
 1649TIP3    H226439   4.700   6.051   3.697 -1.4063  1.8807  0.5884
 1650TIP3   OH226440   3.076   3.227   2.256 -0.1862 -0.0668 -0.3374
 1650TIP3    H126441   3.023   3.257   2.330 -0.0704 -0.1255 -0.2309
 1650TIP3    H226442   3.108   3.141   2.282 -0.9629 -0.5378 -0.8651
 1651TIP3   OH226443   6.248   2.612  14.878  0.4880  0.6228 -0.0245
 1651TIP3    H126444   6.179   2.663  14.836  1.0473  0.1085 -1.6339
 1651TIP3    H226445   6.319   2.674  14.892  0.1416  0.8928  0.5903
 1652TIP3   OH226446   1.103   2.316   0.895 -0.3149 -0.2779 -0.2162
 1652TIP3    H126447   1.195   2.303   0.873 -0.0328 -0.8909  1.2049
 1652TIP3    H226448   1.099   2.404   0.932 -0.3289 -0.2282 -0.3324
 1653TIP3   OH226449   0.846   6.281   5.954 -0.8674  0.6127  0.0177
 1653TIP3    H126450   0.900   6.228   6.013  0.6917  3.2920  1.1842
 1653TIP3    H226451   0.767   6.301   6.004 -1.9275 -1.2935 -0.7904
 1654TIP3   OH226452   3.513   0.980   4.490  0.8682 -0.6896  0.1531
 1654TIP3    H126453   3.580   0.969   4.422  0.3463 -0.2233 -0.4473
 1654TIP3    H226454   3.458   0.902   4.481 -1.0313  0.7875 -2.0673
 1655TIP3   OH226455   5.438   6.595  15.323 -0.0599 -0.6517  0.3410
 1655TIP3    H126456   5.497   6.548  15.381 -0.7272 -3.4336 -1.0113
 1655TIP3    H226457   5.489   6.609  15.243 -0.9234 -2.5890 -0.6344
 1656TIP3   OH226458   2.165   3.991   3.652 -0.1145  0.1697  0.3211
 1656TIP3    H126459   2.117   3.978   3.734 -2.2045 -1.6090 -1.0573
 1656TIP3    H226460   2.097   3.988   3.585  1.8761 -2.6747 -1.8114
 1657TIP3   OH226461   5.876   2.816   1.563  0.2592  0.2331  0.0361
 1657TIP3    H126462   5.900   2.813   1.655 -2.2844  0.2669  0.7756
 1657TIP3    H226463   5.869   2.909   1.542  3.0161  0.3297 -0.9160
 1658TIP3   OH226464   0.225   3.873   0.078 -0.3515 -0.1581 -0.4629
 1658TIP3    H126465   0.172   3.793   0.084  0.2836 -0.5457  0.1698
 1658TIP3    H226466   0.229   3.891  -0.016  0.9542 -1.9019 -0.8078
 1659TIP3   OH226467   1.387   1.665   0.040 -0.5624 -0.0192 -0.1952
 1659TIP3    H126468   1.417   1.664  -0.051 -1.0850  0.4203 -0.3789
 1659TIP3    H226469   1.415   1.580   0.075  1.0304  0.4409 -0.2959
 1660TIP3   OH226470   5.902   3.912   3.180 -0.3631  0.3018 -0.3150
 1660TIP3    H126471   5.815   3.952   3.182  0.2572  1.7007 -0.6833
 1660TIP3    H226472   5.945   3.943   3.260 -0.0921 -0.1751 -0.2680
 1661TIP3   OH226473   2.126   3.159  16.139  0.1773  0.6285  0.1750
 1661TIP3    H126474   2.120   3.251  16.166  0.7722 -0.0729  2.9190
 1661TIP3    H226475   2.108   3.109  16.218  1.1838 -1.6432 -0.9473
 1662TIP3   OH226476   3.553   5.538   4.359 -0.3067 -0.1531  0.4323
 1662TIP3    H126477   3.568   5.534   4.264 -1.5206 -0.4453  0.2302
 1662TIP3    H226478   3.641   5.542   4.397  0.1997  0.0595 -0.7064
 1663TIP3   OH226479   4.142   6.074  16.361  0.1254  0.2356 -0.0478
 1663TIP3    H126480   4.132   6.136  16.289 -0.8985 -0.5614 -0.6124
 1663TIP3    H226481   4.056   6.031  16.368  0.4674 -0.2920  1.0905
 1664TIP3   OH226482   5.609   2.115  14.308 -0.4487 -0.3489  0.8799
 1664TIP3    H126483   5.659   2.140  14.230 -0.6036 -0.1389  0.8482
 1664TIP3    H226484   5.674   2.116  14.379 -0.2442 -0.8219  0.7070
 1665TIP3   OH226485   6.243   6.433   4.735  0.5927  0.0200  0.6180
 1665TIP3    H126486   6.279   6.434   4.824  2.1243  0.1647  0.0340
 1665TIP3    H226487   6.165   6.488   4.739  0.8879  0.3639  1.7667
 1666TIP3   OH226488   4.862   5.064  11.367  0.1127 -0.5845  0.0569
 1666TIP3    H126489   4.837   5.039  11.456 -0.2438  0.5526  0.2896
 1666TIP3    H226490   4.783   5.050  11.314 -1.3209  3.2719  0.8410
 1667TIP3   OH226491   4.364   2.475   7.019 -0.0197  0.1842  0.3933
 1667TIP3    H126492   4.328   2.563   7.015 -0.8130 -0.1681 -2.9677
 1667TIP3    H226493   4.287   2.417   7.015  0.5601 -0.6965  1.2839
 1668TIP3   OH226494   0.549   4.686  11.964  0.2538 -0.2046 -0.2249
 1668TIP3    H126495   0.619   4.688  12.030 -0.4723  0.6243  0.5602
 1668TIP3    H226496   0.552   4.773  11.923 -0.2857 -0.1626 -0.1925
 1669TIP3   OH226497   0.949   4.957  11.190 -0.2037 -0.3284 -0.0616
 1669TIP3    H126498   0.884   4.976  11.257  0.4504  1.9069  0.0102
 1669TIP3    H226499   1.022   4.919  11.238 -0.0575  0.5174  0.4034
 1670TIP3   OH226500   3.211   3.463  14.551  0.6651  0.3906  0.3645
 1670TIP3    H126501   3.245   3.542  14.593  0.8766  0.0217  0.9039
 1670TIP3    H226502   3.282   3.435  14.493  0.1646  1.2008 -0.6638
 1671TIP3   OH226503   0.090   2.588   4.312  0.6371  0.0865 -0.1289
 1671TIP3    H126504   0.090   2.492   4.305 -0.7723  0.0836 -0.3977
 1671TIP3    H226505   0.079   2.605   4.405  1.8664  0.0179  0.0519
 1672TIP3   OH226506   1.182   0.657   2.492  0.0606 -0.5670  0.0786
 1672TIP3    H126507   1.129   0.577   2.492  1.0375 -1.2476  1.0886
 1672TIP3    H226508   1.132   0.719   2.439 -1.1604 -1.5539  0.0246
 1673TIP3   OH226509   2.211   0.321   1.889 -0.3290 -0.3994 -0.1246
 1673TIP3    H126510   2.132   0.268   1.901 -0.7076 -0.7151 -3.1626
 1673TIP3    H226511   2.280   0.269   1.929 -1.3761 -0.9674  1.0264
 1674TIP3   OH226512   0.687   1.765  16.594  0.5796 -0.1247  0.7294
 1674TIP3    H126513   0.615   1.728  16.646  0.8594 -0.0672  1.1679
 1674TIP3    H226514   0.727   1.689  16.552  0.7454 -0.2452  1.1029
 1675TIP3   OH226515   0.998   3.580   0.988  0.5810 -0.7136 -0.5495
 1675TIP3    H126516   1.069   3.633   0.952  0.5810 -0.1920  0.1924
 1675TIP3    H226517   0.957   3.636   1.055  0.5529 -1.6299  0.2224
 1676TIP3   OH226518   0.593   6.626   0.735  0.0715 -0.1279  0.6148
 1676TIP3    H126519   0.585   6.684   0.659 -0.2254 -0.5069  0.3482
 1676TIP3    H226520   0.540   6.549   0.712  1.5915 -1.1438  0.3645
 1677TIP3   OH226521   0.971   3.303   1.260  0.3394  0.1746 -1.1970
 1677TIP3    H126522   0.928   3.289   1.344 -0.3393 -0.4738 -1.6451
 1677TIP3    H226523   0.968   3.398   1.248 -0.0869  0.2224 -0.7699
 1678TIP3   OH226524   2.248   4.651  13.916  0.1531  0.3514 -0.4419
 1678TIP3    H126525   2.279   4.741  13.905 -1.2125  0.7263 -1.4941
 1678TIP3    H226526   2.156   4.660  13.938  0.2140 -0.7940  0.3953
 1679TIP3   OH226527   6.260   6.600   2.831  0.1960 -0.2144  0.0000
 1679TIP3    H126528   6.332   6.618   2.771 -0.1550 -0.1756 -0.4086
 1679TIP3    H226529   6.187   6.573   2.775  0.1848 -1.2096  0.4695
 1680TIP3   OH226530   1.498   4.023   0.037  0.0292 -0.2122  0.5431
 1680TIP3    H126531   1.475   3.957   0.102  1.9008 -1.8592 -0.3498
 1680TIP3    H226532   1.589   4.004   0.014  0.8530  3.0534  0.6138
 1681TIP3   OH226533   6.748   1.733   5.525 -0.4373 -0.0107 -0.2357
 1681TIP3    H126534   6.841   1.753   5.537 -0.7236  0.5199  1.3756
 1681TIP3    H226535   6.705   1.818   5.530 -1.1633 -0.4314  0.9328
 1682TIP3   OH226536   4.358   5.121   5.534 -0.9140  0.2939  0.2121
 1682TIP3    H126537   4.312   5.204   5.551 -0.3756  0.2359  2.3135
 1682TIP3    H226538   4.445   5.148   5.504 -1.0837  0.4839 -0.1047
 1683TIP3   OH226539   6.353   1.907  14.428  0.6726  0.1576 -0.2543
 1683TIP3    H126540   6.270   1.919  14.382  0.7525  0.0765 -0.4211
 1683TIP3    H226541   6.388   1.825  14.392 -0.6480 -1.5058  2.0138
 1684TIP3   OH226542   0.205   5.764   4.259 -0.8420  0.0107  0.1777
 1684TIP3    H126543   0.196   5.838   4.200  0.2587  0.2278  0.2593
 1684TIP3    H226544   0.148   5.784   4.332 -2.7313 -0.5604 -1.0762
 1685TIP3   OH226545   5.974   1.912  14.064 -0.2262  0.4342 -0.2056
 1685TIP3    H126546   5.881   1.931  14.064 -0.2543  0.2994 -0.8335
 1685TIP3    H226547   6.000   1.920  14.156 -0.9440  0.0188  0.0353
 1686TIP3   OH226548   2.094   0.181   5.809  0.1882  0.2786  0.3549
 1686TIP3    H126549   2.137   0.133   5.880  0.2256 -0.3478 -0.0729
 1686TIP3    H226550   2.149   0.164   5.733  0.9349  2.1043  0.4452
 1687TIP3   OH226551   3.250   3.470  13.621  0.1896  0.1850  0.2217
 1687TIP3    H126552   3.203   3.495  13.701 -2.6032  0.7923 -1.4795
 1687TIP3    H226553   3.325   3.529  13.618 -0.7285  1.4714  1.4159
 1688TIP3   OH226554   1.346   5.188   2.664 -0.2360  1.1647 -0.1894
 1688TIP3    H126555   1.402   5.181   2.587 -0.2415  1.6150 -0.2380
 1688TIP3    H226556   1.269   5.236   2.633 -0.6290  0.5878 -0.1135
 1689TIP3   OH226557   0.453   1.144   0.519 -0.0091  0.4421 -0.3767
 1689TIP3    H126558   0.452   1.191   0.436 -1.9059 -0.7650 -1.1249
 1689TIP3    H226559   0.500   1.063   0.501 -1.1901 -0.2285 -0.5724
 1690TIP3   OH226560   0.333   4.002   5.002  0.0472  0.6738 -0.2535
 1690TIP3    H126561   0.350   4.071   5.066  1.0876 -0.0555  0.3035
 1690TIP3    H226562   0.277   3.940   5.048  0.3251  0.4294 -0.2398
 1691TIP3   OH226563   1.467   0.578  15.729 -0.3131 -0.1172 -0.9169
 1691TIP3    H126564   1.438   0.668  15.728  0.3274  0.1393  0.7649
 1691TIP3    H226565   1.527   0.571  15.654  0.4042  1.1275 -0.4749
 1692TIP3   OH226566   5.966   1.022  17.006 -0.1129  0.7496 -0.0206
 1692TIP3    H126567   5.955   0.928  16.988 -1.1879  1.1653 -1.7343
 1692TIP3    H226568   5.965   1.063  16.920  1.1213  2.2862  0.6527
 1693TIP3   OH226569   1.398   6.300   2.120 -0.0103  0.1251 -0.3020
 1693TIP3    H126570   1.325   6.303   2.057  0.7649 -0.6435 -1.2619
 1693TIP3    H226571   1.403   6.389   2.154 -0.6680  0.4761 -1.0761
 1694TIP3   OH226572   3.965   6.631   5.598  0.0024 -0.1833  0.3138
 1694TIP3    H126573   3.944   6.648   5.506  1.7408 -0.2457 -0.1271
 1694TIP3    H226574   3.945   6.538   5.610  0.4704 -0.3609 -0.2198
 1695TIP3   OH226575   4.426   4.919   2.210 -0.0776 -0.1813  0.4245
 1695TIP3    H126576   4.414   5.003   2.166 -1.0405  0.2754  1.4807
 1695TIP3    H226577   4.452   4.858   2.141 -1.9001  0.4045 -0.8545
 1696TIP3   OH226578   6.306   2.592  12.418  0.0047  0.1986 -0.2686
 1696TIP3    H126579   6.350   2.516  12.379 -0.6401 -0.7030  0.6864
 1696TIP3    H226580   6.221   2.595  12.374 -0.1103  0.1430 -0.0506
 1697TIP3   OH226581   3.583   6.524   5.067 -0.3607 -0.7209  0.2287
 1697TIP3    H126582   3.584   6.430   5.087 -5.2276 -0.9568  0.6047
 1697TIP3    H226583   3.502   6.536   5.017  0.6710  3.1788 -0.7949
 1698TIP3   OH226584   0.044   6.799   2.899  0.2380 -1.1968 -0.2418
 1698TIP3    H126585   0.028   6.705   2.910 -0.0160 -1.4248 -2.2031
 1698TIP3    H226586   0.055   6.810   2.805  1.1724  0.6218  0.0401
 1699TIP3   OH226587   3.500   3.988   5.680 -0.1656 -0.0960  0.4996
 1699TIP3    H126588   3.477   3.976   5.772  1.3033 -0.7986  0.8002
 1699TIP3    H226589   3.534   3.903   5.652 -0.0935  0.2617 -0.5404
 1700TIP3   OH226590   2.978   1.148  16.525 -0.0014 -0.4037 -0.1928
 1700TIP3    H126591   2.954   1.137  16.432 -3.0146  1.4971  0.2140
 1700TIP3    H226592   2.927   1.223  16.553  0.3248 -1.3245  3.2245
 1701TIP3   OH226593   0.066   3.275  11.608 -0.2391  0.1134 -0.3536
 1701TIP3    H126594   0.059   3.367  11.581  3.2416  0.2321 -1.3669
 1701TIP3    H226595   0.022   3.271  11.693 -0.3816  2.7552 -0.2290
 1702TIP3   OH226596   2.465   6.370   2.039  0.5287 -0.0264 -1.0095
 1702TIP3    H126597   2.518   6.448   2.025  1.0572 -0.6626 -2.8287
 1702TIP3    H226598   2.376   6.403   2.050  0.9577  0.9025 -0.1200
 1703TIP3   OH226599   1.193   0.912  10.620  0.2833 -0.5378 -0.2946
 1703TIP3    H126600   1.245   0.986  10.653 -0.4186 -0.7791  1.4698
 1703TIP3    H226601   1.226   0.836  10.669 -1.7359 -0.6756  0.9377
 1704TIP3   OH226602   5.085   1.913   3.781  0.3771  0.6408  0.1669
 1704TIP3    H126603   4.996   1.899   3.814  0.1944 -0.7501 -0.8035
 1704TIP3    H226604   5.073   1.949   3.693  0.7913  1.2886  0.3739
 1705TIP3   OH226605   2.286   4.065   5.684  0.0055 -0.0392  0.3408
 1705TIP3    H126606   2.199   4.029   5.665 -0.0215  0.4441 -0.4924
 1705TIP3    H226607   2.284   4.153   5.648  0.9881 -0.1775 -0.0725
 1706TIP3   OH226608   4.506   1.468  15.530  0.0954  0.3584  0.3298
 1706TIP3    H126609   4.488   1.380  15.564  0.9281  0.1342  0.2151
 1706TIP3    H226610   4.438   1.523  15.569 -0.8977 -0.4617 -0.1770
 1707TIP3   OH226611   4.760   1.033  11.963  0.2443  0.2491  0.2685
 1707TIP3    H126612   4.688   1.085  11.999 -0.6179 -0.5495 -0.2472
 1707TIP3    H226613   4.797   1.089  11.894 -1.1010 -0.0329 -0.7362
 1708TIP3   OH226614   6.578   5.988   4.496 -0.4781  0.1293 -0.3527
 1708TIP3    H126615   6.576   6.031   4.581  0.8688 -0.5086  0.0289
 1708TIP3    H226616   6.486   5.969   4.477 -0.8315  0.6236  0.7764
 1709TIP3   OH226617   0.505   1.716  12.351  0.0824 -0.4507 -0.3933
 1709TIP3    H126618   0.538   1.803  12.375 -1.5354  0.4557 -1.2834
 1709TIP3    H226619   0.490   1.673  12.435  0.1158  0.4584  0.0963
 1710TIP3   OH226620   3.198   5.421  13.984  0.1549  0.2775 -0.6912
 1710TIP3    H126621   3.103   5.416  13.998  0.3006  1.1359  0.7720
 1710TIP3    H226622   3.232   5.342  14.026 -0.1357 -2.1091 -4.4391
 1711TIP3   OH226623   2.969   1.184  12.199  0.1381  0.2022  0.2139
 1711TIP3    H126624   3.033   1.250  12.170  2.1678 -0.6804  2.3828
 1711TIP3    H226625   3.016   1.101  12.191  0.1302 -0.2839  3.8113
 1712TIP3   OH226626   2.669   2.085   5.673  0.4364  1.0440  0.0128
 1712TIP3    H126627   2.709   2.056   5.755  0.6038  2.1749  0.3525
 1712TIP3    H226628   2.719   2.042   5.604 -0.7932 -1.3407  0.4850
 1713TIP3   OH226629   3.357   1.442  11.563 -0.6355  0.3859  0.1178
 1713TIP3    H126630   3.340   1.469  11.473  0.3475 -0.2276 -0.2711
 1713TIP3    H226631   3.340   1.520  11.616  0.2173  1.1879 -0.7604
 1714TIP3   OH226632   2.390   6.400  14.873  0.1271  0.2661 -0.1320
 1714TIP3    H126633   2.440   6.408  14.954 -0.6809 -1.2889  0.5625
 1714TIP3    H226634   2.455   6.375  14.807  0.3093 -1.9764  0.8136
 1715TIP3   OH226635   0.025   1.771  14.030 -0.8020 -0.4135  0.4108
 1715TIP3    H126636   0.005   1.847  13.976  0.4868 -0.3044  0.0389
 1715TIP3    H226637  -0.035   1.703  14.000  1.3062 -1.0824 -2.8189
 1716TIP3   OH226638   5.160   4.874   3.447  0.0225 -0.1478  0.4836
 1716TIP3    H126639   5.213   4.954   3.446 -1.7231  1.0978 -1.7230
 1716TIP3    H226640   5.225   4.803   3.440  1.5067  1.3144 -2.3366
 1717TIP3   OH226641   6.023   4.609  12.553  0.2954  0.2059 -0.0547
 1717TIP3    H126642   6.009   4.701  12.530 -0.4319  0.1066 -0.0226
 1717TIP3    H226643   6.029   4.609  12.648  0.5759  0.2539 -0.0714
 1718TIP3   OH226644   4.103   0.043  10.976 -0.2851 -0.3770  0.2050
 1718TIP3    H126645   4.076   0.001  11.057 -1.6651  0.0099 -0.0313
 1718TIP3    H226646   4.120   0.134  11.001  1.4115 -0.7255  0.4552
 1719TIP3   OH226647   1.699   5.576  16.640  0.1769  0.1543  0.8625
 1719TIP3    H126648   1.603   5.573  16.639  0.2002 -0.9836  0.4072
 1719TIP3    H226649   1.722   5.574  16.732 -0.2263 -0.4149  0.9587
 1720TIP3   OH226650   3.768   6.681  13.535  0.1351  0.2860  0.1768
 1720TIP3    H126651   3.857   6.674  13.502 -0.5060  0.6549 -1.7962
 1720TIP3    H226652   3.715   6.631  13.472 -1.1071  0.5160  0.9981
 1721TIP3   OH226653   5.244   5.359  12.244 -0.4089 -0.0319  0.2517
 1721TIP3    H126654   5.331   5.374  12.208  0.1304  1.8235  2.1626
 1721TIP3    H226655   5.250   5.274  12.287  0.5615  0.2066  0.6020
 1722TIP3   OH226656   3.415   0.847  11.477  0.2604  0.8225  0.1963
 1722TIP3    H126657   3.326   0.879  11.490 -0.1220  0.2486 -0.8151
 1722TIP3    H226658   3.406   0.752  11.472  1.1431  0.6443  1.5384
 1723TIP3   OH226659   2.573   3.261   4.314  0.3301 -0.3605 -0.3229
 1723TIP3    H126660   2.534   3.222   4.393 -1.1387  2.2503  0.3655
 1723TIP3    H226661   2.560   3.194   4.247 -0.9797 -1.5496  1.0097
 1724TIP3   OH226662   1.482   5.819  16.506  0.0490  0.0648 -0.7434
 1724TIP3    H126663   1.555   5.801  16.565 -1.9776 -3.6889  0.9953
 1724TIP3    H226664   1.428   5.883  16.553  0.2015 -0.2359 -0.1506
 1725TIP3   OH226665   3.183   5.904  10.957 -0.0149  0.0454 -0.0849
 1725TIP3    H126666   3.190   5.949  11.041 -1.1278  0.3188 -0.1192
 1725TIP3    H226667   3.241   5.828  10.965  1.4119  1.1430  0.1845
 1726TIP3   OH226668   5.588   0.730   5.464  0.6199 -0.2457 -0.1352
 1726TIP3    H126669   5.535   0.654   5.488 -0.2201  0.5385  0.5745
 1726TIP3    H226670   5.524   0.797   5.438  1.3593  0.1283 -1.0393
 1727TIP3   OH226671   5.434   6.580   1.255 -0.1978  0.5133 -0.5418
 1727TIP3    H126672   5.366   6.625   1.205 -2.6172 -1.2817  0.8738
 1727TIP3    H226673   5.480   6.527   1.190 -0.3465  1.5167 -1.4946
 1728TIP3   OH226674   4.948   2.247  12.795  0.0369 -0.6006 -0.4099
 1728TIP3    H126675   4.879   2.234  12.729 -0.4613 -0.6745  0.1152
 1728TIP3    H226676   5.028   2.219  12.752 -0.1843 -0.0367 -1.2084
 1729TIP3   OH226677   5.851   4.742   6.146 -0.2381 -0.2257  0.7637
 1729TIP3    H126678   5.786   4.805   6.179  0.0067 -0.8545  2.5763
 1729TIP3    H226679   5.810   4.656   6.160  0.2129 -0.5499  0.1196
 1730TIP3   OH226680   6.092   2.209   1.567  0.1575  0.3233 -1.0544
 1730TIP3    H126681   6.107   2.218   1.473  1.8184 -0.5123 -0.9117
 1730TIP3    H226682   6.180   2.199   1.604 -0.6138 -2.2894  0.2670
 1731TIP3   OH226683   2.346   0.723   2.205  0.5439 -0.2549 -0.1197
 1731TIP3    H126684   2.424   0.778   2.212 -0.3243  1.1997 -1.1938
 1731TIP3    H226685   2.360   0.652   2.268  1.6594  1.2637  1.4199
 1732TIP3   OH226686   6.022   3.946  11.231 -0.1872  0.2864 -0.0118
 1732TIP3    H126687   6.063   3.881  11.174 -0.2852  0.0017  0.2434
 1732TIP3    H226688   6.022   3.906  11.318  0.0715  0.7629  0.2172
 1733TIP3   OH226689   1.796   6.147  12.726  0.1819 -0.6937  0.4236
 1733TIP3    H126690   1.858   6.134  12.654 -0.4982 -0.5302 -0.1998
 1733TIP3    H226691   1.743   6.222  12.700  1.4149  0.8915  2.1457
 1734TIP3   OH226692   3.260   5.631   6.145 -0.1439  0.1657 -0.5179
 1734TIP3    H126693   3.276   5.725   6.135 -1.4581  0.3752 -0.8897
 1734TIP3    H226694   3.209   5.607   6.068 -2.2701 -0.2377  0.9290
 1735TIP3   OH226695   5.752   2.647   2.371  0.5620  0.1961  0.1563
 1735TIP3    H126696   5.834   2.667   2.326  0.7444 -1.1042 -0.1280
 1735TIP3    H226697   5.748   2.552   2.372  0.5638  0.1489  2.9330
 1736TIP3   OH226698   0.715   2.769  11.876 -0.5734  0.4533 -0.1948
 1736TIP3    H126699   0.639   2.719  11.908  0.1996  0.0388  1.0614
 1736TIP3    H226700   0.730   2.836  11.943  0.9922 -0.3335  0.2864
 1737TIP3   OH226701   0.025   2.827  11.126  0.4931  0.4379  0.0763
 1737TIP3    H126702  -0.025   2.805  11.048  1.9212 -0.2934 -0.6812
 1737TIP3    H226703  -0.034   2.811  11.199 -0.7011  0.6365 -0.8179
 1738TIP3   OH226704   6.388   0.273  13.476 -0.0746 -0.2979  0.0201
 1738TIP3    H126705   6.315   0.275  13.413  1.8201 -0.9042 -2.3773
 1738TIP3    H226706   6.409   0.365  13.491 -0.8413 -0.1332  0.1490
 1739TIP3   OH226707   5.167   3.304   0.112  0.2191 -0.3903 -0.1702
 1739TIP3    H126708   5.114   3.270   0.184 -0.9612  1.1983 -0.2276
 1739TIP3    H226709   5.104   3.329   0.045  0.9192  1.9918 -0.0613
 1740TIP3   OH226710   0.271   2.998  11.810 -0.0913 -0.5604 -0.6213
 1740TIP3    H126711   0.361   2.968  11.794 -0.5261 -1.1284 -2.1947
 1740TIP3    H226712   0.219   2.918  11.805 -0.8708 -0.0209 -1.4360
 1741TIP3   OH226713   2.616   3.819   0.160 -0.6256 -0.6473  0.1127
 1741TIP3    H126714   2.654   3.825   0.072  1.2813 -0.0023  0.9188
 1741TIP3    H226715   2.680   3.767   0.209  0.4847  2.3686  2.1205
 1742TIP3   OH226716   3.011   4.389   0.386  0.3522  0.6108  0.1133
 1742TIP3    H126717   3.040   4.375   0.296  0.6978  2.1119 -0.0371
 1742TIP3    H226718   3.041   4.311   0.433  2.6460  1.0208 -0.5130
 1743TIP3   OH226719   6.091   0.938  15.273 -0.1525  0.0864  0.7123
 1743TIP3    H126720   6.100   0.847  15.244  1.8156  0.8116 -1.2293
 1743TIP3    H226721   6.177   0.960  15.309 -1.3384  0.4950  3.6078
 1744TIP3   OH226722   2.584   5.081  16.881 -0.0172  0.4023  0.0201
 1744TIP3    H126723   2.656   5.032  16.921  0.7397 -0.2521 -2.0180
 1744TIP3    H226724   2.626   5.135  16.814 -1.1307  2.0785  0.5859
 1745TIP3   OH226725   5.869   6.106   1.216 -0.7602  0.0591  0.2436
 1745TIP3    H126726   5.872   6.029   1.272 -1.7303 -0.5847 -0.5415
 1745TIP3    H226727   5.777   6.133   1.217 -0.7028  0.3320 -0.6308
 1746TIP3   OH226728   6.767   3.118   0.317  1.0607 -0.7386  0.0276
 1746TIP3    H126729   6.785   3.198   0.367 -1.4043 -0.7509  1.1105
 1746TIP3    H226730   6.714   3.065   0.376 -0.0394 -1.7671 -1.7950
 1747TIP3   OH226731   2.675   5.165  12.290 -0.3485  0.0726  0.8953
 1747TIP3    H126732   2.645   5.233  12.231 -0.0051  0.1822  0.8462
 1747TIP3    H226733   2.755   5.200  12.330  1.1051 -1.1486 -0.7590
 1748TIP3   OH226734   5.781   5.836  11.033 -1.0629  0.2665  0.1761
 1748TIP3    H126735   5.722   5.816  11.106  0.4870  0.8418  1.6888
 1748TIP3    H226736   5.863   5.793  11.057  0.2687  2.5961  0.1242
 1749TIP3   OH226737   5.758   0.371  12.934  0.4003 -0.5314  0.1623
 1749TIP3    H126738   5.682   0.386  12.989  0.0287 -1.4340 -0.0868
 1749TIP3    H226739   5.722   0.350  12.847  0.9625  0.4048 -0.3139
 1750TIP3   OH226740   1.389   3.943   0.285 -0.1394 -0.3314  0.2719
 1750TIP3    H126741   1.321   3.994   0.329 -0.6816 -1.0446  0.2784
 1750TIP3    H226742   1.377   3.854   0.317 -1.9099 -1.3345 -2.7530
 1751TIP3   OH226743   4.710   1.844  16.660 -0.1305 -0.0063  0.4964
 1751TIP3    H126744   4.670   1.858  16.574  2.2112 -2.0222 -1.0674
 1751TIP3    H226745   4.637   1.820  16.716 -1.5060 -1.0015 -1.5634
 1752TIP3   OH226746   1.695   0.020   3.248 -0.1547 -0.2233  0.6480
 1752TIP3    H126747   1.791   0.022   3.256  0.0399 -0.0015 -1.3400
 1752TIP3    H226748   1.668   0.105   3.282  0.5188  0.4071 -0.3383
 1753TIP3   OH226749   4.218   6.640   6.098  0.5429  0.1467 -0.3190
 1753TIP3    H126750   4.139   6.645   6.152 -0.5141  0.5107 -1.8350
 1753TIP3    H226751   4.278   6.702   6.138 -0.0057  0.0130  0.7451
 1754TIP3   OH226752   1.011   6.522   0.628 -0.1289 -0.2155 -0.1244
 1754TIP3    H126753   0.958   6.509   0.707 -0.0237 -0.0383 -0.0254
 1754TIP3    H226754   1.030   6.616   0.626 -1.8507  0.1668 -1.4461
 1755TIP3   OH226755   6.229   2.753  15.466 -0.0326  0.2473 -0.4681
 1755TIP3    H126756   6.263   2.839  15.489 -0.2105  0.5682 -1.3703
 1755TIP3    H226757   6.260   2.695  15.536  2.0000  0.6120 -1.0035
 1756TIP3   OH226758   2.963   2.744  16.330  0.4616 -0.4363 -0.3938
 1756TIP3    H126759   2.891   2.709  16.382  0.8463 -0.9085 -0.1775
 1756TIP3    H226760   2.989   2.673  16.272  0.9565 -0.3678 -0.2599
 1757TIP3   OH226761   1.490   5.558   5.934 -0.0614  0.0554 -0.5124
 1757TIP3    H126762   1.408   5.601   5.957  0.1320 -0.1081  0.5448
 1757TIP3    H226763   1.558   5.616   5.969  0.2300 -0.4757 -0.1696
 1758TIP3   OH226764   1.658   2.035  15.025  0.1693 -0.6324 -0.8275
 1758TIP3    H126765   1.638   1.993  15.109  0.0978  1.2572  0.1472
 1758TIP3    H226766   1.712   2.110  15.048  0.3610 -0.2163 -2.5166
 1759TIP3   OH226767   1.873   4.277   2.089  0.1763  0.1368  0.2903
 1759TIP3    H126768   1.900   4.322   2.168  1.1115  1.4266 -0.7219
 1759TIP3    H226769   1.952   4.273   2.035 -0.3298 -1.1076 -0.4143
 1760TIP3   OH226770   1.942   5.227   1.401  0.0017  0.0852 -0.0331
 1760TIP3    H126771   2.007   5.291   1.429 -0.9053  1.8791 -1.8102
 1760TIP3    H226772   1.958   5.216   1.307 -2.0080  0.3210 -0.4399
 1761TIP3   OH226773   0.417   0.632   1.367 -0.2695  0.0983  0.0044
 1761TIP3    H126774   0.513   0.631   1.378 -0.0501 -1.2566 -1.6495
 1761TIP3    H226775   0.386   0.556   1.416 -0.3643 -0.1723 -0.4749
 1762TIP3   OH226776   1.770   5.497   4.621 -0.1689 -0.3462 -0.3118
 1762TIP3    H126777   1.743   5.434   4.554  0.1180 -1.7201  0.8093
 1762TIP3    H226778   1.690   5.513   4.672 -0.1707 -0.0315 -0.4122
 1763TIP3   OH226779   5.716   6.639   2.583  0.3951  0.2100 -0.1995
 1763TIP3    H126780   5.654   6.643   2.511  0.4621  1.1022 -0.2155
 1763TIP3    H226781   5.727   6.545   2.600 -1.6025  0.0299  0.3716
 1764TIP3   OH226782   0.544   4.028  15.876 -0.1069  0.2670 -0.1880
 1764TIP3    H126783   0.628   4.033  15.921  0.1553 -1.5425 -0.3710
 1764TIP3    H226784   0.520   4.119  15.858  1.3240  0.8615  0.7426
 1765TIP3   OH226785   1.807   5.434  11.444  0.2021  0.4609 -0.0691
 1765TIP3    H126786   1.878   5.454  11.384  0.8649 -0.0671  0.5295
 1765TIP3    H226787   1.730   5.423  11.388 -0.1896  4.2371 -0.5373
 1766TIP3   OH226788   1.464   2.381  16.784 -0.2721  0.8538  0.8375
 1766TIP3    H126789   1.471   2.441  16.709 -1.7903  1.3898  1.0884
 1766TIP3    H226790   1.432   2.299  16.746  0.8428  0.4901  0.6413
 1767TIP3   OH226791   5.301   6.666  12.793  0.0006  0.3059 -0.0016
 1767TIP3    H126792   5.342   6.586  12.826 -0.2496 -0.1686 -0.7995
 1767TIP3    H226793   5.209   6.642  12.780  0.2264  0.2052 -1.7444
 1768TIP3   OH226794   1.491   1.825  14.861 -0.0789  0.3612 -0.2568
 1768TIP3    H126795   1.556   1.879  14.906  0.3704  0.4750 -1.0258
 1768TIP3    H226796   1.485   1.746  14.914 -0.2225  0.8633  0.4911
 1769TIP3   OH226797   6.002   1.336   0.637 -0.1010 -0.3656  0.3848
 1769TIP3    H126798   5.949   1.415   0.625 -0.5354 -0.7378 -0.2101
 1769TIP3    H226799   6.058   1.333   0.560 -1.2375 -1.4991 -0.4500
 1770TIP3   OH226800   2.268   5.719   0.203  0.3020 -0.3783  0.1085
 1770TIP3    H126801   2.235   5.808   0.191  1.6641  0.2095  0.5885
 1770TIP3    H226802   2.317   5.722   0.284  1.8770 -1.1132 -0.7708
 1771TIP3   OH226803   4.998   1.071   3.539 -0.3349  0.0170  0.3134
 1771TIP3    H126804   5.010   1.127   3.462  1.2679  1.2079  1.3718
 1771TIP3    H226805   5.061   1.000   3.527  1.0544  1.0565  1.2464
 1772TIP3   OH226806   6.656   4.537   1.110  0.6693  0.3836 -0.2392
 1772TIP3    H126807   6.751   4.531   1.098  0.6303 -0.6072 -0.1446
 1772TIP3    H226808   6.643   4.514   1.202  0.1680 -1.6560 -0.7881
 1773TIP3   OH226809   3.840   5.176  14.445 -0.1840 -0.5529  0.5628
 1773TIP3    H126810   3.751   5.177  14.481 -0.6760  0.0905 -0.5787
 1773TIP3    H226811   3.860   5.083  14.433 -1.9616 -0.7241 -1.9813
 1774TIP3   OH226812   2.002   0.935  14.723 -0.3809  0.2287 -0.0911
 1774TIP3    H126813   1.936   0.998  14.693 -0.8305 -0.8720 -1.5140
 1774TIP3    H226814   1.966   0.850  14.698  1.1451 -0.4555 -0.0188
 1775TIP3   OH226815   5.933   1.771   3.916 -0.1853 -0.2005  0.7716
 1775TIP3    H126816   5.955   1.770   4.009  1.7919  0.8657  0.3691
 1775TIP3    H226817   6.018   1.774   3.871 -0.8738 -3.8397 -1.2010
 1776TIP3   OH226818   5.260   4.227   2.197  0.1062 -0.7307 -0.2209
 1776TIP3    H126819   5.322   4.248   2.127  1.5403 -0.5849  1.0388
 1776TIP3    H226820   5.279   4.135   2.219  0.1126 -0.5823  0.4063
 1777TIP3   OH226821   1.193   6.286  12.943 -0.2389 -0.3372  0.4115
 1777TIP3    H126822   1.271   6.314  12.894  1.0433  0.5807  2.7531
 1777TIP3    H226823   1.121   6.337  12.905  0.5828 -0.0452 -0.8090
 1778TIP3   OH226824   5.973   0.860  13.765 -0.2935  0.6127  0.5325
 1778TIP3    H126825   6.013   0.926  13.708  1.1182 -0.1121  0.6165
 1778TIP3    H226826   6.007   0.879  13.852  0.7390 -0.6339  0.4328
 1779TIP3   OH226827   6.035   3.344  13.839  0.2953 -0.6430 -0.6192
 1779TIP3    H126828   6.061   3.387  13.921 -0.5012  2.1178 -1.7027
 1779TIP3    H226829   5.953   3.299  13.860  0.1041  0.0259  0.1278
 1780TIP3   OH226830   0.774   5.805   1.456 -0.4018 -0.0261  0.0756
 1780TIP3    H126831   0.823   5.738   1.505 -2.3893 -1.8792 -0.2879
 1780TIP3    H226832   0.761   5.766   1.370  0.2078  1.8082 -0.8900
 1781TIP3   OH226833   3.353   0.290  16.336  0.4637  0.3646 -0.0734
 1781TIP3    H126834   3.353   0.291  16.240  0.5152 -3.0303 -0.2499
 1781TIP3    H226835   3.263   0.314  16.360 -0.8724 -2.7598 -1.3058
 1782TIP3   OH226836   4.086   1.640  13.228  0.6441 -0.3687  0.6772
 1782TIP3    H126837   4.091   1.549  13.199  0.0655 -0.7231  1.6260
 1782TIP3    H226838   4.172   1.676  13.209  0.7453 -0.9848 -0.1065
 1783TIP3   OH226839   0.179   0.512  13.227  0.2949  0.1082  0.3305
 1783TIP3    H126840   0.223   0.597  13.236 -0.1549  0.2376  1.4587
 1783TIP3    H226841   0.165   0.482  13.317 -2.4253  0.3517  0.0958
 1784TIP3   OH226842   2.295   5.223  14.693 -0.6053  0.2684  0.2773
 1784TIP3    H126843   2.334   5.234  14.780 -3.2021 -0.8384  1.6703
 1784TIP3    H226844   2.314   5.306  14.648  2.0864  0.3041  1.2685
 1785TIP3   OH226845   0.114   1.864  16.757 -0.0599  0.1925 -0.0220
 1785TIP3    H126846   0.042   1.801  16.766  0.1116 -0.2955 -1.6890
 1785TIP3    H226847   0.155   1.866  16.843  0.6697 -2.9201 -0.1802
 1786TIP3   OH226848   0.250   2.326   0.637  0.1619 -0.2363 -0.4763
 1786TIP3    H126849   0.315   2.346   0.570 -0.4685  1.7642 -0.5393
 1786TIP3    H226850   0.266   2.234   0.658  2.0963 -0.1879 -1.4700
 1787TIP3   OH226851   6.196   6.637  14.797 -0.3442 -0.1744  0.2969
 1787TIP3    H126852   6.284   6.673  14.809 -0.3158  0.0576 -0.5071
 1787TIP3    H226853   6.185   6.633  14.702 -1.5050  0.5206  0.3923
 1788TIP3   OH226854   5.715   6.114   3.583  0.8690 -0.2594  0.0768
 1788TIP3    H126855   5.807   6.100   3.609  1.0678  3.2683  1.9002
 1788TIP3    H226856   5.667   6.114   3.666 -0.4880 -0.1550 -0.6819
 1789TIP3   OH226857   4.993   3.545   5.877 -0.5478  0.0007 -0.2403
 1789TIP3    H126858   5.078   3.584   5.858 -0.0960 -1.3330 -1.1028
 1789TIP3    H226859   4.944   3.615   5.920  1.2602  0.5465  1.0954
 1790TIP3   OH226860   3.743   4.691  13.685 -0.0660  0.0007 -0.3072
 1790TIP3    H126861   3.665   4.714  13.635 -0.5449 -1.4238 -0.2635
 1790TIP3    H226862   3.723   4.605  13.722  1.2200 -0.0315  0.3599
 1791TIP3   OH226863   6.034   6.229  11.111 -0.1114  0.3053 -0.5209
 1791TIP3    H126864   6.039   6.201  11.202 -2.6175  3.5655  0.8404
 1791TIP3    H226865   5.988   6.158  11.066 -0.0248 -0.7778  1.0299
 1792TIP3   OH226866   3.587   5.912   4.622  0.0702  0.0159  0.2710
 1792TIP3    H126867   3.637   5.831   4.626 -0.1353 -0.2421 -1.4967
 1792TIP3    H226868   3.517   5.900   4.687  1.0630 -0.4725  1.2734
 1793TIP3   OH226869   0.015   2.222  16.519  0.1499 -0.9983  0.0894
 1793TIP3    H126870   0.104   2.205  16.552  0.5504 -0.8655 -0.9065
 1793TIP3    H226871   0.011   2.177  16.435 -0.3972 -0.1720 -0.3339
 1794TIP3   OH226872   5.069   5.172   6.429  0.1997 -0.1409  0.1910
 1794TIP3    H126873   5.028   5.085   6.430 -0.5936  0.2173  0.0787
 1794TIP3    H226874   5.145   5.162   6.372 -1.4883 -0.0815 -2.2394
 1795TIP3   OH226875   2.330   3.101   4.161  0.2113 -0.2382  0.5130
 1795TIP3    H126876   2.255   3.135   4.113 -0.9486 -0.9532  1.7579
 1795TIP3    H226877   2.318   3.007   4.163  0.7838 -0.3129  1.2951
 1796TIP3   OH226878   2.225   5.845  12.250 -0.5200  0.1178 -0.1295
 1796TIP3    H126879   2.193   5.927  12.211 -1.4201 -0.9180 -1.6742
 1796TIP3    H226880   2.320   5.850  12.238 -0.6310  0.5982 -0.9461
 1797TIP3   OH226881   4.027   5.076   1.042  0.6970  0.2488 -0.4275
 1797TIP3    H126882   4.011   5.053   1.134  0.3973  0.1128 -0.5126
 1797TIP3    H226883   4.121   5.093   1.038  0.6321  0.7600  0.0149
 1798TIP3   OH226884   1.305   6.721   2.445  0.4314  0.1172  0.0703
 1798TIP3    H126885   1.384   6.771   2.425  0.4455  0.5335  1.1010
 1798TIP3    H226886   1.314   6.699   2.538 -0.2074 -0.6684 -0.0464
 1799TIP3   OH226887   4.644   6.558  15.075 -0.2433 -0.0240  0.1200
 1799TIP3    H126888   4.602   6.531  14.993  0.6908  0.3280 -0.4818
 1799TIP3    H226889   4.575   6.607  15.121 -0.7639 -0.1720 -0.4768
 1800TIP3   OH226890   6.814   2.786   3.823 -0.3277  0.4627  0.3342
 1800TIP3    H126891   6.828   2.745   3.909 -1.0042 -1.0573 -0.2475
 1800TIP3    H226892   6.859   2.870   3.830  0.2727  0.0629  1.9293
 1801TIP3   OH226893   4.779   0.596  11.696 -0.0164 -0.3146  0.5369
 1801TIP3    H126894   4.833   0.584  11.773 -1.2206  1.0586  1.6562
 1801TIP3    H226895   4.839   0.586  11.622  0.9946 -2.5221  1.5693
 1802TIP3   OH226896   5.075   6.646   0.100  0.1099 -0.0275 -0.1190
 1802TIP3    H126897   5.037   6.681   0.019 -3.0865 -0.3788  1.0821
 1802TIP3    H226898   5.149   6.704   0.119 -0.5600  1.5487 -1.9886
 1803TIP3   OH226899   2.504   4.649  16.483  0.6351 -0.1853 -0.0359
 1803TIP3    H126900   2.421   4.603  16.494  0.0983  1.1379  2.1651
 1803TIP3    H226901   2.485   4.740  16.506  2.2479  0.6116 -1.6031
 1804TIP3   OH226902   3.977   2.733  16.252 -0.2108 -0.3958  0.1665
 1804TIP3    H126903   4.042   2.756  16.186  0.8122  1.6020  1.7565
 1804TIP3    H226904   3.988   2.639  16.265  1.1056 -0.4083 -0.8701
 1805TIP3   OH226905   2.646   5.391  16.054 -0.0669 -0.1212  0.8364
 1805TIP3    H126906   2.592   5.455  16.101  1.2672  0.2878  1.8653
 1805TIP3    H226907   2.730   5.435  16.040 -0.0133 -0.6968 -0.8530
 1806TIP3   OH226908   6.078   4.619  14.532 -0.1253 -0.1151 -0.1273
 1806TIP3    H126909   5.984   4.604  14.522 -0.0234 -0.9063  0.0195
 1806TIP3    H226910   6.114   4.532  14.550  0.3557  0.4680  2.0110
 1807TIP3   OH226911   6.008   3.116  15.100  0.5604  0.2302 -0.8798
 1807TIP3    H126912   5.919   3.091  15.123  1.0547  0.1408  1.1412
 1807TIP3    H226913   6.060   3.097  15.178  2.7169 -1.4175 -2.5506
 1808TIP3   OH226914   5.866   2.764   5.485  0.2943  0.1032  0.0618
 1808TIP3    H126915   5.813   2.830   5.441  0.7892 -0.6695 -1.7937
 1808TIP3    H226916   5.802   2.701   5.521 -0.1378  1.1103  1.1230
 1809TIP3   OH226917   2.557   6.239  12.304 -0.6675  0.9729  0.1514
 1809TIP3    H126918   2.574   6.308  12.241  0.5868 -0.2669 -0.9279
 1809TIP3    H226919   2.516   6.284  12.378 -2.1353  2.4639 -1.4942
 1810TIP3   OH226920   2.495   2.260  11.908  0.4402 -0.6765  0.2974
 1810TIP3    H126921   2.401   2.245  11.924  0.4590 -0.6735  0.4153
 1810TIP3    H226922   2.500   2.288  11.817  0.3309 -0.7267  0.2751
 1811TIP3   OH226923   5.564   5.905  12.174 -0.2766 -0.1516 -0.3891
 1811TIP3    H126924   5.603   5.983  12.136 -0.7849 -0.0074 -0.6216
 1811TIP3    H226925   5.470   5.919  12.168 -0.3748 -0.4682  0.2110
 1812TIP3   OH226926   5.300   2.971   0.810  0.0058  0.6450 -0.4943
 1812TIP3    H126927   5.265   3.050   0.851  2.4319  1.3825  0.3245
 1812TIP3    H226928   5.277   2.901   0.870  1.7259  1.4326  1.2169
 1813TIP3   OH226929   3.471   5.262  12.105  0.5504 -0.0090  0.2334
 1813TIP3    H126930   3.395   5.320  12.096 -0.7730 -1.7146  0.0875
 1813TIP3    H226931   3.532   5.313  12.159 -1.0160  1.0979  1.0515
 1814TIP3   OH226932   6.606   0.585   5.390 -0.2753  0.3459  0.1647
 1814TIP3    H126933   6.517   0.617   5.383 -0.2209  0.2386 -1.3788
 1814TIP3    H226934   6.649   0.614   5.309  1.4708  1.5070  1.4253
 1815TIP3   OH226935   2.246   2.183  13.513  0.4451 -0.7807  0.0567
 1815TIP3    H126936   2.154   2.166  13.532  0.6529 -0.4448  1.4830
 1815TIP3    H226937   2.259   2.274  13.538  1.3988 -1.1111  0.8152
 1816TIP3   OH226938   6.130   2.050   3.216  0.1086 -0.2306  0.6782
 1816TIP3    H126939   6.045   2.026   3.252  0.4529 -0.6141  1.2283
 1816TIP3    H226940   6.168   2.110   3.280 -0.6799  1.7389 -0.5977
 1817TIP3   OH226941   0.784   6.421   5.449  0.3807 -0.1943  0.1323
 1817TIP3    H126942   0.873   6.398   5.424 -0.1127  0.2907 -2.3400
 1817TIP3    H226943   0.731   6.345   5.422 -0.1107  0.0302  0.4476
 1818TIP3   OH226944   5.671   1.505   2.402 -0.1843 -0.0839 -0.7029
 1818TIP3    H126945   5.754   1.461   2.383 -0.8999 -1.3147 -1.0875
 1818TIP3    H226946   5.619   1.439   2.448 -0.8004  0.8191 -0.0663
 1819TIP3   OH226947   4.534   3.210   0.076  0.2698  0.5704 -0.1066
 1819TIP3    H126948   4.567   3.277   0.135 -0.6782  0.3588  0.7023
 1819TIP3    H226949   4.539   3.250  -0.011 -1.3055  2.1499  0.4671
 1820TIP3   OH226950   5.058   4.737  13.117  0.4248  0.4178  0.4226
 1820TIP3    H126951   4.971   4.697  13.122  0.8024 -0.5734 -0.5638
 1820TIP3    H226952   5.063   4.792  13.195 -0.6599 -0.3614  1.0758
 1821TIP3   OH226953   5.721   4.660  12.765 -0.3090 -0.0523 -0.1798
 1821TIP3    H126954   5.654   4.667  12.834 -2.5779 -0.2978 -2.1976
 1821TIP3    H226955   5.769   4.580  12.786  0.0969  0.6686  1.8906
 1822TIP3   OH226956   6.320   3.992  14.116 -0.3938 -0.3864  0.1464
 1822TIP3    H126957   6.399   4.046  14.115 -0.7592  0.1886 -1.7310
 1822TIP3    H226958   6.350   3.905  14.090 -0.5992  0.2637 -2.4656
 1823TIP3   OH226959   1.857   1.543   3.621  0.0631  0.2570  0.5295
 1823TIP3    H126960   1.909   1.597   3.561  1.0400  0.4595  1.5279
 1823TIP3    H226961   1.831   1.467   3.568  2.1360 -0.3013  0.2133
 1824TIP3   OH226962   4.838   3.653   2.841 -0.1435 -0.1883 -0.1705
 1824TIP3    H126963   4.805   3.726   2.789  3.0782  1.3933 -0.2138
 1824TIP3    H226964   4.807   3.670   2.930 -0.3086  0.6372 -0.3811
 1825TIP3   OH226965   5.441   3.203   1.765 -0.2318  0.3591  0.0241
 1825TIP3    H126966   5.498   3.183   1.691 -0.4992 -0.6365  0.0830
 1825TIP3    H226967   5.445   3.126   1.821 -3.4141 -0.7518 -1.0921
 1826TIP3   OH226968   5.786   4.059  16.110 -0.0812  0.2539  0.0650
 1826TIP3    H126969   5.777   4.050  16.205  0.0341  1.4186  0.2009
 1826TIP3    H226970   5.857   4.123  16.098 -0.5334  0.6169 -0.7917
 1827TIP3   OH226971   0.961   4.896  13.398 -0.3856 -0.2577 -0.0877
 1827TIP3    H126972   1.007   4.943  13.328  0.1745  0.5138  0.7657
 1827TIP3    H226973   0.927   4.966  13.455 -1.6636 -0.8478 -0.1020
 1828TIP3   OH226974   5.006   2.274   3.104  0.3386  0.1027 -0.5298
 1828TIP3    H126975   4.920   2.314   3.106 -0.2116 -1.0578  1.1010
 1828TIP3    H226976   5.057   2.328   3.043 -1.0738  1.7192 -0.3294
 1829TIP3   OH226977   0.609   0.672  12.253  0.3971  0.7162 -0.0698
 1829TIP3    H126978   0.593   0.741  12.189 -1.5645  0.8873  0.5412
 1829TIP3    H226979   0.674   0.614  12.212 -1.7209  0.0961 -2.7658
 1830TIP3   OH226980   6.815   3.501  16.888 -0.4829  0.6841  0.3403
 1830TIP3    H126981   6.781   3.530  16.973 -0.6482  0.3659  0.3818
 1830TIP3    H226982   6.824   3.582  16.838  0.5700  0.9974  1.0003
 1831TIP3   OH226983   2.198   4.904   4.225  0.0155 -0.6396  0.5839
 1831TIP3    H126984   2.160   4.925   4.310 -1.4676  0.0898 -0.2296
 1831TIP3    H226985   2.153   4.823   4.198  0.7848 -1.1057  0.6634
 1832TIP3   OH226986   0.014   0.832   3.643  0.1154 -0.2821 -0.0069
 1832TIP3    H126987   0.032   0.789   3.559  0.4124 -0.9341  0.3807
 1832TIP3    H226988   0.098   0.835   3.688  0.1636  1.0195 -0.1530
 1833TIP3   OH226989   5.397   3.152   3.403  0.1756 -0.7247  0.0679
 1833TIP3    H126990   5.408   3.075   3.347 -0.8904  1.0582 -2.8007
 1833TIP3    H226991   5.424   3.122   3.490  0.4788 -4.1045 -1.0386
 1834TIP3   OH226992   6.038   3.190   6.642 -0.0952 -0.4598  1.0770
 1834TIP3    H126993   6.030   3.173   6.736 -1.1964 -0.0194  1.0775
 1834TIP3    H226994   6.017   3.106   6.601  1.1789 -0.8793  1.2156
 1835TIP3   OH226995   3.363   2.207   4.488 -0.0051  0.3074  0.4453
 1835TIP3    H126996   3.340   2.155   4.565  2.5493  0.4384  1.4066
 1835TIP3    H226997   3.410   2.282   4.524 -0.3145  1.2906 -1.1525
 1836TIP3   OH226998   4.441   5.447  11.807 -0.7029  0.8036  0.6656
 1836TIP3    H126999   4.413   5.356  11.796 -0.7272  0.8921 -0.0351
 1836TIP3    H227000   4.462   5.477  11.719 -0.7568  1.4990  0.8806
 1837TIP3   OH227001   4.603   1.976   4.697 -0.2150  0.1207 -0.6066
 1837TIP3    H127002   4.615   2.069   4.717  0.7541 -0.0975 -0.0927
 1837TIP3    H227003   4.625   1.931   4.778 -2.4315 -0.4974 -0.2772
 1838TIP3   OH227004   1.269   2.752   4.150  0.2920  0.0192  0.1146
 1838TIP3    H127005   1.255   2.800   4.068  0.9159 -0.3390 -0.2120
 1838TIP3    H227006   1.211   2.676   4.143  0.5148 -0.1307 -0.0943
 1839TIP3   OH227007   4.212   6.321   6.025 -0.7528 -0.4316 -0.0732
 1839TIP3    H127008   4.229   6.228   6.011  0.7207 -0.2455  0.3437
 1839TIP3    H227009   4.184   6.327   6.116  1.8519 -0.1784  0.7748
 1840TIP3   OH227010   6.498   2.488   4.558  0.3343  0.6314  0.4945
 1840TIP3    H127011   6.404   2.500   4.545  0.2301 -0.8235 -0.2356
 1840TIP3    H227012   6.505   2.421   4.626  0.8585  1.3535  1.1650
 1841TIP3   OH227013   3.350   2.486   4.687 -0.0355  0.4376 -0.7260
 1841TIP3    H127014   3.260   2.478   4.717  0.4446  3.1989  1.9922
 1841TIP3    H227015   3.403   2.448   4.757  0.9742  2.8090 -0.0805
 1842TIP3   OH227016   1.601   5.528  10.837  0.9151  0.0132  0.2489
 1842TIP3    H127017   1.579   5.445  10.878 -0.3852 -0.1631 -0.7481
 1842TIP3    H227018   1.642   5.504  10.754 -0.8529  0.3126 -0.7660
 1843TIP3   OH227019   2.800   1.678  15.379 -0.9175  0.0415 -0.1584
 1843TIP3    H127020   2.747   1.756  15.395 -0.9432 -0.2573  1.3986
 1843TIP3    H227021   2.754   1.609  15.427 -0.5123 -0.7804 -0.9429
 1844TIP3   OH227022   5.489   0.782  14.123  0.0930 -0.4216  0.0127
 1844TIP3    H127023   5.405   0.752  14.157  0.5820 -1.9165 -0.0202
 1844TIP3    H227024   5.538   0.701  14.105  1.0534  0.3854 -1.1877
 1845TIP3   OH227025   0.023   5.058   0.887 -0.5215  0.3377 -0.1067
 1845TIP3    H127026  -0.026   5.094   0.961  0.8517  2.8843 -0.3063
 1845TIP3    H227027  -0.015   5.101   0.810 -0.6427 -0.8003 -0.7050
 1846TIP3   OH227028   6.584   6.532   2.656 -0.4435 -0.3873  0.1150
 1846TIP3    H127029   6.571   6.627   2.651  0.4355 -0.1831  1.1793
 1846TIP3    H227030   6.591   6.504   2.565  0.2006  0.7102 -0.1963
 1847TIP3   OH227031   6.721   0.405  14.215  0.2679 -0.6731  0.3252
 1847TIP3    H127032   6.655   0.377  14.151 -0.7199 -0.9736  1.4447
 1847TIP3    H227033   6.743   0.494  14.189 -0.8141 -0.4531  0.0910
 1848TIP3   OH227034   0.012   4.048   2.813 -0.8415  0.2292  0.0217
 1848TIP3    H127035   0.002   3.994   2.891 -3.0582 -0.0961 -0.4183
 1848TIP3    H227036   0.032   3.986   2.743 -0.6616  0.3004  0.0107
 1849TIP3   OH227037   4.411   0.828   1.327  0.3650  0.3208  0.2625
 1849TIP3    H127038   4.462   0.771   1.385  0.8017  0.3472 -0.0884
 1849TIP3    H227039   4.458   0.911   1.329 -0.0008  0.5239  0.3965
 1850TIP3   OH227040   4.105   5.730  14.242  0.2754 -0.4974  0.3750
 1850TIP3    H127041   4.173   5.724  14.175 -1.3035 -1.0431 -1.2343
 1850TIP3    H227042   4.023   5.729  14.194 -0.9070 -0.0517  2.2809
 1851TIP3   OH227043   3.051   3.841  17.107 -0.0663 -0.5315  0.7049
 1851TIP3    H127044   3.017   3.798  17.185 -1.6607 -0.8313 -0.0897
 1851TIP3    H227045   3.008   3.927  17.106  0.1302 -0.4330  0.3068
 1852TIP3   OH227046   6.040   5.302   1.470  0.4065  0.1896  0.0987
 1852TIP3    H127047   6.043   5.283   1.376  0.8958 -0.2462  0.1997
 1852TIP3    H227048   5.949   5.284   1.494  0.8756 -2.4006  0.2398
 1853TIP3   OH227049   6.635   5.824   1.027  0.0699 -0.3356 -0.4889
 1853TIP3    H127050   6.583   5.748   1.002  0.6354 -1.4783  1.5987
 1853TIP3    H227051   6.721   5.808   0.987 -0.0327 -0.3897 -0.6915
 1854TIP3   OH227052   6.216   0.403   6.437 -0.0134  0.0293  0.7085
 1854TIP3    H127053   6.268   0.350   6.377 -0.3124  0.7395 -0.2081
 1854TIP3    H227054   6.278   0.432   6.504  1.2606  2.3134 -1.3016
 1855TIP3   OH227055   6.724   1.685  15.216  0.4854  0.1262  0.3766
 1855TIP3    H127056   6.693   1.749  15.280 -0.3264  0.5104 -0.3677
 1855TIP3    H227057   6.671   1.607  15.232  2.7794 -1.1115  2.5597
 1856TIP3   OH227058   4.353   0.708  15.657  0.6751 -0.1428 -0.7562
 1856TIP3    H127059   4.439   0.683  15.623  1.1894 -0.3525  0.6696
 1856TIP3    H227060   4.327   0.783  15.604  1.2511 -0.7230 -1.8955
 1857TIP3   OH227061   2.964   0.287   1.014  0.2961 -0.1177  0.5245
 1857TIP3    H127062   3.040   0.345   1.012  0.1629  0.0446 -0.5632
 1857TIP3    H227063   2.983   0.220   0.948 -0.6688  0.1723 -0.0724
 1858TIP3   OH227064   6.520   4.706  10.996  0.3325 -0.3558 -0.2544
 1858TIP3    H127065   6.535   4.615  10.974 -1.8989 -0.9841  0.5389
 1858TIP3    H227066   6.430   4.723  10.969  0.0368  1.0067  1.4083
 1859TIP3   OH227067   5.589   5.270  15.512  0.2702  0.5784 -0.0102
 1859TIP3    H127068   5.604   5.266  15.418  3.5712  2.4260  0.2598
 1859TIP3    H227069   5.561   5.182  15.536  0.5241 -0.2647 -2.5401
 1860TIP3   OH227070   4.071   3.120   4.321  0.2503 -0.1789  0.1726
 1860TIP3    H127071   4.025   3.041   4.349  2.1325 -1.0308  1.0064
 1860TIP3    H227072   4.088   3.106   4.228  0.3806 -0.6563  0.2687
 1861TIP3   OH227073   4.798   0.542   4.213  0.2779 -0.0438  0.1505
 1861TIP3    H127074   4.708   0.533   4.246 -0.1976 -1.5634 -1.3948
 1861TIP3    H227075   4.850   0.488   4.273  0.1172  0.5710  0.8563
 1862TIP3   OH227076   2.878   2.825  12.137 -0.2873  0.0107 -0.0299
 1862TIP3    H127077   2.880   2.859  12.226 -1.1587  0.0714 -0.0263
 1862TIP3    H227078   2.968   2.796  12.120  0.1049  0.8678  0.5237
 1863TIP3   OH227079   1.510   5.534   2.581  0.4017  0.3171  0.1475
 1863TIP3    H127080   1.515   5.612   2.637  0.2259 -0.8810  1.9151
 1863TIP3    H227081   1.513   5.460   2.642  0.6700 -1.0853 -1.4767
 1864TIP3   OH227082   2.238   3.140   5.875  0.1147 -0.0485  0.1356
 1864TIP3    H127083   2.308   3.090   5.916  0.3977 -0.4731 -0.8359
 1864TIP3    H227084   2.173   3.152   5.944 -0.7577 -3.2220  0.0266
 1865TIP3   OH227085   5.704   4.869   2.105  0.2467 -0.7040 -0.5039
 1865TIP3    H127086   5.744   4.856   2.191 -1.0548 -0.1190  0.2115
 1865TIP3    H227087   5.680   4.781   2.076  0.1635 -0.8445 -0.0056
 1866TIP3   OH227088   0.471   2.222  11.117  0.5846 -0.1421  0.9295
 1866TIP3    H127089   0.516   2.306  11.122  1.8626 -0.7606  0.2854
 1866TIP3    H227090   0.522   2.171  11.054 -0.6643 -1.1048  0.6583
 1867TIP3   OH227091   4.488   5.567  12.320  0.1729  0.3631  0.1253
 1867TIP3    H127092   4.470   5.479  12.286  1.4590 -0.4131  1.3281
 1867TIP3    H227093   4.580   5.583  12.298 -0.0864  1.4745 -0.2006
 1868TIP3   OH227094   5.219   1.032  14.778 -0.2216 -0.4091 -0.5249
 1868TIP3    H127095   5.262   1.095  14.836 -2.0231  0.2661  0.1538
 1868TIP3    H227096   5.233   1.067  14.690 -0.9634  0.8060 -0.1784
 1869TIP3   OH227097   4.030   5.190   1.770  0.2936 -0.2051  0.3584
 1869TIP3    H127098   3.991   5.158   1.852 -2.1219  1.3017 -0.1071
 1869TIP3    H227099   4.041   5.111   1.717 -1.2035 -0.8559  0.9375
 1870TIP3   OH227100   6.565   6.024  12.758 -0.0880 -0.3968  0.3389
 1870TIP3    H127101   6.540   5.969  12.684  0.8590  0.2092 -0.4526
 1870TIP3    H227102   6.608   5.964  12.820 -0.7981 -0.8867  0.3719
 1871TIP3   OH227103   6.667   0.744   3.940  0.4240  0.5007 -0.7204
 1871TIP3    H127104   6.594   0.796   3.907 -0.4550 -0.7368 -0.7996
 1871TIP3    H227105   6.682   0.678   3.873 -1.1206 -1.8062  1.0516
 1872TIP3   OH227106   2.565   4.493  13.346  0.4020 -0.4128  0.3160
 1872TIP3    H127107   2.523   4.573  13.376  1.3637  0.2833 -0.1500
 1872TIP3    H227108   2.551   4.430  13.417  1.3421  0.7457  1.5650
 1873TIP3   OH227109   3.264   6.149   3.710  0.3157  0.5156  0.1002
 1873TIP3    H127110   3.315   6.186   3.782  0.3342  1.5520 -0.4258
 1873TIP3    H227111   3.329   6.107   3.654  0.3580  0.1448  0.4218
 1874TIP3   OH227112   4.923   6.301   1.223 -0.4375  0.2201  0.1775
 1874TIP3    H127113   4.921   6.305   1.128 -0.9165 -0.9540  0.1265
 1874TIP3    H227114   4.907   6.391   1.252 -1.1045  0.4342 -0.8376
 1875TIP3   OH227115   1.126   6.532  12.264  0.0518 -0.2579 -0.1230
 1875TIP3    H127116   1.188   6.583  12.212  1.0246 -1.2058  0.0511
 1875TIP3    H227117   1.176   6.455  12.291 -0.6975 -0.1999  1.5017
 1876TIP3   OH227118   0.398   2.929  16.822  0.6100 -0.0603 -0.2032
 1876TIP3    H127119   0.488   2.899  16.837  0.7133 -0.3333 -1.2987
 1876TIP3    H227120   0.344   2.872  16.877  1.0872 -0.0459  0.2837
 1877TIP3   OH227121   5.701   5.239   1.036  0.0580 -0.2465 -0.0528
 1877TIP3    H127122   5.741   5.322   1.008 -2.5701  1.4254  0.8054
 1877TIP3    H227123   5.735   5.225   1.124  1.6404 -0.9235 -0.7303
 1878TIP3   OH227124   6.202   6.317  14.832  0.4313 -0.3139 -0.1704
 1878TIP3    H127125   6.276   6.359  14.877  0.4315 -0.6875  0.1947
 1878TIP3    H227126   6.129   6.327  14.893  0.7810 -2.1299  0.6249
 1879TIP3   OH227127   5.780   2.533   1.666 -0.2788 -0.1065 -0.3649
 1879TIP3    H127128   5.742   2.476   1.599 -0.3243 -1.5140  0.8049
 1879TIP3    H227129   5.875   2.523   1.654 -0.2815  0.5783 -0.9762
 1880TIP3   OH227130   0.507   1.356  16.184  0.1165 -0.3083  0.3483
 1880TIP3    H127131   0.596   1.379  16.157 -0.2493 -1.1947 -1.8292
 1880TIP3    H227132   0.455   1.434  16.162  0.0634 -0.4712 -0.1079
 1881TIP3   OH227133   0.300   4.855  13.623  0.5332 -0.3229  0.7455
 1881TIP3    H127134   0.227   4.830  13.680 -1.3789  1.8998 -0.5415
 1881TIP3    H227135   0.370   4.794  13.646 -1.6691 -2.5503  2.1144
 1882TIP3   OH227136   1.433   5.309  11.483  0.2532  0.1257  0.2720
 1882TIP3    H127137   1.387   5.373  11.536 -1.4123 -1.1734  0.4659
 1882TIP3    H227138   1.485   5.361  11.422 -0.9030  1.6374  0.5347
 1883TIP3   OH227139   5.688   0.426  14.386 -0.0139  1.0639 -0.5676
 1883TIP3    H127140   5.695   0.378  14.304  1.3044 -0.0001  0.1114
 1883TIP3    H227141   5.779   0.438  14.415 -0.3540  3.0776 -0.1741
 1884TIP3   OH227142   3.882   5.084   5.218 -0.0660  0.0424  0.5218
 1884TIP3    H127143   3.903   5.135   5.140  3.8162 -1.7018  0.2216
 1884TIP3    H227144   3.949   5.016   5.221 -2.5107 -2.5301  3.1686
 1885TIP3   OH227145   3.026   0.880  11.162 -0.3240  0.6185 -0.9967
 1885TIP3    H127146   2.934   0.854  11.165 -0.1876 -0.0223 -1.8680
 1885TIP3    H227147   3.063   0.829  11.089  1.0923 -0.3551  0.3268
 1886TIP3   OH227148   4.028   6.039  11.045  0.0591  0.1694  0.1631
 1886TIP3    H127149   4.056   6.076  11.128 -1.8839  2.6931 -0.1728
 1886TIP3    H227150   4.059   6.102  10.979  0.2653 -1.0043 -0.8958
 1887TIP3   OH227151   1.025   1.960  15.930 -0.3682 -0.5528 -0.1989
 1887TIP3    H127152   1.051   1.957  16.022 -0.4300 -3.2158 -0.1943
 1887TIP3    H227153   1.039   2.051  15.904 -0.5336  0.3116  2.4720
 1888TIP3   OH227154   6.551   2.852   5.766  0.0465 -0.4896  0.5799
 1888TIP3    H127155   6.511   2.766   5.758  0.7900 -1.0440  2.3086
 1888TIP3    H227156   6.603   2.847   5.847  1.5550  0.9941 -0.2304
 1889TIP3   OH227157   1.897   6.398  13.583  0.8179  0.5697  0.1062
 1889TIP3    H127158   1.901   6.458  13.657  0.4886  1.9467 -0.9317
 1889TIP3    H227159   1.814   6.420  13.540 -0.3754 -2.0849  0.8295
 1890TIP3   OH227160   0.592   2.085   3.575  0.3373  0.3492  0.0801
 1890TIP3    H127161   0.639   2.003   3.590  2.4903  1.7412  1.4315
 1890TIP3    H227162   0.542   2.100   3.655  0.6995  0.8183  0.2214
 1891TIP3   OH227163   4.502   2.396  15.248 -0.6255  0.1637 -0.3153
 1891TIP3    H127164   4.420   2.348  15.254 -0.8117  0.5018 -0.0828
 1891TIP3    H227165   4.532   2.382  15.158 -0.8253 -0.1437 -0.3333
 1892TIP3   OH227166   1.991   2.210  11.866  0.5894 -0.1800  0.0474
 1892TIP3    H127167   1.962   2.262  11.791 -0.0694 -1.0517 -0.3300
 1892TIP3    H227168   1.914   2.158  11.890  0.8910 -0.1644  1.1211
 1893TIP3   OH227169   1.868   1.630   1.633 -0.5193 -0.1680  0.4447
 1893TIP3    H127170   1.947   1.642   1.580 -0.8579  0.4019  0.0550
 1893TIP3    H227171   1.846   1.538   1.622  0.8089 -0.6494  1.5870
 1894TIP3   OH227172   4.630   3.841   2.082  0.5065 -0.0693  0.4959
 1894TIP3    H127173   4.694   3.863   2.014 -1.5821  0.3340 -1.4768
 1894TIP3    H227174   4.598   3.754   2.058 -0.4095  0.1605  0.8113
 1895TIP3   OH227175   0.367   3.060  16.581 -0.2464  0.0930  0.0012
 1895TIP3    H127176   0.381   3.001  16.654 -2.8994  1.0517  1.4147
 1895TIP3    H227177   0.315   3.010  16.518 -3.8990  1.1415  1.8943
 1896TIP3   OH227178   5.132   6.569   4.103  0.1882  0.0445 -0.0866
 1896TIP3    H127179   5.156   6.659   4.125 -0.0235 -0.1042  0.7912
 1896TIP3    H227180   5.175   6.516   4.170 -0.0621 -0.4703 -0.3300
 1897TIP3   OH227181   2.191   2.401   0.149 -0.1430  0.4766  0.1375
 1897TIP3    H127182   2.243   2.475   0.180 -1.8752  1.6367  0.4700
 1897TIP3    H227183   2.174   2.422   0.057  0.5284 -0.2418 -0.1574
 1898TIP3   OH227184   5.028   0.719  14.155 -0.4818 -0.1387  0.5326
 1898TIP3    H127185   5.046   0.803  14.113  0.2197  0.3613  1.7659
 1898TIP3    H227186   5.112   0.674  14.156 -1.5813 -2.9269 -4.2012
 1899TIP3   OH227187   4.646   4.041  13.764 -0.2552  0.0081  0.5636
 1899TIP3    H127188   4.644   4.136  13.752  0.1628  0.1733  1.7587
 1899TIP3    H227189   4.692   4.009  13.686  0.4442  0.8603  0.6138
 1900TIP3   OH227190   1.623   0.420   2.474  0.7375  0.0264  0.3946
 1900TIP3    H127191   1.532   0.436   2.496  0.1595  1.4397 -2.5424
 1900TIP3    H227192   1.664   0.507   2.478  1.8345 -0.4980  1.0766
 1901TIP3   OH227193   2.411   1.308   3.468  0.6901  0.6984  0.1392
 1901TIP3    H127194   2.409   1.341   3.378  0.2368  1.1171  0.2982
 1901TIP3    H227195   2.431   1.215   3.459  0.4754  0.7040 -0.4039
 1902TIP3   OH227196   3.790   5.139  13.147  0.1642  0.0975 -0.1823
 1902TIP3    H127197   3.721   5.205  13.154  0.7100  0.6152  0.3693
 1902TIP3    H227198   3.859   5.182  13.097  0.5501 -0.0258  0.2407
 1903TIP3   OH227199   3.988   4.803  16.827  0.3721 -0.2354  0.5958
 1903TIP3    H127200   3.950   4.718  16.851  2.2519 -1.8542 -1.7323
 1903TIP3    H227201   3.919   4.847  16.776 -0.4588 -0.4939  1.4534
 1904TIP3   OH227202   5.809   4.331  14.053  0.3054 -0.3361 -0.6887
 1904TIP3    H127203   5.841   4.362  13.968  0.0936  2.0061  0.0032
 1904TIP3    H227204   5.855   4.386  14.117 -2.5521  0.8454  0.4928
 1905TIP3   OH227205   6.099   0.502  16.719  0.4815  0.5476  0.1033
 1905TIP3    H127206   6.099   0.464  16.631 -0.0797  1.8787 -0.5065
 1905TIP3    H227207   6.181   0.551  16.724  0.0879  1.2396 -0.0483
 1906TIP3   OH227208   6.106   0.946   5.690 -0.3906  0.3783  0.5303
 1906TIP3    H127209   6.089   1.036   5.719 -0.5561 -0.0650  1.8862
 1906TIP3    H227210   6.188   0.952   5.642  0.1494  1.1028  1.4931
 1907TIP3   OH227211   1.786   3.884   3.937  1.0070 -0.2862  0.2871
 1907TIP3    H127212   1.866   3.837   3.914 -0.4583 -1.7071 -2.2808
 1907TIP3    H227213   1.715   3.831   3.900 -1.0127  1.9974  0.6431
 1908TIP3   OH227214   1.922   4.336  14.100  0.2986  0.0677 -0.5621
 1908TIP3    H127215   1.915   4.335  14.004 -1.0497  0.3332 -0.4852
 1908TIP3    H227216   1.913   4.244  14.126  1.3074 -0.0861 -0.7105
 1909TIP3   OH227217   5.989   5.719  16.097 -0.7360  0.2746 -0.8100
 1909TIP3    H127218   6.035   5.637  16.076 -1.5637 -0.2518 -0.5934
 1909TIP3    H227219   5.901   5.706  16.063 -0.9835  0.9317 -0.4302
 1910TIP3   OH227220   2.264   0.708  12.523  0.4972  0.0243  0.2995
 1910TIP3    H127221   2.263   0.615  12.545  0.8226 -0.3021 -0.9332
 1910TIP3    H227222   2.216   0.714  12.440  2.8220  0.4969 -1.1072
 1911TIP3   OH227223   6.031   0.212  16.848 -0.7418  0.9455  0.4894
 1911TIP3    H127224   6.124   0.195  16.859 -0.3707  3.4856  1.8864
 1911TIP3    H227225   5.994   0.127  16.822  1.6960 -0.4718  1.3438
 1912TIP3   OH227226   3.537   1.803  13.475 -0.4484  0.1154 -0.5542
 1912TIP3    H127227   3.514   1.879  13.420  0.3454  0.3707 -0.5503
 1912TIP3    H227228   3.464   1.743  13.466  0.2852 -0.5146 -3.0990
 1913TIP3   OH227229   4.327   1.535   2.986 -0.0793  0.1360 -1.4047
 1913TIP3    H127230   4.401   1.593   3.003  0.1265 -0.3612 -0.5531
 1913TIP3    H227231   4.252   1.594   2.976 -0.1469  0.5337  0.8750
 1914TIP3   OH227232   1.468   5.085   5.326 -0.2983  0.0338  0.5402
 1914TIP3    H127233   1.462   5.013   5.389 -0.8167 -1.2809 -0.9541
 1914TIP3    H227234   1.377   5.107   5.307 -0.2225 -1.0794 -1.3452
 1915TIP3   OH227235   0.767   2.185   2.703 -0.2826 -0.2193  0.1007
 1915TIP3    H127236   0.812   2.105   2.676 -0.5956  0.4828 -2.8465
 1915TIP3    H227237   0.684   2.154   2.740  0.8005 -1.3199  1.7336
 1916TIP3   OH227238   2.472   0.379  15.086 -0.6695  0.0783  0.2875
 1916TIP3    H127239   2.429   0.302  15.050 -0.0542 -0.4265  0.6030
 1916TIP3    H227240   2.450   0.450  15.026 -0.9054 -0.4292 -0.2318
 1917TIP3   OH227241   3.852   0.320  14.407  0.3975 -0.0758  0.1022
 1917TIP3    H127242   3.947   0.310  14.404  0.3633 -0.1821 -2.0888
 1917TIP3    H227243   3.820   0.231  14.424  0.6504 -0.4323 -1.1861
 1918TIP3   OH227244   5.014   0.390   3.621  0.4068 -0.6696  0.4901
 1918TIP3    H127245   5.101   0.354   3.638  0.8987  0.8471  1.3316
 1918TIP3    H227246   4.994   0.361   3.532  3.0015  1.2479 -0.8637
 1919TIP3   OH227247   4.378   3.935  15.508 -0.4817  0.0876 -0.0714
 1919TIP3    H127248   4.430   4.005  15.549  2.1026 -0.7501 -1.7199
 1919TIP3    H227249   4.395   3.944  15.415 -2.9271 -0.6155 -0.6434
 1920TIP3   OH227250   2.919   3.448   1.458  0.2946  0.7261 -0.0790
 1920TIP3    H127251   2.989   3.388   1.485  2.7652  3.5853  0.3350
 1920TIP3    H227252   2.871   3.465   1.539  1.6456  1.7535  0.5600
 1921TIP3   OH227253   6.195   0.672   2.300 -0.2595  0.2948  0.8367
 1921TIP3    H127254   6.140   0.644   2.372  0.1194 -0.4863  0.8278
 1921TIP3    H227255   6.210   0.593   2.248 -0.0014  0.7133  0.2566
 1922TIP3   OH227256   1.028   0.451   2.638 -0.0117  0.7461  0.3366
 1922TIP3    H127257   1.097   0.399   2.680 -0.2285 -0.3792 -0.6665
 1922TIP3    H227258   0.947   0.421   2.680 -0.0455  0.9289  0.4012
 1923TIP3   OH227259   2.353   3.977  16.114  0.1140 -0.7729  0.0938
 1923TIP3    H127260   2.420   4.022  16.165 -0.2992  0.1974 -0.1848
 1923TIP3    H227261   2.277   3.971  16.173  0.7789 -2.9280  0.8227
 1924TIP3   OH227262   1.202   2.158  12.638 -0.3873  0.3382  0.4429
 1924TIP3    H127263   1.292   2.161  12.605 -0.4023  0.0737  0.3715
 1924TIP3    H227264   1.162   2.085  12.590 -0.4872  0.1194  0.8595
 1925TIP3   OH227265   4.494   5.724  16.179  0.5704  0.2050 -0.8813
 1925TIP3    H127266   4.454   5.713  16.092  0.2451  0.8330 -0.8144
 1925TIP3    H227267   4.490   5.637  16.218 -1.3469  0.3637 -0.6248
 1926TIP3   OH227268   1.464   0.735  12.969  0.1473  0.4366  0.8427
 1926TIP3    H127269   1.559   0.742  12.981  0.2718  0.0520  0.1095
 1926TIP3    H227270   1.435   0.825  12.952  0.5589  0.3910 -0.1469
 1927TIP3   OH227271   4.664   4.357   0.314 -0.2966  0.6381  0.0518
 1927TIP3    H127272   4.755   4.336   0.335 -0.7554 -1.7293 -0.1078
 1927TIP3    H227273   4.614   4.320   0.387 -1.4212 -2.1645 -1.9720
 1928TIP3   OH227274   3.893   4.903  12.980  0.0885  1.0137  0.0074
 1928TIP3    H127275   3.836   4.954  12.923 -0.6925  0.9432  0.7091
 1928TIP3    H227276   3.885   4.945  13.066 -0.6091 -0.2991  0.6088
 1929TIP3   OH227277   1.055   3.312  12.426 -0.0239 -0.2747 -0.7588
 1929TIP3    H127278   1.124   3.248  12.410 -1.5375 -1.9638 -0.8114
 1929TIP3    H227279   0.984   3.286  12.368 -0.8536  1.2038 -0.4448
 1930TIP3   OH227280   4.146   0.878  12.121 -0.4030  0.8451 -0.0616
 1930TIP3    H127281   4.115   0.968  12.132  0.2543  1.2522 -1.3271
 1930TIP3    H227282   4.071   0.831  12.085 -1.5960  0.2054  2.9394
 1931TIP3   OH227283   3.349   3.710   6.180  0.2951 -0.1749 -0.1160
 1931TIP3    H127284   3.389   3.782   6.229  1.2093 -0.5945 -0.2402
 1931TIP3    H227285   3.419   3.647   6.167 -0.5504 -1.2191  0.1967
 1932TIP3   OH227286   0.946   6.560  16.334 -0.7690  0.0282 -0.2230
 1932TIP3    H127287   0.862   6.599  16.356 -0.7183  0.7060 -1.2004
 1932TIP3    H227288   0.942   6.545  16.240  0.2906  0.2703 -0.3143
 1933TIP3   OH227289   6.018   0.223  15.935 -0.1348  0.2535  0.1623
 1933TIP3    H127290   6.100   0.214  15.887  0.1425  1.8924  0.2952
 1933TIP3    H227291   5.950   0.205  15.869  0.2840 -2.3760  0.3337
 1934TIP3   OH227292   0.014   3.390   6.618 -0.4519 -0.0046  0.3826
 1934TIP3    H127293  -0.046   3.332   6.570 -0.9107 -1.0511  2.0921
 1934TIP3    H227294  -0.038   3.469   6.634  0.5187  1.4399 -2.8700
 1935TIP3   OH227295   1.475   0.522   1.715 -0.0300 -0.4013 -0.3643
 1935TIP3    H127296   1.569   0.528   1.705 -0.0880 -0.5587 -1.0319
 1935TIP3    H227297   1.459   0.540   1.808  0.4328  2.0160 -0.6891
 1936TIP3   OH227298   0.372   4.274  15.117 -0.2954  0.0553  0.0730
 1936TIP3    H127299   0.289   4.269  15.069 -0.7806  0.0680  0.8762
 1936TIP3    H227300   0.423   4.200  15.084 -1.3368 -1.0333  0.8125
 1937TIP3   OH227301   3.438   1.797  16.433 -0.2823  0.5243 -0.0574
 1937TIP3    H127302   3.485   1.746  16.367  0.6828  2.0547 -0.6120
 1937TIP3    H227303   3.392   1.864  16.382 -0.5476  0.9552  0.7460
 1938TIP3   OH227304   2.201   1.147  15.242 -0.2882  0.3240  0.6769
 1938TIP3    H127305   2.231   1.211  15.307 -0.0652 -1.2378  2.1751
 1938TIP3    H227306   2.272   1.145  15.177 -0.8899  2.5068 -0.1281
 1939TIP3   OH227307   1.636   3.271  17.010  0.3616 -0.1059 -0.0934
 1939TIP3    H127308   1.660   3.289  16.919 -0.6877 -1.2906 -0.6234
 1939TIP3    H227309   1.682   3.339  17.061  0.9828  0.5474 -1.4877
 1940TIP3   OH227310   3.979   4.607   2.005  0.5397 -0.1003  0.0448
 1940TIP3    H127311   3.906   4.646   1.957  1.5452  2.6824  0.5782
 1940TIP3    H227312   3.945   4.523   2.036 -1.2070 -0.5476 -2.6875
 1941TIP3   OH227313   2.443   3.165   5.634 -0.7902  0.3167 -0.1511
 1941TIP3    H127314   2.538   3.155   5.645 -0.6915  0.2053 -1.0218
 1941TIP3    H227315   2.411   3.184   5.722 -0.0456 -0.3291  0.2766
 1942TIP3   OH227316   3.974   2.160  17.031 -0.0789 -0.2463 -0.1679
 1942TIP3    H127317   3.941   2.193  16.947 -0.9652 -0.1032  0.2347
 1942TIP3    H227318   3.901   2.168  17.091  0.3287 -1.0204  0.4535
 1943TIP3   OH227319   6.016   0.112  13.518 -0.1809 -0.0465  0.5307
 1943TIP3    H127320   6.007   0.025  13.556 -1.7770  0.2908  1.0128
 1943TIP3    H227321   5.994   0.172  13.590  1.1742  0.7805  0.2907
 1944TIP3   OH227322   4.283   0.023  11.556  0.4066  0.1653 -0.0167
 1944TIP3    H127323   4.259   0.103  11.510  1.5300  0.4971 -0.0509
 1944TIP3    H227324   4.337  -0.026  11.494  0.4185 -0.2294  0.2972
 1945TIP3   OH227325   2.757   1.076  15.776 -0.3402 -0.0639  1.1085
 1945TIP3    H127326   2.677   1.063  15.827 -0.2047  0.8699  1.5758
 1945TIP3    H227327   2.814   1.004  15.803 -0.9416 -0.6301  0.9089
 1946TIP3   OH227328   1.833   4.384   0.634  0.0580 -0.2305 -0.0503
 1946TIP3    H127329   1.794   4.318   0.692 -0.1031  0.7651  1.0200
 1946TIP3    H227330   1.857   4.335   0.555 -0.6279 -1.4437  0.4518
 1947TIP3   OH227331   0.672   6.349   5.713  0.3950  0.4251 -0.2859
 1947TIP3    H127332   0.733   6.406   5.759  1.7652 -0.8850 -0.4219
 1947TIP3    H227333   0.692   6.361   5.620  0.9488 -0.5344 -0.2989
 1948TIP3   OH227334   3.911   1.815   0.281  0.3933  0.2052  0.1216
 1948TIP3    H127335   3.973   1.866   0.229 -2.1112  1.8946 -1.3617
 1948TIP3    H227336   3.853   1.774   0.217 -1.7304  0.9500  1.4574
 1949TIP3   OH227337   6.567   2.492   4.982 -0.6160 -0.2199 -0.0735
 1949TIP3    H127338   6.601   2.432   5.048  0.8523 -0.5426 -1.0814
 1949TIP3    H227339   6.563   2.440   4.901 -3.5373 -0.1984 -0.0584
 1950TIP3   OH227340   1.672   0.249  12.989  0.1052 -0.3762 -0.1324
 1950TIP3    H127341   1.601   0.228  13.049  1.0217  0.1792  1.2062
 1950TIP3    H227342   1.660   0.341  12.968 -0.1300 -0.5321 -0.7041
 1951TIP3   OH227343   4.862   5.166  15.385  0.1680 -0.2225 -0.4632
 1951TIP3    H127344   4.894   5.206  15.466  1.0882  0.5955 -1.2066
 1951TIP3    H227345   4.820   5.084  15.413 -1.8612  1.2687  1.1113
 1952TIP3   OH227346   3.478   2.690  15.740  0.1246  0.2281 -0.3202
 1952TIP3    H127347   3.413   2.648  15.684 -0.5598 -0.5040  1.0021
 1952TIP3    H227348   3.520   2.755  15.682 -1.3120  0.2740 -1.3699
 1953TIP3   OH227349   5.328   6.234  12.557  0.3795 -0.3067 -0.1468
 1953TIP3    H127350   5.273   6.255  12.633 -1.0101 -0.1005 -1.1779
 1953TIP3    H227351   5.358   6.144  12.573  2.0349  0.4871  1.7353
 1954TIP3   OH227352   3.724   2.161  14.600 -0.2873  0.0047 -0.0286
 1954TIP3    H127353   3.640   2.207  14.605 -0.3747 -0.0015 -1.2208
 1954TIP3    H227354   3.790   2.230  14.607 -0.4039  0.1062  0.0608
 1955TIP3   OH227355   3.850   1.060   4.775  0.4117 -0.0666  0.1416
 1955TIP3    H127356   3.767   1.105   4.793  0.0135 -0.3423 -0.9344
 1955TIP3    H227357   3.823   0.974   4.741  1.1505 -1.0333  1.8558
 1956TIP3   OH227358   4.096   1.285   2.133  0.1514 -0.0430 -0.4873
 1956TIP3    H127359   4.162   1.222   2.159 -0.1421 -0.0482  0.2720
 1956TIP3    H227360   4.112   1.362   2.188 -1.2456 -0.5068  0.6223
 1957TIP3   OH227361   6.482   0.328   5.925  0.0224  0.2476 -0.4432
 1957TIP3    H127362   6.498   0.333   5.831  2.0967  0.9894 -0.1060
 1957TIP3    H227363   6.547   0.266   5.958  0.0639  0.8350  0.6375
 1958TIP3   OH227364   4.275   4.595   4.825  0.3240  0.1836 -0.1067
 1958TIP3    H127365   4.225   4.643   4.758 -2.2758  0.9057  2.1622
 1958TIP3    H227366   4.265   4.503   4.800 -1.5196  0.3654 -0.2062
 1959TIP3   OH227367   2.269   3.743   0.864  0.0447  0.2515  0.0238
 1959TIP3    H127368   2.189   3.697   0.839 -0.1196  0.7073 -0.3113
 1959TIP3    H227369   2.245   3.836   0.861  1.1579  0.5313 -2.1790
 1960TIP3   OH227370   3.007   4.377   5.669 -0.1798  0.2155  0.3421
 1960TIP3    H127371   2.932   4.318   5.668  0.9285 -1.2364 -0.9167
 1960TIP3    H227372   2.977   4.454   5.621 -0.9901 -0.1659  0.2214
 1961TIP3   OH227373   5.517   0.132  14.632  0.3296  0.0053  0.0751
 1961TIP3    H127374   5.515   0.097  14.721  3.2006 -0.5956 -0.0010
 1961TIP3    H227375   5.560   0.217  14.640 -3.6322  2.2731 -0.2099
 1962TIP3   OH227376   4.005   5.656  17.047  0.1616  0.6883 -0.0423
 1962TIP3    H127377   3.949   5.604  16.990  1.0947  1.4904 -1.7599
 1962TIP3    H227378   4.093   5.621  17.033  0.6554  2.0591 -0.4704
 1963TIP3   OH227379   0.957   1.097   2.379 -0.2933 -0.4007  0.1663
 1963TIP3    H127380   0.875   1.051   2.397 -0.7617  1.0483  2.1599
 1963TIP3    H227381   0.936   1.156   2.306 -1.3310  0.5238  1.1563
 1964TIP3   OH227382   6.045   5.108  11.112  0.2323 -0.1302  0.5192
 1964TIP3    H127383   6.007   5.072  11.031  0.3929  0.6599  0.0842
 1964TIP3    H227384   6.102   5.038  11.144  0.6701 -0.2191 -0.4071
 1965TIP3   OH227385   5.752   4.398  13.640  0.3204  0.5577  0.4418
 1965TIP3    H127386   5.832   4.416  13.590 -0.4549 -0.9251 -1.4964
 1965TIP3    H227387   5.729   4.308  13.616 -1.4756  0.6600  1.5845
 1966TIP3   OH227388   0.193   5.308   0.393 -0.1281  0.5468  0.2324
 1966TIP3    H127389   0.176   5.216   0.370 -1.0008  0.7444  0.0426
 1966TIP3    H227390   0.107   5.350   0.387  0.4505  1.6367 -0.8142
 1967TIP3   OH227391   4.585   6.549  10.398 -0.1450  0.2372  0.1650
 1967TIP3    H127392   4.658   6.493  10.370  0.6186  0.8928  0.8035
 1967TIP3    H227393   4.582   6.541  10.493 -1.6970 -0.7165  0.0665
 1968TIP3   OH227394   1.144   0.949   5.001  0.0805 -0.1331 -0.3770
 1968TIP3    H127395   1.108   0.861   4.993  0.5407 -0.2011 -2.6340
 1968TIP3    H227396   1.070   1.003   5.028  0.3190 -1.4811  3.5079
 1969TIP3   OH227397   1.609   4.307  11.144  0.3615 -0.0613  0.5651
 1969TIP3    H127398   1.584   4.384  11.195  0.3351  1.4994 -1.6739
 1969TIP3    H227399   1.689   4.332  11.098  0.4862 -1.4387 -0.0368
 1970TIP3   OH227400   2.775   2.753  12.916 -0.5683  0.9780  0.0887
 1970TIP3    H127401   2.853   2.704  12.942 -1.6635 -1.5387 -0.9275
 1970TIP3    H227402   2.803   2.807  12.843  0.0586 -0.6561 -0.9290
 1971TIP3   OH227403   3.356   0.161  10.903 -0.3178  0.1724 -0.3518
 1971TIP3    H127404   3.426   0.208  10.857  0.3232 -1.8135 -1.5236
 1971TIP3    H227405   3.281   0.165  10.844 -1.4021  2.5033  1.0026
 1972TIP3   OH227406   6.262   0.550   4.376  0.0527  0.6758  0.4856
 1972TIP3    H127407   6.295   0.633   4.340  1.0560  0.5891  1.1739
 1972TIP3    H227408   6.179   0.574   4.417 -0.3938  1.0522 -0.6107
 1973TIP3   OH227409   3.567   5.788  11.427  0.1332 -0.0263  0.1765
 1973TIP3    H127410   3.653   5.803  11.465  0.4606  2.1368 -1.2345
 1973TIP3    H227411   3.571   5.831  11.341 -1.9093 -1.0659 -0.5044
 1974TIP3   OH227412   0.489   0.952  15.798 -0.3273 -0.1889  0.3028
 1974TIP3    H127413   0.397   0.973  15.785 -0.0868  0.9780  0.3836
 1974TIP3    H227414   0.495   0.858  15.778 -1.0980  0.2007 -2.1687
 1975TIP3   OH227415   2.248   6.046  11.078  0.0710 -0.0954  0.3677
 1975TIP3    H127416   2.343   6.037  11.080 -0.0004 -1.3653 -0.3176
 1975TIP3    H227417   2.219   5.973  11.023 -1.3311 -0.0465  0.9972
 1976TIP3   OH227418   1.127   6.470   2.041  0.2838  0.2071 -0.2593
 1976TIP3    H127419   1.033   6.486   2.045  0.4438  1.1323  3.1146
 1976TIP3    H227420   1.164   6.548   1.999 -0.3205  0.9716  0.5826
 1977TIP3   OH227421   2.496   4.994  12.109 -0.1071  0.2420 -0.1104
 1977TIP3    H127422   2.525   5.055  12.041  2.1943  0.6988  1.1840
 1977TIP3    H227423   2.493   5.047  12.189  0.9642 -1.1052  0.8576
 1978TIP3   OH227424   6.415   1.132   4.654 -0.6504 -0.8112 -0.2072
 1978TIP3    H127425   6.434   1.038   4.651 -2.2773 -1.1616 -2.6517
 1978TIP3    H227426   6.387   1.153   4.565 -0.5266  1.9818  0.3238
 1979TIP3   OH227427   6.097   0.719   4.545  0.0453  0.3508 -0.1867
 1979TIP3    H127428   6.116   0.675   4.627  2.0897 -1.2169 -1.3957
 1979TIP3    H227429   6.003   0.734   4.546 -0.4562 -2.3557  1.1565
 1980TIP3   OH227430   4.012   0.374   1.872  0.6649  0.2453 -0.3255
 1980TIP3    H127431   4.012   0.348   1.964 -0.5775 -0.6709 -0.5650
 1980TIP3    H227432   4.091   0.428   1.863  0.7078  0.5033  1.3024
 1981TIP3   OH227433   5.353   4.089   1.627 -0.3702 -0.2012 -0.2917
 1981TIP3    H127434   5.290   4.141   1.578 -1.7998 -0.4401  1.2171
 1981TIP3    H227435   5.313   4.002   1.632 -0.3079 -0.1562  1.3567
 1982TIP3   OH227436   2.671   6.382   5.084  0.1421 -0.0025 -0.0410
 1982TIP3    H127437   2.734   6.444   5.048 -1.3476  0.2509 -2.4390
 1982TIP3    H227438   2.586   6.424   5.069 -0.7861 -1.7928 -0.0066
 1983TIP3   OH227439   0.525   6.140   5.807 -0.7345  0.1696  0.3602
 1983TIP3    H127440   0.468   6.177   5.874 -1.7091 -0.6812  0.0292
 1983TIP3    H227441   0.576   6.214   5.775  0.0041  0.5359  2.2642
 1984TIP3   OH227442   0.336   1.568  13.158  0.0028  0.1452 -0.3180
 1984TIP3    H127443   0.295   1.634  13.213  0.5921  0.8790 -0.7496
 1984TIP3    H227444   0.331   1.487  13.209 -3.3773 -0.1983 -0.9451
 1985TIP3   OH227445   0.244   6.293  16.652 -0.3208  0.5530 -0.0636
 1985TIP3    H127446   0.263   6.387  16.656  0.1784  0.4739 -0.4924
 1985TIP3    H227447   0.183   6.278  16.724 -0.2867  1.1792  0.1025
 1986TIP3   OH227448   2.282   5.840   0.945 -0.0339  0.2395 -0.2345
 1986TIP3    H127449   2.302   5.784   1.020 -0.1521  0.2761 -0.1736
 1986TIP3    H227450   2.290   5.929   0.979  2.3424  0.3268 -0.8969
 1987TIP3   OH227451   0.150   4.081   3.115 -0.4550  0.3215  0.1224
 1987TIP3    H127452   0.109   4.005   3.074 -1.3926  0.1571  1.3037
 1987TIP3    H227453   0.104   4.091   3.198 -0.5474  2.3677 -0.1334
 1988TIP3   OH227454   1.510   4.555   2.974 -0.2804 -0.4323  0.3636
 1988TIP3    H127455   1.515   4.592   2.886 -0.8778  0.0601  0.5348
 1988TIP3    H227456   1.434   4.597   3.014  2.5669  2.9201  2.7682
 1989TIP3   OH227457   6.054   5.829  16.829  0.2944 -0.5280  0.5393
 1989TIP3    H127458   6.038   5.852  16.737  0.5673  0.1456  0.6519
 1989TIP3    H227459   6.066   5.734  16.829  0.4621 -0.5093 -0.1441
 1990TIP3   OH227460   0.990   5.411   1.612  0.2298  0.0049  0.0832
 1990TIP3    H127461   0.989   5.498   1.572  1.1241  1.0698  2.2152
 1990TIP3    H227462   1.069   5.370   1.577  1.5322  1.2858  1.3360
 1991TIP3   OH227463   5.588   5.394  10.403  0.1267 -0.0465 -0.5300
 1991TIP3    H127464   5.644   5.371  10.329 -0.8246  0.0001 -1.2793
 1991TIP3    H227465   5.578   5.312  10.451  1.2501  0.0567 -0.0804
 1992TIP3   OH227466   2.769   0.980  12.794 -0.1289  0.2715 -0.6258
 1992TIP3    H127467   2.706   0.910  12.774 -0.2908  0.8493 -2.3230
 1992TIP3    H227468   2.748   1.050  12.732  1.6795  0.7984 -0.7102
 1993TIP3   OH227469   5.868   3.710  16.359 -0.2836  0.3333 -0.0602
 1993TIP3    H127470   5.850   3.698  16.266 -0.9939  0.5554  0.0445
 1993TIP3    H227471   5.951   3.664  16.373 -0.4858 -0.2440 -0.6737
 1994TIP3   OH227472   1.757   5.090   3.377 -0.2481 -0.8860 -0.4498
 1994TIP3    H127473   1.843   5.055   3.353 -0.7534  0.1490 -4.4763
 1994TIP3    H227474   1.756   5.179   3.342 -3.4524 -1.4205 -2.1496
 1995TIP3   OH227475   5.222   1.497  16.304 -0.1261  0.1645 -0.3906
 1995TIP3    H127476   5.128   1.511  16.310  0.0113  0.6069  2.2203
 1995TIP3    H227477   5.236   1.410  16.342  0.6005  0.7102  0.6587
 1996TIP3   OH227478   2.537   1.937   5.268 -0.0676 -0.2575 -0.0339
 1996TIP3    H127479   2.534   2.026   5.233 -0.5781 -0.3485 -0.2287
 1996TIP3    H227480   2.576   1.947   5.355 -0.6443  0.2327  0.1735
 1997TIP3   OH227481   6.243   4.293  15.415 -0.7897  0.0463 -0.1345
 1997TIP3    H127482   6.326   4.244  15.414 -0.2817  0.8569  0.6995
 1997TIP3    H227483   6.269   4.383  15.396 -1.2690  0.5816  1.5850
 1998TIP3   OH227484   5.526   1.319   5.391  0.0873  0.0583  0.1129
 1998TIP3    H127485   5.547   1.226   5.382 -0.8849 -0.1586  0.0409
 1998TIP3    H227486   5.560   1.342   5.477  0.2296 -0.3932  0.1843
 1999TIP3   OH227487   4.682   5.760  14.635  0.2494  0.5000 -0.2430
 1999TIP3    H127488   4.637   5.813  14.701 -0.8518  1.1588 -1.4761
 1999TIP3    H227489   4.705   5.822  14.566  1.9747 -0.0619 -0.2236
 2000TIP3   OH227490   3.820   5.511   5.940  0.1504  0.4386  0.1878
 2000TIP3    H127491   3.781   5.452   6.005 -0.1600 -1.8834 -1.9479
 2000TIP3    H227492   3.912   5.486   5.937 -0.1209 -0.5048 -1.2269
 2001TIP3   OH227493   1.928   2.712   4.031  0.2758 -0.0154 -0.5534
 2001TIP3    H127494   1.869   2.749   4.097 -0.7300 -1.2109 -0.7517
 2001TIP3    H227495   2.013   2.708   4.074  0.0960  1.1510 -0.0447
 2002TIP3   OH227496   2.284   5.383  16.444  0.0296  0.1248  0.0923
 2002TIP3    H127497   2.227   5.451  16.480 -0.1498  0.8660 -1.4789
 2002TIP3    H227498   2.273   5.391  16.349  2.3913 -0.0267 -0.2552
 2003TIP3   OH227499   2.597   1.247   2.131 -0.0005 -0.1197  0.1160
 2003TIP3    H127500   2.596   1.151   2.129 -0.2308 -0.1118 -0.1757
 2003TIP3    H227501   2.642   1.273   2.051 -0.2644  0.0209  0.0115
 2004TIP3   OH227502   6.042   2.906  16.301 -0.0874 -0.4054  0.5049
 2004TIP3    H127503   6.119   2.957  16.279  0.5539 -1.6700 -0.2888
 2004TIP3    H227504   6.000   2.889  16.217 -0.1323 -1.4094  0.7197
 2005TIP3   OH227505   6.464   3.895   5.376  0.2694  0.4388 -0.5081
 2005TIP3    H127506   6.422   3.846   5.446 -1.1845 -0.8903 -2.1980
 2005TIP3    H227507   6.556   3.901   5.402  0.0006 -0.9887  0.9566
 2006TIP3   OH227508   6.011   4.644  15.252 -0.5213 -0.1727  0.5751
 2006TIP3    H127509   6.080   4.619  15.313 -0.8754  1.2824  1.6350
 2006TIP3    H227510   5.990   4.563  15.205  2.4879 -0.4928 -0.4564
 2007TIP3   OH227511   5.565   0.861  11.629 -0.2240 -0.3364 -0.0997
 2007TIP3    H127512   5.611   0.917  11.691 -1.0016 -1.2159  1.3366
 2007TIP3    H227513   5.542   0.919  11.556  1.8703  0.4229 -0.2036
 2008TIP3   OH227514   6.742   2.686   0.506  0.1724  0.3716 -0.3760
 2008TIP3    H127515   6.811   2.630   0.541  0.2774  0.3906 -0.5558
 2008TIP3    H227516   6.691   2.628   0.449  0.9592  0.7269 -1.4777
 2009TIP3   OH227517   0.675   6.442   3.232 -0.0017 -0.3598  0.2971
 2009TIP3    H127518   0.681   6.405   3.144  1.4069 -0.2601  0.3399
 2009TIP3    H227519   0.724   6.382   3.288 -0.5602 -0.2149  0.9612
 2010TIP3   OH227520   1.294   6.747  11.865 -0.1464 -0.6489 -0.5366
 2010TIP3    H127521   1.201   6.742  11.889 -0.0281 -0.0919  0.0488
 2010TIP3    H227522   1.305   6.677  11.801 -0.8436 -1.1011 -0.1813
 2011TIP3   OH227523   0.472   1.831   5.248 -0.6980  0.8490 -0.1251
 2011TIP3    H127524   0.458   1.755   5.305  1.1645  0.5991  0.0787
 2011TIP3    H227525   0.546   1.806   5.193 -2.3057  1.1667 -2.5778
 2012TIP3   OH227526   0.054   3.180  12.260  0.2032  0.5800  0.3327
 2012TIP3    H127527   0.014   3.218  12.182  2.0762  3.0877  0.4825
 2012TIP3    H227528   0.112   3.111  12.225 -1.0677 -0.2492 -0.2036
 2013TIP3   OH227529   4.879   1.295  11.837 -0.1934 -0.3020 -0.1414
 2013TIP3    H127530   4.890   1.390  11.838  1.8797 -0.4756  0.7978
 2013TIP3    H227531   4.836   1.275  11.754 -0.2379  1.4132 -0.5512
 2014TIP3   OH227532   3.979   4.140  12.881  0.1203 -0.5607 -0.0264
 2014TIP3    H127533   4.073   4.152  12.893  0.4445 -1.5711 -1.3337
 2014TIP3    H227534   3.970   4.051  12.848 -1.2062 -0.1086 -0.9882
 2015TIP3   OH227535   2.263   0.484   0.770 -0.0165 -0.3044 -0.0465
 2015TIP3    H127536   2.347   0.529   0.777  0.6372 -1.4908 -0.1466
 2015TIP3    H227537   2.220   0.525   0.695  1.1413 -0.7526 -0.9744
 2016TIP3   OH227538   4.677   5.966  11.573  0.3114  0.1288  0.5357
 2016TIP3    H127539   4.697   6.023  11.498  0.4725 -0.5798  0.0346
 2016TIP3    H227540   4.762   5.945  11.611  0.6614 -2.8884 -1.5979
 2017TIP3   OH227541   3.309   2.140   3.891  0.5695  0.6405 -0.3215
 2017TIP3    H127542   3.398   2.120   3.921  0.1852 -3.3381 -1.2113
 2017TIP3    H227543   3.321   2.176   3.803  1.3190  0.6814 -0.2125
 2018TIP3   OH227544   0.248   3.396   0.837  0.6527  0.2835  0.1492
 2018TIP3    H127545   0.293   3.423   0.917  0.4507 -2.5527  1.3338
 2018TIP3    H227546   0.176   3.342   0.868 -0.1948  0.1501 -1.9402
 2019TIP3   OH227547   0.287   4.858   6.284 -0.1282  0.2398  0.4226
 2019TIP3    H127548   0.272   4.778   6.235  2.7597 -0.7617  0.9525
 2019TIP3    H227549   0.267   4.929   6.223  0.4316 -0.9427 -1.1824
 2020TIP3   OH227550   2.921   1.301  15.689 -0.5002 -0.0634 -0.3730
 2020TIP3    H127551   2.931   1.378  15.745 -0.4615  0.5589 -1.2079
 2020TIP3    H227552   2.874   1.238  15.743 -0.6186  0.5847  0.2970
 2021TIP3   OH227553   2.471   4.032  12.255  0.2491  0.1992  0.0259
 2021TIP3    H127554   2.554   4.074  12.276  0.3106 -0.0014  0.1853
 2021TIP3    H227555   2.466   4.035  12.159  0.4115  0.2630  0.0197
 2022TIP3   OH227556   2.086   3.048  15.134 -0.1160 -0.2771  0.7003
 2022TIP3    H127557   2.143   3.052  15.058 -1.2797 -1.3991 -0.2887
 2022TIP3    H227558   2.085   3.137  15.169  0.2413  0.3240 -0.7645
 2023TIP3   OH227559   5.477   1.146  13.246 -0.2739  0.4587  0.6001
 2023TIP3    H127560   5.512   1.149  13.157  0.1940  0.9132  0.7897
 2023TIP3    H227561   5.449   1.236  13.264 -0.8399  0.2567  0.7257
 2024TIP3   OH227562   3.117   1.409   3.790  0.1915  0.4673 -0.1496
 2024TIP3    H127563   3.138   1.358   3.869 -1.4895  1.0674  0.7342
 2024TIP3    H227564   3.023   1.397   3.778  0.4793 -0.0589 -2.4257
 2025TIP3   OH227565   1.055   6.430  13.936 -0.5826 -0.1745 -0.3817
 2025TIP3    H127566   1.140   6.387  13.925  0.9737  2.4699  0.4796
 2025TIP3    H227567   1.050   6.493  13.865 -1.6011  0.0788 -0.1049
 2026TIP3   OH227568   2.950   2.856   0.222 -0.5179 -0.1588  0.5255
 2026TIP3    H127569   2.913   2.772   0.193 -1.2876  0.4809 -0.4050
 2026TIP3    H227570   2.941   2.855   0.317 -0.3238 -1.2221  0.5413
 2027TIP3   OH227571   2.398   6.038   5.949 -0.0557 -0.6688 -0.1752
 2027TIP3    H127572   2.317   5.990   5.934  0.0896 -0.6667 -0.9669
 2027TIP3    H227573   2.442   6.041   5.864  1.1625 -1.3499  0.3944
 2028TIP3   OH227574   4.341   1.545  13.264 -0.1121 -0.0135  0.0303
 2028TIP3    H127575   4.371   1.458  13.237  0.6286  0.2926 -0.1800
 2028TIP3    H227576   4.420   1.599  13.259 -0.5831  0.6872  0.0850
 2029TIP3   OH227577   1.374   4.025   3.872  0.1575  0.2818 -0.5740
 2029TIP3    H127578   1.285   4.032   3.905  0.3834 -0.6774  0.3051
 2029TIP3    H227579   1.365   3.989   3.784 -0.3326  0.4002 -0.5720
 2030TIP3   OH227580   2.390   4.836   1.507 -0.1216 -0.2579 -0.3354
 2030TIP3    H127581   2.309   4.886   1.507 -0.4415 -0.7486  0.9806
 2030TIP3    H227582   2.401   4.809   1.415 -0.8370  0.7455 -0.7352
 2031TIP3   OH227583   4.552   4.281  13.934  0.4265 -0.3686 -0.5271
 2031TIP3    H127584   4.560   4.264  13.841  2.4953  1.7389 -0.8205
 2031TIP3    H227585   4.603   4.360  13.949 -0.2763 -0.3309  2.3216
 2032TIP3   OH227586   1.011   4.289  12.194  0.0749 -0.1845  0.5138
 2032TIP3    H127587   1.017   4.383  12.177  2.2607 -0.1676  1.0249
 2032TIP3    H227588   1.102   4.260  12.202 -0.5126 -2.4229  0.0220
 2033TIP3   OH227589   4.655   4.228  16.604  0.0082  0.0171 -0.2150
 2033TIP3    H127590   4.640   4.295  16.670 -0.6346  1.3169 -1.6039
 2033TIP3    H227591   4.684   4.277  16.527 -0.1807 -1.3338 -1.1838
 2034TIP3   OH227592   6.512   1.381  12.185  0.3607  0.4528 -0.0118
 2034TIP3    H127593   6.493   1.460  12.236 -3.1662 -0.8821  1.0273
 2034TIP3    H227594   6.509   1.310  12.249 -0.5324 -0.8995 -1.4859
 2035TIP3   OH227595   0.797   5.562  15.920 -0.2088  1.0261  0.4053
 2035TIP3    H127596   0.818   5.567  15.827 -2.3947 -0.4133 -0.2460
 2035TIP3    H227597   0.841   5.482  15.950  0.4616  1.4678  0.6090
 2036TIP3   OH227598   3.009   5.774  10.784 -0.1684 -0.6109 -0.2004
 2036TIP3    H127599   3.073   5.833  10.824 -0.3841  0.0821 -0.8495
 2036TIP3    H227600   2.947   5.832  10.740 -1.6654 -1.2212  1.0002
 2037TIP3   OH227601   2.203   6.089  15.334  0.1311  0.0449 -0.7372
 2037TIP3    H127602   2.165   6.014  15.287  1.0641 -0.7323 -0.2856
 2037TIP3    H227603   2.132   6.120  15.391 -1.4860  1.8428 -3.5132
 2038TIP3   OH227604   3.331   6.395  16.914  0.0413 -0.5548  0.4613
 2038TIP3    H127605   3.365   6.373  16.827  1.0267  3.5014 -0.4068
 2038TIP3    H227606   3.237   6.404  16.901  0.2629  0.7967 -0.4797
 2039TIP3   OH227607   5.194   2.205  14.501  0.1891  0.0876 -0.7016
 2039TIP3    H127608   5.178   2.145  14.573  0.7579 -0.5348 -1.0857
 2039TIP3    H227609   5.169   2.291  14.535  1.7692  0.0253  0.7276
 2040TIP3   OH227610   4.939   2.002  13.141 -0.3685  0.1349 -0.2095
 2040TIP3    H127611   4.864   2.054  13.168 -1.3375 -1.7061  0.7687
 2040TIP3    H227612   4.923   1.983  13.048 -1.1308 -0.2535 -0.0033
 2041TIP3   OH227613   4.304   3.959   0.862  0.1517  0.4889  0.0714
 2041TIP3    H127614   4.276   4.049   0.871  2.2278  1.2993 -0.8878
 2041TIP3    H227615   4.391   3.957   0.902  0.9769 -0.5811 -1.6695
 2042TIP3   OH227616   1.939   6.103  16.709  0.1350 -0.0029 -0.2937
 2042TIP3    H127617   1.885   6.182  16.715 -1.1577 -0.6568 -2.3377
 2042TIP3    H227618   1.923   6.057  16.791 -0.4110  1.0344  0.2048
 2043TIP3   OH227619   3.709   1.311   5.451 -0.1396  1.0326  0.5966
 2043TIP3    H127620   3.770   1.366   5.402 -1.1864 -0.1364 -2.2274
 2043TIP3    H227621   3.622   1.342   5.424 -0.7956  0.6010  2.0891
 2044TIP3   OH227622   4.088   3.156  14.253  0.4412  0.1659  0.3004
 2044TIP3    H127623   4.090   3.139  14.158  0.8621  2.5116 -0.1670
 2044TIP3    H227624   4.163   3.107  14.287  0.8266  0.0315 -0.7113
 2045TIP3   OH227625   1.837   3.470   3.818 -0.2884 -0.9155  0.0900
 2045TIP3    H127626   1.815   3.530   3.747  2.8200 -0.0950 -0.3492
 2045TIP3    H227627   1.848   3.385   3.775 -2.1141 -1.2839  0.2821
 2046TIP3   OH227628   5.084   0.805  11.780 -0.3162 -0.1230 -0.4738
 2046TIP3    H127629   5.150   0.786  11.713  0.4888  1.4981 -0.1875
 2046TIP3    H227630   5.021   0.862  11.737  0.0948  0.7604  0.0709
 2047TIP3   OH227631   4.045   3.141   2.238  0.0079 -0.1379  0.2994
 2047TIP3    H127632   3.970   3.118   2.184 -0.6796 -0.2121  1.2688
 2047TIP3    H227633   4.015   3.213   2.293  0.8200  0.2052  0.3169
 2048TIP3   OH227634   1.794   3.090   5.489 -0.0664 -0.0088 -0.0477
 2048TIP3    H127635   1.861   3.158   5.498  0.0954 -0.1617 -0.0941
 2048TIP3    H227636   1.843   3.012   5.462 -0.3438  0.0394 -0.7094
 2049TIP3   OH227637   2.034   4.761   5.200 -0.5064 -0.2679 -0.4626
 2049TIP3    H127638   2.031   4.692   5.133 -2.1012  0.2594 -0.9955
 2049TIP3    H227639   2.075   4.720   5.275 -1.9431 -2.0215 -0.5550
 2050TIP3   OH227640   0.390   3.402  16.598 -0.5381  0.2981 -0.5449
 2050TIP3    H127641   0.392   3.310  16.624  0.3536  0.0250 -1.5306
 2050TIP3    H227642   0.391   3.450  16.681 -0.8291 -0.5735 -0.0242
 2051TIP3   OH227643   6.785   5.919   5.278 -0.3771 -0.0495 -0.2913
 2051TIP3    H127644   6.854   5.874   5.230 -1.0741 -2.7826  1.1001
 2051TIP3    H227645   6.727   5.953   5.209  0.7377 -0.3212 -1.4052
 2052TIP3   OH227646   3.403   6.182  17.079 -0.3035  1.3026  0.6868
 2052TIP3    H127647   3.370   6.247  17.017  3.6833  1.2225 -1.8459
 2052TIP3    H227648   3.493   6.208  17.097 -0.3851 -0.3254  4.3500
 2053TIP3   OH227649   0.358   2.011  11.229 -0.0572 -0.2769 -0.4484
 2053TIP3    H127650   0.411   1.934  11.208 -2.8487 -2.0459 -1.4928
 2053TIP3    H227651   0.408   2.084  11.192  2.5090 -1.5387  0.2720
 2054TIP3   OH227652   1.786   4.987  11.744  0.1888 -0.4334 -0.2583
 2054TIP3    H127653   1.755   5.076  11.756  1.3303 -0.0027 -0.3296
 2054TIP3    H227654   1.714   4.941  11.702 -0.2437  0.5819 -0.6408
 2055TIP3   OH227655   1.142   5.339  13.323  0.2552 -0.0546 -0.0526
 2055TIP3    H127656   1.177   5.323  13.411 -2.2128  0.0710  1.0146
 2055TIP3    H227657   1.220   5.356  13.270  1.8156  0.0330  2.1147
 2056TIP3   OH227658   6.207   4.947   3.226  0.0815  0.4786 -0.0516
 2056TIP3    H127659   6.119   4.939   3.189 -1.4132  1.1888  2.9633
 2056TIP3    H227660   6.212   4.875   3.289  1.6522  0.5033 -0.1228
 2057TIP3   OH227661   4.881   1.314   2.437  0.0946 -0.8624  0.0102
 2057TIP3    H127662   4.897   1.385   2.374 -1.2574 -0.2304  0.3309
 2057TIP3    H227663   4.958   1.258   2.430  0.7203  0.0731 -1.0211
 2058TIP3   OH227664   3.972   6.035   2.054  0.4160  0.1128  0.2399
 2058TIP3    H127665   3.937   6.031   1.965  0.1631  1.1254  0.2842
 2058TIP3    H227666   4.066   6.017   2.043  0.0728 -1.6873  0.0166
 2059TIP3   OH227667   6.032   4.821   4.374  0.1347 -0.1840 -0.2207
 2059TIP3    H127668   5.945   4.839   4.410  0.5316 -1.3906  1.5061
 2059TIP3    H227669   6.065   4.906   4.345 -0.3554  0.8796  2.1126
 2060TIP3   OH227670   4.009   2.916   0.716 -0.3887  0.2259  0.7597
 2060TIP3    H127671   3.974   2.896   0.629 -0.5106 -0.6020  0.9984
 2060TIP3    H227672   4.099   2.886   0.713 -0.4747 -0.0521  1.0121
 2061TIP3   OH227673   1.314   1.686  15.616  0.1505  0.0776  0.3659
 2061TIP3    H127674   1.310   1.626  15.541  1.8538  0.6484 -0.2211
 2061TIP3    H227675   1.242   1.658  15.672 -0.0767 -1.5036 -0.6450
 2062TIP3   OH227676   4.224   3.944   5.030 -0.4654 -0.2626 -0.3243
 2062TIP3    H127677   4.210   4.039   5.024 -1.2253 -0.2511  1.1640
 2062TIP3    H227678   4.318   3.934   5.041 -0.1169  0.1650 -2.4307
 2063TIP3   OH227679   2.950   6.103  11.202  0.1908  0.2142  0.0337
 2063TIP3    H127680   2.987   6.167  11.141 -0.7602  0.4286 -0.3383
 2063TIP3    H227681   2.985   6.019  11.173  2.6674  0.6467  1.4266
 2064TIP3   OH227682   2.486   1.048   3.472  0.0058 -0.0220  0.3462
 2064TIP3    H127683   2.579   1.069   3.465  0.0162 -0.0454  0.4115
 2064TIP3    H227684   2.484   0.964   3.517  0.0115 -0.6673 -0.8165
 2065TIP3   OH227685   2.737   5.398  14.128 -0.3032  0.1065 -0.1592
 2065TIP3    H127686   2.665   5.342  14.098  1.2780 -2.3131  0.2784
 2065TIP3    H227687   2.755   5.368  14.217  1.7465  0.0496 -0.5460
 2066TIP3   OH227688   1.548   0.848  11.695  0.1400  0.2168  0.2237
 2066TIP3    H127689   1.502   0.784  11.748 -0.7194 -0.2059 -0.9768
 2066TIP3    H227690   1.598   0.796  11.631  0.5038  0.7176  0.0843
 2067TIP3   OH227691   1.535   4.557  16.754  0.5177 -0.3697 -0.3637
 2067TIP3    H127692   1.580   4.585  16.675  0.4227  1.1045  0.0719
 2067TIP3    H227693   1.446   4.592  16.745  0.7223  0.4905  0.7107
 2068TIP3   OH227694   2.510   2.749  15.289 -0.2353 -0.1048  0.2688
 2068TIP3    H127695   2.541   2.758  15.199 -0.3697 -0.2611  0.2060
 2068TIP3    H227696   2.416   2.767  15.283  0.0620  1.7002  0.6712
 2069TIP3   OH227697   0.442   2.334   0.992  0.2289 -0.0365 -0.7085
 2069TIP3    H127698   0.496   2.386   0.932  0.4071 -0.4007 -0.8643
 2069TIP3    H227699   0.355   2.335   0.953  0.1429  0.4433 -0.5241
 2070TIP3   OH227700   6.241   0.818  10.299  0.1803 -0.3062  0.3362
 2070TIP3    H127701   6.294   0.739  10.307  0.7766  0.2098  1.8665
 2070TIP3    H227702   6.174   0.809  10.366 -1.2053 -0.5570 -1.0252
 2071TIP3   OH227703   4.208   2.878   3.305 -0.5370 -0.2369 -0.4553
 2071TIP3    H127704   4.187   2.939   3.235  0.7439  0.5064 -0.2195
 2071TIP3    H227705   4.258   2.808   3.262  0.3456  0.2755 -0.2891
 2072TIP3   OH227706   4.608   0.080   4.553  0.2607 -0.0404  0.2444
 2072TIP3    H127707   4.651   0.164   4.566  2.0278 -0.8656  0.1432
 2072TIP3    H227708   4.621   0.061   4.459 -0.7401 -0.1084  0.1148
 2073TIP3   OH227709   5.877   2.194   6.141  0.4354  0.2143  0.0333
 2073TIP3    H127710   5.908   2.236   6.221 -0.9303 -1.3410  1.4523
 2073TIP3    H227711   5.811   2.255   6.107  1.0047  0.8721  0.0753
 2074TIP3   OH227712   2.498   0.963   4.849  0.1316 -0.1519  0.1786
 2074TIP3    H127713   2.462   0.997   4.930  1.0526  0.2614  0.4341
 2074TIP3    H227714   2.581   0.923   4.874 -0.3083 -1.4395 -0.3237
 2075TIP3   OH227715   2.902   5.735   2.476  0.3416 -0.0323 -0.3401
 2075TIP3    H127716   2.908   5.825   2.444 -0.0976  0.1252 -0.0094
 2075TIP3    H227717   2.869   5.744   2.566 -0.5893 -0.5561 -0.6057
 2076TIP3   OH227718   6.656   5.652   2.944 -0.4000  0.0209 -0.4261
 2076TIP3    H127719   6.609   5.589   2.889 -1.5692 -0.3914  1.0040
 2076TIP3    H227720   6.644   5.736   2.898 -0.9767 -0.3752 -1.0207
 2077TIP3   OH227721   0.373   6.551  10.449 -0.3398 -0.1945 -0.2120
 2077TIP3    H127722   0.434   6.584  10.383 -0.5685  1.1675  0.2124
 2077TIP3    H227723   0.428   6.524  10.522 -0.2042  2.3555  0.7560
 2078TIP3   OH227724   5.007   2.901   3.115  0.4604 -0.2168 -0.1355
 2078TIP3    H127725   4.922   2.871   3.082  1.0385 -1.4509 -0.5591
 2078TIP3    H227726   4.992   2.921   3.207 -0.3840 -0.0200 -0.3105
 2079TIP3   OH227727   0.874   6.350  15.766  0.1450 -0.2832  0.2981
 2079TIP3    H127728   0.947   6.293  15.788  0.0378 -0.4349  0.2646
 2079TIP3    H227729   0.906   6.403  15.693  0.4888  0.1951  0.7885
 2080TIP3   OH227730   6.770   0.728  16.619 -0.2121  0.5141  0.0304
 2080TIP3    H127731   6.684   0.700  16.648  0.3831 -0.9319  0.4853
 2080TIP3    H227732   6.821   0.739  16.699  0.4313 -0.0341 -0.2962
 2081TIP3   OH227733   1.115   2.503   6.354  0.2779 -0.4223  0.1282
 2081TIP3    H127734   1.185   2.567   6.339 -1.4784  1.7497  0.5702
 2081TIP3    H227735   1.048   2.525   6.290 -0.5634 -1.5431  0.5932
 2082TIP3   OH227736   0.674   0.569  16.042 -0.5475 -0.3399 -0.2109
 2082TIP3    H127737   0.627   0.615  15.972  0.4207  0.8996 -0.0801
 2082TIP3    H227738   0.764   0.563  16.011 -0.2024 -0.2028  0.7260
 2083TIP3   OH227739   4.949   2.461  15.565 -0.1178 -0.6043 -0.4425
 2083TIP3    H127740   4.933   2.503  15.649  0.6606 -0.3318 -0.4242
 2083TIP3    H227741   4.863   2.462  15.522 -0.3674 -0.0733  0.0450
 2084TIP3   OH227742   3.676   1.552  12.684  0.4803 -0.3217  0.6305
 2084TIP3    H127743   3.681   1.458  12.665  2.8806 -0.4996  1.7575
 2084TIP3    H227744   3.723   1.594  12.611  0.0874 -0.0504  0.5291
 2085TIP3   OH227745   2.651   4.329   1.603 -0.6294 -0.0203  0.6835
 2085TIP3    H127746   2.569   4.279   1.601 -0.6451 -0.0142 -1.3618
 2085TIP3    H227747   2.695   4.305   1.521  0.1352  2.0427  0.4417
 2086TIP3   OH227748   3.570   4.578   2.796 -0.6506 -0.3321 -0.3949
 2086TIP3    H127749   3.618   4.553   2.875  1.0270  1.8289 -0.6141
 2086TIP3    H227750   3.636   4.577   2.726 -1.3706  0.7934 -1.1323
 2087TIP3   OH227751   4.353   6.221  13.945  0.2325  0.2565  0.7320
 2087TIP3    H127752   4.275   6.237  13.997 -0.0623  0.2200  0.3103
 2087TIP3    H227753   4.337   6.268  13.863 -0.6392 -2.1237 -0.5378
 2088TIP3   OH227754   5.778   0.384  15.386 -0.3876 -0.2712 -0.0032
 2088TIP3    H127755   5.805   0.333  15.463 -1.8829 -0.8762  0.1691
 2088TIP3    H227756   5.794   0.475  15.411  1.8300 -0.5696 -0.1070
 2089TIP3   OH227757   5.287   1.201   3.690  0.4504 -0.3340 -0.1862
 2089TIP3    H127758   5.208   1.170   3.735  0.0725  0.6116 -0.1652
 2089TIP3    H227759   5.323   1.123   3.648 -0.3729 -0.8262 -0.0057
 2090TIP3   OH227760   1.459   3.079  12.597  0.7336  0.1965 -0.1861
 2090TIP3    H127761   1.514   3.116  12.528  0.2784  0.4959 -0.3948
 2090TIP3    H227762   1.377   3.056  12.553 -0.2073  1.9483  0.5406
 2091TIP3   OH227763   1.272   1.038   2.108  0.9453  0.7270 -0.2575
 2091TIP3    H127764   1.357   1.079   2.090  1.4280  0.4803  1.2548
 2091TIP3    H227765   1.251   1.066   2.197 -0.4804  0.6188 -0.5431
 2092TIP3   OH227766   3.337   1.300  13.044  0.0320  0.6475 -0.1394
 2092TIP3    H127767   3.410   1.239  13.038  0.4618  1.2177 -0.9064
 2092TIP3    H227768   3.377   1.387  13.036 -0.8733  0.9242 -2.6101
 2093TIP3   OH227769   2.392   6.016  14.796 -0.7513  0.6382  0.5101
 2093TIP3    H127770   2.451   6.065  14.854 -0.7716 -1.1726  2.1494
 2093TIP3    H227771   2.430   6.027  14.709  1.0133  0.9670  1.2742
 2094TIP3   OH227772   4.467   4.121   4.206 -0.0291 -0.1211  0.0492
 2094TIP3    H127773   4.456   4.128   4.111 -1.0728  0.4568  0.2004
 2094TIP3    H227774   4.518   4.041   4.218 -0.4658 -0.5750 -0.9618
 2095TIP3   OH227775   0.726   0.922   4.351 -0.4197  0.0525  0.2928
 2095TIP3    H127776   0.698   0.891   4.437  0.4238 -0.0303  0.5396
 2095TIP3    H227777   0.667   0.877   4.290  0.1807 -1.3418  0.7058
 2096TIP3   OH227778   1.731   5.465   5.576  0.2359  0.4186 -0.0861
 2096TIP3    H127779   1.699   5.550   5.608 -0.2755 -0.0500  0.6862
 2096TIP3    H227780   1.666   5.438   5.510 -1.1691 -0.6276  1.6240
 2097TIP3   OH227781   1.027   5.428   4.597  0.4075  0.0416  0.1386
 2097TIP3    H127782   0.951   5.460   4.644  0.4540 -1.5353  1.3630
 2097TIP3    H227783   1.093   5.413   4.665  0.9908 -0.8913 -0.6121
 2098TIP3   OH227784   3.584   5.668   0.027 -0.6235 -0.1510  0.3072
 2098TIP3    H127785   3.655   5.729   0.008 -2.5707  1.8978 -1.0422
 2098TIP3    H227786   3.576   5.614  -0.051  0.8689 -2.0206  1.3644
 2099TIP3   OH227787   2.957   3.799   0.154  0.2116 -0.0123 -0.5868
 2099TIP3    H127788   2.965   3.893   0.174 -1.4424 -0.2213  1.4275
 2099TIP3    H227789   3.028   3.758   0.205 -0.7922 -0.0597  0.8402
 2100TIP3   OH227790   6.297   2.760   4.853  0.8487  0.1230  0.4908
 2100TIP3    H127791   6.387   2.731   4.869  1.1133  0.2078 -0.7513
 2100TIP3    H227792   6.306   2.853   4.831  0.5962 -0.1443 -0.7920
 2101TIP3   OH227793   5.967   6.171  14.247 -0.0746  0.1589  0.2263
 2101TIP3    H127794   6.045   6.122  14.273 -0.5525 -0.0790  1.2564
 2101TIP3    H227795   5.910   6.169  14.324 -0.9281  0.6782 -0.3693
 2102TIP3   OH227796   1.561   5.830  14.835  0.1074  0.3312 -0.1714
 2102TIP3    H127797   1.527   5.875  14.912 -1.0931 -1.1696  0.2386
 2102TIP3    H227798   1.565   5.897  14.767 -0.4998  1.3043  0.7223
 2103TIP3   OH227799   2.291   4.981   3.700  0.0866  0.3193  0.2969
 2103TIP3    H127800   2.238   4.901   3.703  0.2967  0.1274 -0.8579
 2103TIP3    H227801   2.347   4.975   3.778 -0.0998 -0.5127  0.3801
 2104TIP3   OH227802   4.159   2.668  11.266  0.8559 -0.1130 -0.2876
 2104TIP3    H127803   4.084   2.658  11.324  0.8917  1.1770  0.0112
 2104TIP3    H227804   4.146   2.752  11.224  1.8045 -0.1677 -0.7220
 2105TIP3   OH227805   1.387   1.223  14.169  0.5301 -0.4599  0.6838
 2105TIP3    H127806   1.353   1.284  14.235 -1.7481  0.3817 -1.1299
 2105TIP3    H227807   1.333   1.239  14.092  3.4009 -1.0145 -1.6202
 2106TIP3   OH227808   3.019   6.299   3.982 -0.0601 -0.2054  0.0681
 2106TIP3    H127809   3.010   6.342   3.897  1.2832  1.0920  0.5386
 2106TIP3    H227810   2.968   6.353   4.042  0.3075 -0.1851  0.3683
 2107TIP3   OH227811   1.591   2.184   0.152 -0.4161  0.4193 -0.2098
 2107TIP3    H127812   1.638   2.266   0.136  0.6650 -0.2088 -0.3841
 2107TIP3    H227813   1.648   2.117   0.116 -1.4100 -0.3945 -0.2972
 2108TIP3   OH227814   5.742   6.305  11.710 -0.0778 -0.2514  0.5959
 2108TIP3    H127815   5.702   6.218  11.705 -0.1631 -0.1998  0.3126
 2108TIP3    H227816   5.716   6.339  11.795 -2.0051  0.4149 -0.1833
 2109TIP3   OH227817   4.452   2.469   5.903  0.5336 -0.0306 -0.8944
 2109TIP3    H127818   4.423   2.556   5.878 -1.2805 -0.1739  0.4909
 2109TIP3    H227819   4.476   2.477   5.995  2.2468 -0.5940 -1.2568
 2110TIP3   OH227820   3.085   0.639  11.856 -0.1046 -0.4807 -0.1694
 2110TIP3    H127821   3.030   0.561  11.864  1.2744 -1.3005  2.6787
 2110TIP3    H227822   3.174   0.606  11.845  0.3625  0.7223 -0.2190
 2111TIP3   OH227823   2.350   4.916  14.904 -0.2320  0.0762 -0.1825
 2111TIP3    H127824   2.288   4.868  14.849 -0.5286  0.7868 -0.4738
 2111TIP3    H227825   2.435   4.900  14.864 -0.0222 -1.9435  0.9343
 2112TIP3   OH227826   5.249   5.232   4.210 -0.3934  0.4636  0.2226
 2112TIP3    H127827   5.312   5.189   4.268 -0.2440  0.2492 -0.0967
 2112TIP3    H227828   5.231   5.316   4.252  0.2795  0.6216  0.2033
 2113TIP3   OH227829   4.920   3.428   3.331  0.1811  0.1347  0.5749
 2113TIP3    H127830   4.845   3.439   3.389  0.0284 -0.8628  0.5894
 2113TIP3    H227831   4.925   3.333   3.316  0.9008  0.2714 -0.1314
 2114TIP3   OH227832   5.637   5.062   0.804 -0.0400  1.1444  0.2023
 2114TIP3    H127833   5.668   5.031   0.720  0.6570 -0.2695  0.9475
 2114TIP3    H227834   5.683   5.144   0.819  0.8285  0.7423 -0.2147
 2115TIP3   OH227835   3.063   0.548   0.482  0.5344  0.1896  0.7622
 2115TIP3    H127836   3.142   0.538   0.428  0.5669  0.7616  0.6945
 2115TIP3    H227837   3.064   0.640   0.509 -1.2097  0.8089 -1.0125
 2116TIP3   OH227838   2.134   3.327  14.374 -0.0094 -0.3089  0.3267
 2116TIP3    H127839   2.039   3.316  14.372  0.0933 -1.5590  1.2523
 2116TIP3    H227840   2.150   3.379  14.453  0.0396  0.6172 -0.2724
 2117TIP3   OH227841   2.117   1.719   2.131 -0.0905 -0.1758 -0.6019
 2117TIP3    H127842   2.125   1.665   2.052 -0.3760 -1.4567  0.2059
 2117TIP3    H227843   2.193   1.777   2.129 -1.0428  1.1075 -2.7341
 2118TIP3   OH227844   1.313   6.149  16.340 -0.0449 -0.6561  0.2392
 2118TIP3    H127845   1.353   6.150  16.253  1.3784  1.0048  0.8431
 2118TIP3    H227846   1.285   6.239  16.355 -1.2135 -1.1305  1.1161
 2119TIP3   OH227847   5.929   1.330  15.317  0.3817 -0.1556  0.2903
 2119TIP3    H127848   5.873   1.316  15.393  1.7830 -0.2608  1.3491
 2119TIP3    H227849   5.876   1.303  15.242 -0.4816 -1.6342  1.3842
 2120TIP3   OH227850   1.804   0.701  16.065 -0.1688 -0.7278 -0.0258
 2120TIP3    H127851   1.888   0.727  16.102 -1.1652  1.9502  0.6275
 2120TIP3    H227852   1.809   0.726  15.973 -1.1487  2.2469  0.6152
 2121TIP3   OH227853   3.984   0.845   5.325 -0.4699  0.1617 -0.2005
 2121TIP3    H127854   3.991   0.918   5.387 -2.0618  0.4291 -0.2847
 2121TIP3    H227855   4.039   0.871   5.251  0.6085  0.3197  0.6352
 2122TIP3   OH227856   6.099   4.637   5.513 -0.9915 -0.0112  0.1841
 2122TIP3    H127857   6.089   4.567   5.449  1.6709 -0.7774  0.4935
 2122TIP3    H227858   6.113   4.592   5.596 -1.9897  0.9503  0.9116
 2123TIP3   OH227859   3.412   6.161   0.685 -0.2344 -1.0727 -0.7559
 2123TIP3    H127860   3.396   6.211   0.604  0.5657 -1.4160 -1.1327
 2123TIP3    H227861   3.500   6.126   0.674 -0.5048 -1.9473 -0.1568
 2124TIP3   OH227862   2.921   4.776  15.904  0.0893 -0.9818 -0.0341
 2124TIP3    H127863   2.961   4.834  15.969  0.6846 -1.8373  0.3778
 2124TIP3    H227864   2.946   4.814  15.819  1.3905 -1.2355  0.2164
 2125TIP3   OH227865   1.587   6.800  11.583  0.1059 -0.5520 -0.2057
 2125TIP3    H127866   1.672   6.843  11.582 -0.2616  0.6815  4.0778
 2125TIP3    H227867   1.598   6.727  11.644 -1.6459 -1.0038 -0.3762
 2126TIP3   OH227868   5.131   2.208   3.348  0.6320  0.2972  0.0514
 2126TIP3    H127869   5.086   2.222   3.264 -2.3996  2.3376  1.7855
 2126TIP3    H227870   5.197   2.277   3.351  1.5349 -0.4688 -1.0301
 2127TIP3   OH227871   4.730   3.158   6.045  0.2409 -0.0238 -0.0629
 2127TIP3    H127872   4.791   3.141   5.973 -0.3059  3.1614 -1.4537
 2127TIP3    H227873   4.783   3.207   6.109 -0.6518  2.7148 -1.2564
 2128TIP3   OH227874   2.123   5.579  16.511 -0.0748 -0.4544 -0.5135
 2128TIP3    H127875   2.136   5.659  16.563 -0.3628 -0.1267 -0.9374
 2128TIP3    H227876   2.097   5.611  16.425 -0.4271 -1.0144 -0.6180
 2129TIP3   OH227877   0.038   6.469   5.776  0.1397 -0.8486  0.8291
 2129TIP3    H127878   0.074   6.546   5.819  1.9834 -0.5648 -1.0987
 2129TIP3    H227879   0.098   6.398   5.798 -0.4497 -1.3322  0.9382
 2130TIP3   OH227880   2.261   1.406  15.382  0.1729 -0.1035 -0.5456
 2130TIP3    H127881   2.355   1.423  15.381  0.0919  0.4847  0.5416
 2130TIP3    H227882   2.221   1.490  15.405 -0.3961 -1.0721  2.4633
 2131TIP3   OH227883   0.414   0.369  13.574 -0.0251  0.0512 -0.1711
 2131TIP3    H127884   0.434   0.434  13.507 -1.3182  2.4003  1.5664
 2131TIP3    H227885   0.387   0.421  13.650 -1.4235 -2.5472  1.2327
 2132TIP3   OH227886   1.630   2.585  17.203  0.2957 -0.5157 -0.0616
 2132TIP3    H127887   1.572   2.599  17.277  1.3619  1.5780  0.4621
 2132TIP3    H227888   1.678   2.505  17.224  0.3132 -0.1512  1.3396
 2133TIP3   OH227889   0.548   4.334  13.572 -0.8032  0.6245 -0.9173
 2133TIP3    H127890   0.556   4.429  13.565  0.0735  0.5343 -1.3368
 2133TIP3    H227891   0.504   4.307  13.491 -1.3670  0.7078 -0.6369
 2134TIP3   OH227892   2.238   0.266  15.423  0.0243  0.4639 -0.0607
 2134TIP3    H127893   2.197   0.252  15.338 -0.1261  0.8890 -0.0607
 2134TIP3    H227894   2.172   0.311  15.475 -0.1755 -0.4968  0.5484
 2135TIP3   OH227895   2.802   3.498   4.149  0.1062 -0.2356  0.3252
 2135TIP3    H127896   2.851   3.577   4.127  0.5508 -0.7087 -0.4112
 2135TIP3    H227897   2.838   3.430   4.092 -0.6298 -0.8531  0.5751
 2136TIP3   OH227898   4.804   4.260  15.207  0.2816  0.4943  0.1085
 2136TIP3    H127899   4.815   4.170  15.177 -0.8899  0.2420  0.3736
 2136TIP3    H227900   4.890   4.286  15.241  0.8154 -0.2634 -0.6535
 2137TIP3   OH227901   0.387   6.554  15.356 -0.3319  0.5602  0.3201
 2137TIP3    H127902   0.363   6.581  15.267 -1.4635  1.6663  0.9274
 2137TIP3    H227903   0.365   6.461  15.360 -0.4928  0.5588 -0.4879
 2138TIP3   OH227904   2.705   1.959  15.406  0.3605 -0.0762 -0.1687
 2138TIP3    H127905   2.761   2.012  15.348  2.5059 -1.0978  0.8723
 2138TIP3    H227906   2.693   2.013  15.483 -1.1360  0.6148 -0.8427
 2139TIP3   OH227907   5.542   4.782  17.040 -0.3725  0.2947 -0.4064
 2139TIP3    H127908   5.557   4.689  17.058  0.9032  0.6383  0.3923
 2139TIP3    H227909   5.489   4.782  16.960 -0.4366 -1.1164 -0.3933
 2140TIP3   OH227910   2.902   2.311  12.843 -0.3115  0.2777 -0.4216
 2140TIP3    H127911   2.974   2.353  12.795 -0.3169 -0.9595 -1.5830
 2140TIP3    H227912   2.925   2.218  12.842  0.1043  0.2515  2.7512
 2141TIP3   OH227913   4.376   0.908   4.618  0.1474 -0.1651  0.2259
 2141TIP3    H127914   4.388   0.856   4.538  2.7470  0.3124  0.2318
 2141TIP3    H227915   4.372   0.842   4.688 -1.1028 -0.5292 -0.1558
 2142TIP3   OH227916   3.261   0.324  15.189  0.3995 -0.1906 -0.1702
 2142TIP3    H127917   3.350   0.359  15.180  0.5058 -0.9477 -2.9964
 2142TIP3    H227918   3.213   0.393  15.236  2.1828  0.7315  0.3916
 2143TIP3   OH227919   3.615   2.736  13.036  0.1042 -0.1051  0.3744
 2143TIP3    H127920   3.664   2.778  13.107 -0.6487  2.0761 -0.3182
 2143TIP3    H227921   3.530   2.779  13.036 -0.0565 -0.3141 -1.5942
 2144TIP3   OH227922   2.485   0.087   5.225  0.2058  0.5206 -0.5989
 2144TIP3    H127923   2.534   0.124   5.152  1.6667 -1.3467 -0.6328
 2144TIP3    H227924   2.536   0.011   5.252 -0.1161  1.3090  2.5798
 2145TIP3   OH227925   6.814   0.484   5.535 -0.2105  0.1014  0.0811
 2145TIP3    H127926   6.775   0.548   5.475 -1.4409  0.1053  0.8366
 2145TIP3    H227927   6.795   0.519   5.622 -0.8282 -1.2293  0.5122
 2146TIP3   OH227928   3.044   1.907  15.010  0.0135 -0.3442 -0.0443
 2146TIP3    H127929   3.139   1.908  15.000  0.1137 -0.0653  0.8316
 2146TIP3    H227930   3.015   1.988  14.967 -0.2364 -2.1039 -3.5582
 2147TIP3   OH227931   4.014   0.039   0.460  0.1500  0.6369 -0.0605
 2147TIP3    H127932   4.080   0.099   0.494  0.5327 -0.3455  1.0072
 2147TIP3    H227933   3.997  -0.022   0.532 -2.2709  1.1109 -0.1239
 2148TIP3   OH227934   6.543   6.546  15.861 -0.3914  0.3778 -0.6460
 2148TIP3    H127935   6.529   6.517  15.770 -0.9926 -0.1889 -0.3803
 2148TIP3    H227936   6.478   6.614  15.874  0.4301  1.2508 -0.9819
 2149TIP3   OH227937   2.941   1.557   4.484 -0.2380 -0.1758  0.0264
 2149TIP3    H127938   2.850   1.571   4.456 -0.4198 -0.8318  0.2488
 2149TIP3    H227939   2.957   1.464   4.466  0.4494 -0.0214 -0.1689
 2150TIP3   OH227940   5.922   5.851   4.833  0.0360  0.0217  0.4669
 2150TIP3    H127941   5.974   5.883   4.907  0.3881 -2.5749  1.4516
 2150TIP3    H227942   5.885   5.768   4.864 -0.8143 -0.5448 -1.8770
 2151TIP3   OH227943   3.831   3.906   2.174 -0.5187  0.4078 -0.4207
 2151TIP3    H127944   3.763   3.924   2.238 -1.5418 -0.3656 -1.2496
 2151TIP3    H227945   3.900   3.970   2.192 -0.8192  0.2576  1.3671
 2152TIP3   OH227946   2.317   5.656   1.141  0.3776  0.2891  0.6633
 2152TIP3    H127947   2.328   5.584   1.080 -0.0696  0.4714  0.3626
 2152TIP3    H227948   2.315   5.614   1.227  1.1393  0.0448  0.5720
 2153TIP3   OH227949   1.584   4.621   4.908  0.5243 -0.6416  0.1870
 2153TIP3    H127950   1.525   4.558   4.951  0.3037 -2.1022 -2.0741
 2153TIP3    H227951   1.646   4.566   4.860  3.2522  0.8665  1.7423
 2154TIP3   OH227952   3.051   2.463   2.374 -0.0483 -0.2498 -0.3802
 2154TIP3    H127953   3.038   2.556   2.351  0.3388 -0.2184 -0.4745
 2154TIP3    H227954   3.114   2.432   2.309  1.9185  0.1077  1.2856
 2155TIP3   OH227955   0.640   6.128  16.476 -0.0711 -0.3520 -0.2743
 2155TIP3    H127956   0.548   6.127  16.504 -0.0115  1.3349  0.0877
 2155TIP3    H227957   0.663   6.035  16.467 -1.6428 -0.8201  0.1551
 2156TIP3   OH227958   0.173   3.678  15.214  0.3665  0.1818 -0.2497
 2156TIP3    H127959   0.100   3.687  15.153 -0.4585 -0.7107  0.5868
 2156TIP3    H227960   0.137   3.705  15.299  1.2848  0.6708  0.0023
 2157TIP3   OH227961   3.242   5.198   4.257 -0.4300  0.2691 -0.5367
 2157TIP3    H127962   3.234   5.239   4.343 -0.4053 -0.3493 -0.2325
 2157TIP3    H227963   3.316   5.242   4.216  1.1968 -1.1217  0.7575
 2158TIP3   OH227964   5.127   3.802   1.081  0.2769 -0.0373 -0.1825
 2158TIP3    H127965   5.197   3.824   1.142 -1.4544 -0.8936  2.2881
 2158TIP3    H227966   5.053   3.856   1.110 -0.2638  0.5056 -2.4158
 2159TIP3   OH227967   6.428   6.795   5.783 -0.2042  0.3862  0.0135
 2159TIP3    H127968   6.476   6.878   5.776 -2.4922  1.7311 -0.8630
 2159TIP3    H227969   6.401   6.791   5.875 -0.0091  0.5604  0.0795
 2160TIP3   OH227970   3.998   3.190  12.742 -0.4315  0.2054 -0.3333
 2160TIP3    H127971   4.035   3.149  12.663 -0.5587 -0.5068 -0.0357
 2160TIP3    H227972   4.000   3.284  12.724  0.9682  0.1532 -0.5684
 2161TIP3   OH227973   4.399   6.809  14.805  0.5395  0.3303 -0.4536
 2161TIP3    H127974   4.450   6.888  14.789 -1.3181  1.6777 -0.1109
 2161TIP3    H227975   4.339   6.803  14.730 -0.8680  0.5769  0.6051
 2162TIP3   OH227976   2.233   1.541   3.788 -0.0283 -0.3440 -0.2529
 2162TIP3    H127977   2.313   1.583   3.757  0.0753 -0.3773 -0.0321
 2162TIP3    H227978   2.249   1.447   3.775 -0.5605 -0.2897 -1.4734
 2163TIP3   OH227979   0.906   6.227  14.672 -0.2646 -0.6838  0.4267
 2163TIP3    H127980   0.849   6.183  14.610 -0.7506  1.7065 -0.9635
 2163TIP3    H227981   0.994   6.198  14.648 -0.6470 -2.1761  0.7137
 2164TIP3   OH227982   2.858   6.773  10.756 -0.6012 -0.1286 -0.2000
 2164TIP3    H127983   2.929   6.737  10.703 -0.1997  1.4024 -0.7717
 2164TIP3    H227984   2.778   6.741  10.715 -0.2549 -1.0568 -0.1563
 2165TIP3   OH227985   0.637   4.843   4.949 -0.2132 -0.0820 -0.2305
 2165TIP3    H127986   0.635   4.898   4.871 -1.1832 -0.4537 -0.4787
 2165TIP3    H227987   0.582   4.768   4.927 -0.7150 -0.0678  0.8996
 2166TIP3   OH227988   3.867   2.171   5.373 -0.5528  0.5137 -0.4536
 2166TIP3    H127989   3.810   2.249   5.374 -1.9503 -0.4660  0.3128
 2166TIP3    H227990   3.815   2.105   5.326 -0.6909 -0.8403  1.4968
 2167TIP3   OH227991   4.325   6.015  16.763 -0.6174 -0.2363 -0.4720
 2167TIP3    H127992   4.292   6.105  16.765 -1.3081 -0.4884 -0.2559
 2167TIP3    H227993   4.303   5.979  16.849  1.2647 -0.0633  0.1082
 2168TIP3   OH227994   4.846   6.697   5.418  0.2846 -0.4555 -0.4456
 2168TIP3    H127995   4.893   6.615   5.401 -1.5184 -1.4274 -1.0069
 2168TIP3    H227996   4.915   6.763   5.423  1.6000 -1.4582 -3.1836
 2169TIP3   OH227997   6.782   3.531  14.849  0.2256  0.0904 -0.1004
 2169TIP3    H127998   6.723   3.600  14.878 -2.6664 -2.3050  0.2436
 2169TIP3    H227999   6.828   3.504  14.929  1.2563  1.4112 -0.2089
 2170TIP3   OH228000   4.304   3.948   5.567  0.0181  0.2539 -0.6978
 2170TIP3    H128001   4.320   3.945   5.661 -0.4848  0.0226 -0.6141
 2170TIP3    H228002   4.380   3.905   5.528  0.2845  0.4575 -0.4037
 2171TIP3   OH228003   1.496   0.277   3.278 -0.0401 -0.5193  0.7034
 2171TIP3    H128004   1.509   0.310   3.188  0.3324 -2.7822 -0.1386
 2171TIP3    H228005   1.542   0.341   3.333  2.8131 -0.8428 -1.0552
 2172TIP3   OH228006   1.338   6.143   1.757 -0.1618 -0.5025  0.2001
 2172TIP3    H128007   1.257   6.195   1.752 -0.2536 -0.4719  1.6763
 2172TIP3    H228008   1.340   6.111   1.847  1.4019 -0.6432  0.1284
 2173TIP3   OH228009   0.420   1.723  13.816 -0.4572 -0.2766  0.4879
 2173TIP3    H128010   0.379   1.710  13.901  0.5766 -0.1271  1.0288
 2173TIP3    H228011   0.501   1.672  13.820  0.1155  0.5628 -0.0179
 2174TIP3   OH228012   5.042   5.579   5.613 -0.6487  0.0358  0.2984
 2174TIP3    H128013   5.082   5.509   5.665  0.0273  0.3024  0.1526
 2174TIP3    H228014   5.086   5.659   5.644  0.1104  0.1491 -1.0076
 2175TIP3   OH228015   3.009   1.993   0.055  0.1941 -0.0564  0.0179
 2175TIP3    H128016   2.932   1.985  -0.002  1.6242 -2.3523 -1.7975
 2175TIP3    H228017   3.067   2.052   0.007  0.6160 -0.4234  0.0784
 2176TIP3   OH228018   4.575   3.008   3.332 -0.2360  0.0780 -0.7850
 2176TIP3    H128019   4.577   3.042   3.422  0.6356  0.8640 -1.0876
 2176TIP3    H228020   4.533   3.078   3.281 -1.2668 -0.6127 -0.8982
 2177TIP3   OH228021   0.318   1.882   0.873  0.2746  0.2070 -0.1221
 2177TIP3    H128022   0.243   1.907   0.819 -1.0135 -1.9521  0.5617
 2177TIP3    H228023   0.291   1.800   0.915  3.0398 -0.6696  0.1192
 2178TIP3   OH228024   2.333   1.758   5.184 -0.0579 -0.3832 -0.2567
 2178TIP3    H128025   2.394   1.829   5.206  0.7143 -1.4653  1.2888
 2178TIP3    H228026   2.274   1.797   5.119 -0.2062  1.9689  1.1480
 2179TIP3   OH228027   6.149   6.345  11.451 -0.2007 -0.1331  0.3400
 2179TIP3    H128028   6.090   6.413  11.481 -1.9137 -2.1852  1.9212
 2179TIP3    H228029   6.094   6.268  11.438  2.0042 -2.0918  1.6068
 2180TIP3   OH228030   0.258   0.287  13.961  0.8462 -0.1988 -0.0284
 2180TIP3    H128031   0.175   0.242  13.975 -0.1294  1.2553 -0.8023
 2180TIP3    H228032   0.304   0.282  14.045 -0.7184  0.2907  0.8871
 2181TIP3   OH228033   1.886   5.342  14.521  0.0044  0.5601  0.4833
 2181TIP3    H128034   1.905   5.435  14.522 -0.1841  0.5996  1.3311
 2181TIP3    H228035   1.914   5.312  14.434  1.0126  1.2026  0.5730
 2182TIP3   OH228036   0.524   3.720  13.731  0.4785 -0.0990  0.2114
 2182TIP3    H128037   0.447   3.727  13.787  0.8917  0.6062  0.6958
 2182TIP3    H228038   0.598   3.729  13.790  0.9852 -2.0623 -0.0513
 2183TIP3   OH228039   6.130   2.398  16.081 -0.0918  0.3322  0.8928
 2183TIP3    H128040   6.123   2.433  16.170 -0.7368 -0.2828  1.0953
 2183TIP3    H228041   6.224   2.395  16.064 -0.0044  2.3674  0.7754
 2184TIP3   OH228042   6.010   5.448  13.428  0.4072  0.2845 -0.4187
 2184TIP3    H128043   6.060   5.509  13.482 -0.1914 -0.9231  1.6049
 2184TIP3    H228044   5.994   5.496  13.346  4.1695  1.0263 -0.9262
 2185TIP3   OH228045   4.653   1.185  13.973  0.2553 -0.0793 -0.0464
 2185TIP3    H128046   4.740   1.146  13.965 -0.3822 -2.0530  1.5652
 2185TIP3    H228047   4.641   1.196  14.068 -0.3366  2.4704 -0.3534
 2186TIP3   OH228048   3.672   3.144   5.372 -0.6510 -0.6738  0.7015
 2186TIP3    H128049   3.688   3.237   5.352 -0.3795 -0.9799 -0.6107
 2186TIP3    H228050   3.682   3.100   5.288  1.8071 -2.2658  1.7270
 2187TIP3   OH228051   2.976   3.821   0.612 -0.0371 -0.4261 -0.2593
 2187TIP3    H128052   2.985   3.905   0.567 -5.6311  0.6587 -0.0641
 2187TIP3    H228053   2.990   3.843   0.704  1.5336 -0.4888 -0.4490
 2188TIP3   OH228054   1.176   1.248  10.808 -0.5154 -0.1065  0.4833
 2188TIP3    H128055   1.119   1.208  10.742  1.2352 -0.9408 -0.5873
 2188TIP3    H228056   1.249   1.186  10.818  0.1612  0.8554  1.9054
 2189TIP3   OH228057   0.971   2.082  15.502  0.3424  0.1949  0.2367
 2189TIP3    H128058   1.007   2.000  15.537  2.2409  0.4813 -0.8955
 2189TIP3    H228059   0.924   2.055  15.423  0.1338  0.0977  0.3914
 2190TIP3   OH228060   3.876   2.261   5.060 -0.4265 -0.9475 -0.1768
 2190TIP3    H128061   3.854   2.276   4.968  2.3053  0.0188 -0.7529
 2190TIP3    H228062   3.797   2.288   5.107 -0.4613  2.8793 -2.0001
 2191TIP3   OH228063   1.097   0.926   2.846 -0.6430  0.7624 -0.5672
 2191TIP3    H128064   1.034   0.874   2.896 -0.7596 -0.5158 -1.9619
 2191TIP3    H228065   1.048   1.003   2.818 -0.3592  1.9301  1.8594
 2192TIP3   OH228066   3.203   2.500  13.610  0.1370 -0.1030 -0.3693
 2192TIP3    H128067   3.177   2.587  13.581 -1.2993 -1.2594 -2.8183
 2192TIP3    H228068   3.262   2.468  13.541  0.6303 -1.1090  0.4791
 2193TIP3   OH228069   2.659   3.646  13.190  0.2697 -0.3642  0.1794
 2193TIP3    H128070   2.712   3.706  13.243  0.3783 -0.9491  0.7389
 2193TIP3    H228071   2.650   3.567  13.243 -1.4802 -0.1567  0.2441
 2194TIP3   OH228072   3.897   3.131  11.612 -0.0320  0.1737 -0.6878
 2194TIP3    H128073   3.880   3.203  11.551  0.9542  0.1599 -0.9851
 2194TIP3    H228074   3.938   3.063  11.559  0.9527  0.2096  0.0031
 2195TIP3   OH228075   4.817   1.500   0.489 -0.2573 -0.2558 -0.7778
 2195TIP3    H128076   4.807   1.557   0.565 -0.5258 -0.6829 -0.4821
 2195TIP3    H228077   4.887   1.539   0.438  0.1488 -0.1391 -0.1462
 2196TIP3   OH228078   2.783   1.397  12.335 -0.0035  0.0327  0.4930
 2196TIP3    H128079   2.745   1.481  12.312 -0.2743  0.3524  2.0148
 2196TIP3    H228080   2.775   1.344  12.255 -2.3728  0.5333  0.3167
 2197TIP3   OH228081   0.040   0.531  16.207  0.0412  0.0696 -0.6252
 2197TIP3    H128082   0.038   0.438  16.182  0.7260 -0.0349 -0.3362
 2197TIP3    H228083   0.075   0.531  16.296 -1.3886  0.5109 -0.0466
 2198TIP3   OH228084   4.021   1.278  12.498  0.2457  0.2392  0.0060
 2198TIP3    H128085   4.106   1.317  12.518  1.0062 -2.2213  1.9976
 2198TIP3    H228086   4.023   1.193  12.540 -2.4019 -0.8267 -1.7793
 2199TIP3   OH228087   1.161   5.515   2.141  0.1459 -0.0077 -0.2898
 2199TIP3    H128088   1.150   5.599   2.097  1.3842  0.6472  0.5770
 2199TIP3    H228089   1.243   5.524   2.190  1.8165 -2.6480 -2.2833
 2200TIP3   OH228090   1.618   3.194   1.233  0.0613 -0.0015 -0.0692
 2200TIP3    H128091   1.636   3.272   1.284 -0.0502 -0.3122  0.4510
 2200TIP3    H228092   1.608   3.124   1.298 -0.7944 -0.2649 -0.4635
 2201TIP3   OH228093   6.267   4.376  12.230  0.0958 -0.3238 -0.0607
 2201TIP3    H128094   6.183   4.347  12.266  0.8726 -1.1015  1.2269
 2201TIP3    H228095   6.301   4.436  12.296  1.2395 -1.2144  0.1829
 2202TIP3   OH228096   4.480   0.724  16.266 -0.0073 -0.0434  0.0376
 2202TIP3    H128097   4.517   0.768  16.343  0.8608 -0.4307 -0.1458
 2202TIP3    H228098   4.422   0.788  16.227  0.1208  0.4219  0.6043
 2203TIP3   OH228099   4.335   1.107  11.492  0.3922  0.1883 -0.0251
 2203TIP3    H128100   4.345   1.027  11.439 -0.5872  0.1187 -0.1244
 2203TIP3    H228101   4.246   1.101  11.527  0.0499  1.6058 -0.6293
 2204TIP3   OH228102   1.552   6.053   3.057 -0.6425  0.2864 -0.0738
 2204TIP3    H128103   1.546   5.958   3.045 -1.4662  0.0230  1.9343
 2204TIP3    H228104   1.607   6.064   3.135  1.4873  1.6099 -1.6603
 2205TIP3   OH228105   0.230   1.656   3.992 -0.2080  0.0880  0.3629
 2205TIP3    H128106   0.282   1.591   3.946  0.6075 -0.6215  2.2214
 2205TIP3    H228107   0.286   1.734   3.995 -0.3394  0.2001  0.0254
 2206TIP3   OH228108   3.822   0.026   1.504  0.1751  0.0462  0.2840
 2206TIP3    H128109   3.911   0.013   1.537 -0.0694 -1.8059  0.3124
 2206TIP3    H228110   3.820  -0.024   1.422 -0.4233  1.2786 -0.4804
 2207TIP3   OH228111   4.805   0.363  13.679 -0.3229  0.5210 -0.1000
 2207TIP3    H128112   4.849   0.335  13.759 -2.0545 -1.1854  0.3237
 2207TIP3    H228113   4.860   0.329  13.608 -0.0446 -0.0818  0.3913
 2208TIP3   OH228114   5.296   5.816   2.201 -0.1643 -0.4761 -0.1618
 2208TIP3    H128115   5.385   5.790   2.223 -0.1155  0.4702  0.8003
 2208TIP3    H228116   5.248   5.812   2.284 -1.2776 -1.8721 -0.8147
 2209TIP3   OH228117   0.306   1.226  11.548  0.2929  0.5416  0.6056
 2209TIP3    H128118   0.364   1.199  11.620  0.7407  0.5550  0.2565
 2209TIP3    H228119   0.249   1.292  11.587 -0.0102 -0.0267  1.1569
 2210TIP3   OH228120   6.402   5.399  13.302  0.3749  0.6862  0.6247
 2210TIP3    H128121   6.418   5.305  13.309  0.7885  0.6497 -0.6349
 2210TIP3    H228122   6.333   5.407  13.237 -1.0684  1.1664  2.1542
 2211TIP3   OH228123   5.298   1.844   1.084 -0.0194  0.0125  0.1130
 2211TIP3    H128124   5.266   1.819   0.997  2.0091  0.6087 -0.8582
 2211TIP3    H228125   5.367   1.781   1.103 -0.7756 -0.4170  1.5408
 2212TIP3   OH228126   3.765   0.768  12.915 -0.2090 -0.0349 -0.2214
 2212TIP3    H128127   3.799   0.772  12.825 -1.5113 -0.8185 -0.7895
 2212TIP3    H228128   3.774   0.676  12.939  0.2678  0.1984  0.5255
 2213TIP3   OH228129   2.548   0.049   3.533  0.3076  0.2674 -0.2126
 2213TIP3    H128130   2.606   0.071   3.460 -0.2887  2.8997  0.0307
 2213TIP3    H228131   2.599   0.069   3.611  0.4987 -1.3778  0.1277
 2214TIP3   OH228132   4.680   2.033   2.641  0.0377 -0.1031 -0.0662
 2214TIP3    H128133   4.696   2.060   2.732  2.2408 -1.2802 -0.0171
 2214TIP3    H228134   4.594   2.069   2.619 -0.5636  0.1854  2.4884
 2215TIP3   OH228135   5.887   6.170  12.777 -0.1259  0.9427 -0.4560
 2215TIP3    H128136   5.948   6.160  12.850  0.9981  0.4690 -1.4270
 2215TIP3    H228137   5.808   6.207  12.816  0.8564  1.7613  0.8137
 2216TIP3   OH228138   0.722   4.263  16.599  0.1180  0.5181  0.3564
 2216TIP3    H128139   0.803   4.239  16.554 -0.8618 -1.5490 -0.4149
 2216TIP3    H228140   0.664   4.293  16.529 -0.2569  0.6238  0.7111
 2217TIP3   OH228141   0.227   2.244  12.300  0.1776  0.0115 -0.2212
 2217TIP3    H128142   0.235   2.310  12.369 -0.4033  0.6639 -0.7590
 2217TIP3    H228143   0.253   2.289  12.220 -1.1084 -0.1108 -0.7424
 2218TIP3   OH228144   5.453   2.860  16.309  0.4375  0.2768 -0.2210
 2218TIP3    H128145   5.519   2.906  16.361  0.4490  0.6308 -0.5479
 2218TIP3    H228146   5.405   2.929  16.263  1.5818 -0.1027 -2.0831
 2219TIP3   OH228147   2.197   0.394   6.188 -0.1631 -0.2475  0.2139
 2219TIP3    H128148   2.131   0.397   6.257 -0.1104  2.5322  0.2393
 2219TIP3    H228149   2.270   0.345   6.226 -0.2901  0.8807  1.9926
 2220TIP3   OH228150   6.365   0.220   5.437 -0.4148 -0.0977  0.1301
 2220TIP3    H128151   6.443   0.253   5.392 -1.9363  1.5199 -1.5228
 2220TIP3    H228152   6.392   0.136   5.475  2.3359  0.8393  0.4050
 2221TIP3   OH228153   4.528   4.787   0.143  0.0205  0.2346  0.6574
 2221TIP3    H128154   4.511   4.693   0.145  2.2083 -0.2095  0.9016
 2221TIP3    H228155   4.588   4.802   0.217 -0.2042  1.7994  0.5505
 2222TIP3   OH228156   6.555   5.781   6.372 -0.1347  0.0625 -0.0884
 2222TIP3    H128157   6.484   5.717   6.367  0.6859 -0.8672  0.0173
 2222TIP3    H228158   6.626   5.735   6.416  0.9590  0.5815 -1.2547
 2223TIP3   OH228159   1.067   0.406  11.382  0.2579  0.4299  0.0395
 2223TIP3    H128160   1.161   0.396  11.399  0.1798  0.2531  0.3781
 2223TIP3    H228161   1.035   0.458  11.456  0.3897  1.9537 -0.9314
 2224TIP3   OH228162   2.678   5.658   4.265  0.3771 -0.2836 -0.2428
 2224TIP3    H128163   2.702   5.604   4.339  1.2492 -1.0968 -1.0871
 2224TIP3    H228164   2.671   5.747   4.301 -1.4946 -0.9836  1.2443
 2225TIP3   OH228165   1.311   0.817  14.252 -0.2150  0.3335  0.2768
 2225TIP3    H128166   1.360   0.791  14.174  1.2895 -1.4597  1.7228
 2225TIP3    H228167   1.221   0.789  14.235  0.0002  0.3381 -0.9448
 2226TIP3   OH228168   2.114   0.969  17.131  0.1212 -0.2884  0.1599
 2226TIP3    H128169   2.171   1.038  17.165  1.9680 -0.5679 -2.1558
 2226TIP3    H228170   2.151   0.946  17.046 -4.2155  0.4770 -2.2449
 2227TIP3   OH228171   1.258   1.053   3.029  0.4498  0.7726  0.1593
 2227TIP3    H128172   1.211   1.080   3.108 -1.6121  1.3021 -1.1660
 2227TIP3    H228173   1.190   1.017   2.972  2.2078 -1.6802 -0.5570
 2228TIP3   OH228174   2.778   2.817  10.884  0.5574  0.2795 -0.2586
 2228TIP3    H128175   2.856   2.790  10.836 -0.1237  0.0246 -1.2483
 2228TIP3    H228176   2.765   2.748  10.949 -0.5342 -1.2845 -2.0455
 2229TIP3   OH228177   5.179   4.735  12.846 -0.4228 -0.1536  0.3074
 2229TIP3    H128178   5.152   4.765  12.933  0.6092  0.6169  0.3828
 2229TIP3    H228179   5.248   4.670  12.863  1.1600  1.3788  0.0890
 2230TIP3   OH228180   5.061   2.354  13.539 -0.3240  0.2605  0.6426
 2230TIP3    H128181   5.054   2.417  13.468 -1.8025 -2.4193 -1.7953
 2230TIP3    H228182   4.971   2.346  13.572 -0.3379 -1.1192  0.3238
 2231TIP3   OH228183   6.293   3.317   4.200 -0.6352  0.1539  0.6582
 2231TIP3    H128184   6.373   3.329   4.150 -0.5474 -1.1801  0.4468
 2231TIP3    H228185   6.288   3.222   4.216 -1.5862  0.3442  1.6230
 2232TIP3   OH228186   0.430   5.343  11.132 -0.1248  0.1388 -0.6207
 2232TIP3    H128187   0.466   5.400  11.064 -0.4714 -2.0640 -2.8078
 2232TIP3    H228188   0.507   5.307  11.176  0.3572 -1.5862 -2.7058
 2233TIP3   OH228189   2.848   1.716   6.034 -0.1270  0.3198  0.1037
 2233TIP3    H128190   2.861   1.811   6.040  1.9076  0.0489  0.7460
 2233TIP3    H228191   2.826   1.690   6.123 -1.6999  0.2874 -0.2718
 2234TIP3   OH228192   6.316   0.863   3.377 -0.0001 -0.0305  0.1767
 2234TIP3    H128193   6.299   0.769   3.375 -0.1433  0.0170 -1.0554
 2234TIP3    H228194   6.250   0.897   3.437 -0.6946 -0.5729 -0.2641
 2235TIP3   OH228195   5.811   1.169   1.069 -0.0572  0.6949  0.0375
 2235TIP3    H128196   5.888   1.117   1.089  0.4123  1.0862 -0.7520
 2235TIP3    H228197   5.840   1.233   1.004 -1.4920 -0.3949 -1.7581
 2236TIP3   OH228198   6.611   5.769   3.892 -0.2088 -0.3136 -0.2643
 2236TIP3    H128199   6.561   5.827   3.949  1.8886 -0.8723  2.3586
 2236TIP3    H228200   6.640   5.825   3.820 -1.3709  0.9049  0.1709
 2237TIP3   OH228201   3.679   0.532  13.833 -0.0099 -0.9061  0.2263
 2237TIP3    H128202   3.593   0.573  13.841  0.2796 -0.3940  0.7043
 2237TIP3    H228203   3.661   0.438  13.846 -0.4655 -0.7838  0.5247
 2238TIP3   OH228204   5.133   2.841   4.982  0.7654  0.0542  0.1516
 2238TIP3    H128205   5.184   2.845   5.063  0.4371 -0.7716  0.4123
 2238TIP3    H228206   5.047   2.873   5.006  1.0011  0.9628 -0.1690
 2239TIP3   OH228207   4.895   4.059  13.651  0.0312 -0.4476 -0.4087
 2239TIP3    H128208   4.952   4.089  13.721  0.2702  1.7778 -1.4512
 2239TIP3    H228209   4.892   4.132  13.589 -1.4072 -1.7116 -1.9627
 2240TIP3   OH228210   5.578   2.406  13.504  0.1984  0.5714  0.8154
 2240TIP3    H128211   5.624   2.336  13.457 -0.5939 -0.2751  1.2746
 2240TIP3    H228212   5.609   2.399  13.594 -2.3251 -1.4116  1.6400
 2241TIP3   OH228213   6.043   6.397   1.003  0.6148  0.5506 -0.3371
 2241TIP3    H128214   6.122   6.451   0.994  1.9831 -0.7405  2.5791
 2241TIP3    H228215   6.077   6.308   1.016 -1.3554 -0.1164  0.5210
 2242TIP3   OH228216   6.714   4.123   1.154  0.0794  0.4363 -0.3709
 2242TIP3    H128217   6.805   4.120   1.185  0.2184  0.7791 -0.7342
 2242TIP3    H228218   6.669   4.056   1.205  0.4258  0.6094  0.1731
 2243TIP3   OH228219   6.456   1.047   5.115 -0.5771 -0.4486 -0.3147
 2243TIP3    H128220   6.501   0.966   5.090 -1.4790 -1.8480  2.1809
 2243TIP3    H228221   6.508   1.082   5.188 -0.8274  0.5958 -0.6247
 2244TIP3   OH228222   0.194   3.761  14.768 -0.1879  0.5013  0.7663
 2244TIP3    H128223   0.116   3.733  14.720  1.8161  0.0132 -2.5440
 2244TIP3    H228224   0.193   3.856  14.761 -0.1244  0.4573  0.0213
 2245TIP3   OH228225   6.770   5.840   4.366  0.4941  0.3602  0.1693
 2245TIP3    H128226   6.749   5.848   4.273  0.4437 -1.6446 -0.0316
 2245TIP3    H228227   6.700   5.888   4.410  1.0103  2.1278 -0.8173
 2246TIP3   OH228228   4.783   5.203  14.004  0.0337  0.3476  0.2093
 2246TIP3    H128229   4.751   5.216  13.915 -0.6653  0.4186  0.4661
 2246TIP3    H228230   4.717   5.148  14.046 -0.8715  2.2165  1.3810
 2247TIP3   OH228231   6.415   1.294   2.401  0.2555  0.5695  0.3273
 2247TIP3    H128232   6.476   1.237   2.355  1.3602  1.2775  0.8776
 2247TIP3    H228233   6.459   1.379   2.404 -1.1569  1.3635 -0.0861
 2248TIP3   OH228234   6.305   1.460  13.282  0.1921  0.5275  0.6343
 2248TIP3    H128235   6.214   1.486  13.271  0.1369  0.2651  0.4554
 2248TIP3    H228236   6.351   1.501  13.209  0.1465  0.3216  0.4896
 2249TIP3   OH228237   6.158   0.454  12.790  0.5627  0.1982 -0.8785
 2249TIP3    H128238   6.089   0.472  12.854 -0.5895  0.2395 -2.0732
 2249TIP3    H228239   6.236   0.436  12.842 -0.4499 -0.2652  0.5281
 2250TIP3   OH228240   5.618   0.973   3.062 -0.4829  0.5029 -0.6546
 2250TIP3    H128241   5.582   0.889   3.090 -0.5539  0.7269 -0.0630
 2250TIP3    H228242   5.573   1.038   3.116 -0.7486  0.9623 -1.4124
 2251TIP3   OH228243   0.222   2.529   5.142 -0.2310 -0.3248  0.1853
 2251TIP3    H128244   0.141   2.518   5.192 -0.3629 -0.5388 -0.0706
 2251TIP3    H228245   0.230   2.623   5.130 -0.6343 -0.3189 -0.0913
 2252TIP3   OH228246   3.986   1.358  12.809  0.0321  0.3970 -0.7645
 2252TIP3    H128247   3.901   1.336  12.847  0.9269  0.6688  1.5482
 2252TIP3    H228248   4.006   1.284  12.752 -1.1914 -0.2680 -0.3854
 2253TIP3   OH228249   4.046   5.473   1.724  0.0538  0.4611 -0.0022
 2253TIP3    H128250   4.010   5.386   1.737  0.0906 -0.0282 -2.6351
 2253TIP3    H228251   4.131   5.471   1.766 -0.5960 -0.2379  1.3189
 2254TIP3   OH228252   1.166   3.877   5.053  0.4040  0.1370  0.0942
 2254TIP3    H128253   1.129   3.877   5.141 -1.9264  1.8923 -0.7625
 2254TIP3    H228254   1.091   3.859   4.996  1.6048  0.2514 -1.6078
 2255TIP3   OH228255   5.603   3.663   2.651 -0.3296  0.2846  0.2948
 2255TIP3    H128256   5.683   3.636   2.605 -0.6824 -0.2127 -0.0269
 2255TIP3    H228257   5.560   3.582   2.676 -0.4142  0.5465  1.0523
 2256TIP3   OH228258   5.225   1.269   1.808  0.2483 -0.0784 -0.5328
 2256TIP3    H128259   5.250   1.179   1.786 -1.0890 -0.7253  0.4658
 2256TIP3    H228260   5.131   1.265   1.822  0.6560  0.6357  3.2935
 2257TIP3   OH228261   1.020   6.194  15.481  1.2178 -0.1405  0.1079
 2257TIP3    H128262   0.929   6.205  15.452  0.5728  0.5313  2.2493
 2257TIP3    H228263   1.052   6.283  15.494  3.0972 -0.2060 -2.9798
 2258TIP3   OH228264   2.736   5.252  11.673 -0.4218  0.1277 -0.3072
 2258TIP3    H128265   2.786   5.280  11.596 -0.8711 -1.2061 -1.1023
 2258TIP3    H228266   2.757   5.159  11.683 -1.1409  0.0531  0.5980
 2259TIP3   OH228267   3.418   2.410  15.446 -0.2025 -0.3168 -0.2764
 2259TIP3    H128268   3.404   2.485  15.504  0.2748 -0.5991  0.2157
 2259TIP3    H228269   3.330   2.386  15.417 -0.5237 -0.5346  0.8072
 2260TIP3   OH228270   6.579   6.158   3.056 -0.7153 -0.0591 -0.3306
 2260TIP3    H128271   6.487   6.136   3.042 -1.5798  1.7198  1.8435
 2260TIP3    H228272   6.595   6.233   2.999 -0.5050 -0.5707 -0.9493
 2261TIP3   OH228273   3.291   0.315   3.090  0.0118  0.0428  0.6078
 2261TIP3    H128274   3.366   0.369   3.114 -0.1265  0.3452  0.3609
 2261TIP3    H228275   3.220   0.345   3.147 -0.9722  2.3562 -1.6621
 2262TIP3   OH228276   4.710   4.157   0.494  0.1362 -0.6210 -0.0476
 2262TIP3    H128277   4.764   4.097   0.547  1.1285 -1.9001 -2.3339
 2262TIP3    H228278   4.662   4.210   0.558  2.0567 -1.3133  2.1002
 2263TIP3   OH228279   6.508   4.441  10.942  1.1250 -0.3502 -0.4491
 2263TIP3    H128280   6.544   4.376  10.882 -0.5499 -1.6130 -0.1442
 2263TIP3    H228281   6.414   4.441  10.924  0.8756  0.8110  0.6955
 2264TIP3   OH228282   5.332   3.350   4.053  0.2592 -0.4227 -0.5330
 2264TIP3    H128283   5.397   3.351   3.983 -0.0102 -0.2816 -0.7824
 2264TIP3    H228284   5.293   3.263   4.048  0.8619 -0.7387  0.0263
 2265TIP3   OH228285   0.732   1.768   2.090  0.2778 -0.5852 -0.0413
 2265TIP3    H128286   0.726   1.798   2.181 -0.9068 -0.1027 -0.2704
 2265TIP3    H228287   0.650   1.721   2.075  0.9224 -1.5998 -0.5484
 2266TIP3   OH228288   0.052   6.534   2.908 -0.3244 -0.6196 -0.4487
 2266TIP3    H128289   0.084   6.525   2.818 -1.6684  1.8870 -1.2637
 2266TIP3    H228290  -0.031   6.486   2.909 -0.9351  0.4098 -0.9316
 2267TIP3   OH228291   2.921   6.697   3.569 -0.7603 -0.2726 -0.6617
 2267TIP3    H128292   2.888   6.669   3.483 -0.7151  0.6178 -0.9864
 2267TIP3    H228293   3.011   6.725   3.552 -0.9690  0.5379 -0.4604
 2268TIP3   OH228294   2.453   4.891   4.337 -0.0379 -0.1821 -0.1846
 2268TIP3    H128295   2.401   4.965   4.306 -0.7024 -1.1875 -1.5679
 2268TIP3    H228296   2.447   4.826   4.267  0.8682 -1.3911  0.8094
 2269TIP3   OH228297   3.366   1.100   2.159 -0.2615  0.4188 -0.3754
 2269TIP3    H128298   3.373   1.069   2.249  1.3308 -1.0887 -0.9736
 2269TIP3    H228299   3.377   1.022   2.105 -0.3526  1.4110 -1.8942
 2270TIP3   OH228300   0.126   3.798   1.132 -0.2850 -0.0863  0.1926
 2270TIP3    H128301   0.144   3.706   1.150 -1.5869 -0.3191  0.4066
 2270TIP3    H228302   0.050   3.797   1.074  0.0200  0.8468 -0.2470
 2271TIP3   OH228303   5.815   6.424   0.677 -0.3179  0.3357 -0.4967
 2271TIP3    H128304   5.893   6.458   0.719  0.3668 -1.1397 -0.4854
 2271TIP3    H228305   5.839   6.417   0.584 -0.3674 -0.2668 -0.4695
 2272TIP3   OH228306   6.421   2.998   3.311  0.6388 -0.5389 -0.5894
 2272TIP3    H128307   6.328   3.021   3.309  0.6625 -0.3736  0.0221
 2272TIP3    H228308   6.437   2.957   3.226  0.5122  1.3379 -1.5815
 2273TIP3   OH228309   5.786   3.677   2.408  0.2728 -0.3877 -0.3726
 2273TIP3    H128310   5.759   3.736   2.338 -1.2699 -0.6744 -0.0625
 2273TIP3    H228311   5.803   3.594   2.363 -3.3589 -1.3983 -0.2638
 2274TIP3   OH228312   2.707   5.624   0.164  0.0177 -0.5985  0.6785
 2274TIP3    H128313   2.614   5.644   0.152  0.1807 -0.0075  0.3480
 2274TIP3    H228314   2.721   5.545   0.112  0.0103  0.1359 -0.4652
 2275TIP3   OH228315   5.656   2.833   3.309  0.1696 -0.0034 -0.4971
 2275TIP3    H128316   5.616   2.757   3.267  0.0831 -0.1658 -0.1193
 2275TIP3    H228317   5.692   2.884   3.236  0.5386 -0.5836 -0.7289
 2276TIP3   OH228318   1.327   5.652  12.474  0.3586 -0.7863 -0.3299
 2276TIP3    H128319   1.400   5.713  12.483  1.3579 -2.0034  0.1073
 2276TIP3    H228320   1.252   5.698  12.513  1.2142 -0.0740  0.5151
 2277TIP3   OH228321   0.078   0.051   1.145  0.2534 -0.2528  0.2147
 2277TIP3    H128322   0.171   0.049   1.166  0.6240  0.7244 -1.2192
 2277TIP3    H228323   0.041  -0.022   1.196  1.8712 -0.9966  0.4002
 2278TIP3   OH228324   4.436   4.984   1.551 -0.4751  0.5854 -0.4837
 2278TIP3    H128325   4.366   5.048   1.539 -1.2021 -0.4948 -2.3801
 2278TIP3    H228326   4.476   5.008   1.635 -0.0398  4.1131 -1.5422
 2279TIP3   OH228327   0.984   4.322  12.826 -0.2852 -0.1273 -0.1462
 2279TIP3    H128328   1.043   4.250  12.805  0.2018  0.6778 -1.7065
 2279TIP3    H228329   0.925   4.286  12.892  0.4205 -1.7062 -0.3259
 2280TIP3   OH228330   2.402   0.485   5.970  0.0686  0.0483  0.1552
 2280TIP3    H128331   2.372   0.421   6.034 -0.5692  0.8699  0.6971
 2280TIP3    H228332   2.340   0.478   5.898 -1.3550  1.5827  1.1749
 2281TIP3   OH228333   3.038   4.300   2.204 -0.6027 -0.4012  0.7413
 2281TIP3    H128334   2.962   4.323   2.150 -0.4741  0.5801  0.9525
 2281TIP3    H228335   3.079   4.227   2.158  0.5717  1.5505 -1.5923
 2282TIP3   OH228336   3.657   2.085  14.332  0.4326  0.2116  0.2646
 2282TIP3    H128337   3.582   2.028  14.313 -0.5502  0.7416  2.2093
 2282TIP3    H228338   3.662   2.086  14.428  1.6497  1.8312  0.2246
 2283TIP3   OH228339   3.875   5.661   0.456  0.3932 -0.3333  0.5562
 2283TIP3    H128340   3.783   5.676   0.437  0.4447 -0.3382  0.3055
 2283TIP3    H228341   3.891   5.570   0.433  0.4124 -0.3904  0.7903
 2284TIP3   OH228342   2.705   3.399  16.401 -0.7563  0.2582  0.4423
 2284TIP3    H128343   2.738   3.422  16.314 -0.6884 -0.0574  0.3816
 2284TIP3    H228344   2.749   3.460  16.460 -1.4673  1.0548  0.1658
 2285TIP3   OH228345   4.400   5.281  12.283 -0.7214  0.1768 -0.4645
 2285TIP3    H128346   4.326   5.222  12.268  0.7888 -1.6153 -1.1496
 2285TIP3    H228347   4.438   5.294  12.197  0.2071  0.4746 -0.0224
 2286TIP3   OH228348   4.187   3.562  12.178 -0.4656 -0.3580 -0.1581
 2286TIP3    H128349   4.252   3.539  12.245 -0.6358 -0.4429 -0.0239
 2286TIP3    H228350   4.239   3.573  12.098 -0.0892  0.9355  0.2395
 2287TIP3   OH228351   0.601   1.095   3.136  0.5900 -0.4893 -0.1959
 2287TIP3    H128352   0.566   1.007   3.121  0.8530 -1.2203  2.7134
 2287TIP3    H228353   0.664   1.083   3.208  3.6880  1.4666 -2.3644
 2288TIP3   OH228354   6.593   3.850  11.378  0.6729  0.0796 -0.3945
 2288TIP3    H128355   6.609   3.757  11.360 -0.1995  0.3656 -3.1840
 2288TIP3    H228356   6.678   3.892  11.364  0.6121 -0.0660 -1.2560
 2289TIP3   OH228357   4.243   5.084  13.031 -0.3489  0.4292 -0.0296
 2289TIP3    H128358   4.267   5.139  13.106 -1.1161  2.3286 -1.1024
 2289TIP3    H228359   4.326   5.064  12.988 -0.0666  0.8952  0.2832
 2290TIP3   OH228360   2.954   0.748  10.318 -0.1603 -0.2763 -1.0217
 2290TIP3    H128361   2.934   0.655  10.326 -1.8842  0.2251  2.7514
 2290TIP3    H228362   2.869   0.792  10.332  1.0790  1.8263  0.5004
 2291TIP3   OH228363   4.465   5.015   6.152  0.1697  0.0927 -0.1143
 2291TIP3    H128364   4.479   5.081   6.220  1.1905  0.9548 -1.1140
 2291TIP3    H228365   4.547   5.014   6.103 -0.5904 -0.3854 -1.4322
 2292TIP3   OH228366   2.455   1.096   2.845  0.1082  0.0339  0.2981
 2292TIP3    H128367   2.535   1.072   2.799 -0.2470  0.3165 -0.4911
 2292TIP3    H228368   2.436   1.021   2.902  1.9631  0.7528  1.9515
 2293TIP3   OH228369   1.114   1.368  11.549  0.2222  0.4797  0.5334
 2293TIP3    H128370   1.183   1.352  11.614  1.0712  1.0447 -0.1981
 2293TIP3    H228371   1.151   1.435  11.491  0.4888 -1.6576 -1.9529
 2294TIP3   OH228372   4.803   0.498  16.972  0.2267 -0.7191  0.1269
 2294TIP3    H128373   4.831   0.488  17.063 -1.5945 -1.2477  0.6584
 2294TIP3    H228374   4.878   0.467  16.920  1.1202 -0.8236  1.4327
 2295TIP3   OH228375   5.092   3.915   2.152 -0.1450 -0.2034  0.2011
 2295TIP3    H128376   5.004   3.896   2.182 -0.1530 -0.3851  0.0622
 2295TIP3    H228377   5.136   3.953   2.229 -0.8130  1.4115 -0.1573
 2296TIP3   OH228378   4.752   4.975   3.123  0.4143  0.1011 -0.8123
 2296TIP3    H128379   4.722   5.053   3.170  2.4253 -0.1209  1.0246
 2296TIP3    H228380   4.681   4.911   3.134  0.1183  0.6254  0.5246
 2297TIP3   OH228381   2.223   6.297  14.478 -0.1583  0.5657 -0.0445
 2297TIP3    H128382   2.277   6.219  14.468 -1.2745 -0.2661  0.2803
 2297TIP3    H228383   2.203   6.301  14.571  1.6113  2.4443  0.3317
 2298TIP3   OH228384   2.820   0.654  12.742  0.4168 -0.1251  0.2336
 2298TIP3    H128385   2.803   0.579  12.799  0.3969  0.0081  0.4081
 2298TIP3    H228386   2.737   0.702  12.741  0.6076  0.2348  0.6442
 2299TIP3   OH228387   1.804   2.857  15.293 -0.0689  0.0938 -0.3268
 2299TIP3    H128388   1.854   2.908  15.357 -1.2281  0.5489  0.2435
 2299TIP3    H228389   1.831   2.767  15.308  0.1825  0.2761  0.3483
 2300TIP3   OH228390   4.240   1.249  10.911  0.0170  0.1607 -0.2742
 2300TIP3    H128391   4.315   1.304  10.935  0.4566 -0.0887 -1.0559
 2300TIP3    H228392   4.174   1.311  10.880  1.7932  0.1969 -4.7575
 2301TIP3   OH228393   4.064   0.408  16.677 -0.5589  0.8179 -0.6217
 2301TIP3    H128394   4.123   0.476  16.709 -0.3410  0.0689  0.6717
 2301TIP3    H228395   3.978   0.450  16.674 -1.0436  0.4540  3.1424
 2302TIP3   OH228396   5.226   4.892  14.577 -0.9358  0.4928  0.0345
 2302TIP3    H128397   5.322   4.886  14.579 -0.9047 -0.7690 -1.8913
 2302TIP3    H228398   5.208   4.984  14.559 -0.1020  0.8090  0.7648
 2303TIP3   OH228399   0.787   3.553  11.422 -0.2708 -0.5701  0.1386
 2303TIP3    H128400   0.865   3.535  11.369 -0.2204 -1.2834  0.4370
 2303TIP3    H228401   0.774   3.647  11.414 -0.0643 -0.6131 -0.8590
 2304TIP3   OH228402   6.442   0.706   2.473  0.4510 -0.0098  0.2277
 2304TIP3    H128403   6.407   0.656   2.547 -0.4894 -2.5978 -1.8321
 2304TIP3    H228404   6.364   0.732   2.423  1.1178  0.6863 -0.4761
 2305TIP3   OH228405   0.874   2.829   1.322 -0.0246  0.1161  0.1907
 2305TIP3    H128406   0.939   2.880   1.275  0.1776 -0.2075  0.1156
 2305TIP3    H228407   0.815   2.797   1.254  0.7577 -1.0670  0.0371
 2306TIP3   OH228408   6.752   2.362  15.403  0.2805 -0.3326  0.4421
 2306TIP3    H128409   6.670   2.406  15.381 -0.1167 -0.5748  1.3508
 2306TIP3    H228410   6.745   2.276  15.361 -1.0637 -1.3084  2.4734
 2307TIP3   OH228411   6.151   5.101  15.521 -0.0775 -0.1458  0.2134
 2307TIP3    H128412   6.105   5.184  15.530  1.2336  0.7309 -0.7400
 2307TIP3    H228413   6.227   5.109  15.578  0.4584 -0.3875 -0.4505
 2308TIP3   OH228414   5.313   1.256  12.820 -0.0607 -0.1956  0.7532
 2308TIP3    H128415   5.263   1.185  12.860 -0.3897  0.7391  2.1002
 2308TIP3    H228416   5.295   1.248  12.726 -2.2408 -0.3018  1.1146
 2309TIP3   OH228417   1.090   3.087  15.540  0.0872  0.4318 -0.0146
 2309TIP3    H128418   0.995   3.083  15.544  0.0807 -4.2204  1.0112
 2309TIP3    H228419   1.115   3.019  15.477  2.7737  1.4333 -0.1947
 2310TIP3   OH228420   0.562   5.625   3.071 -0.0987 -0.6035 -0.8194
 2310TIP3    H128421   0.616   5.623   3.151 -0.7735 -1.6452 -0.3660
 2310TIP3    H228422   0.544   5.532   3.053 -2.0412 -0.2726 -0.7484
 2311TIP3   OH228423   2.433   0.311   3.449 -0.2146  0.0357  0.3932
 2311TIP3    H128424   2.523   0.326   3.421 -0.1690  2.7121  1.6452
 2311TIP3    H228425   2.405   0.233   3.400  2.4010 -0.2517 -0.8103
 2312TIP3   OH228426   6.200   4.596  15.445 -0.0280  0.5287 -0.1648
 2312TIP3    H128427   6.263   4.584  15.374 -1.6766 -0.8395 -1.4983
 2312TIP3    H228428   6.224   4.531  15.511  1.7428  2.0567  0.7915
 2313TIP3   OH228429   3.436   3.758  13.356 -0.0997  0.2265  0.2090
 2313TIP3    H128430   3.485   3.837  13.382  0.7338  0.0187 -0.6528
 2313TIP3    H228431   3.482   3.686  13.398  0.6740 -0.0188 -1.0027
 2314TIP3   OH228432   2.241   3.946   3.271  0.3236  0.5834  0.0334
 2314TIP3    H128433   2.321   3.898   3.291  0.7924  0.5012 -1.8947
 2314TIP3    H228434   2.178   3.916   3.337  0.8847 -1.9379 -0.4814
 2315TIP3   OH228435   4.435   3.629  10.697 -0.7011  0.0712 -1.1067
 2315TIP3    H128436   4.515   3.641  10.646  1.5888  1.0022  2.3368
 2315TIP3    H228437   4.439   3.539  10.728  0.6187  0.8330  1.2456
 2316TIP3   OH228438   4.892   2.973  12.628  0.0183  0.4695 -0.3817
 2316TIP3    H128439   4.870   3.005  12.540 -0.7063  2.1508  0.3640
 2316TIP3    H228440   4.808   2.950  12.666  0.3167 -0.1076 -0.0636
 2317TIP3   OH228441   0.597   2.998  14.059  0.4630  0.3850 -0.3427
 2317TIP3    H128442   0.659   3.027  13.991  0.0731  0.7432 -0.5488
 2317TIP3    H228443   0.579   3.077  14.110 -0.5011  0.4910 -0.8243
 2318TIP3   OH228444   0.942   0.892   5.816  0.1386  0.2514  0.3453
 2318TIP3    H128445   0.952   0.984   5.839  0.2480  0.0716  1.0302
 2318TIP3    H228446   0.858   0.889   5.769 -1.2448  0.2889  2.6813
 2319TIP3   OH228447   3.956   5.754  13.771  0.2503  0.4424 -0.3588
 2319TIP3    H128448   3.873   5.797  13.750 -0.0549  1.1201  1.9698
 2319TIP3    H228449   3.954   5.672  13.722 -1.8195  0.4389 -0.3498
 2320TIP3   OH228450   6.680   1.993   3.677 -0.1325  0.4278  0.6418
 2320TIP3    H128451   6.761   2.023   3.635 -1.0322  1.4416 -0.4783
 2320TIP3    H228452   6.665   1.906   3.642  0.3485  0.3364  0.6618
 2321TIP3   OH228453   3.401   0.424  15.846  0.2539 -0.4329 -0.2436
 2321TIP3    H128454   3.410   0.361  15.917  1.3198 -2.1399 -1.7895
 2321TIP3    H228455   3.444   0.503  15.878  0.2935 -0.9999  1.1638
 2322TIP3   OH228456   1.029   3.984  16.816 -0.1401 -0.3465  0.0012
 2322TIP3    H128457   1.042   3.894  16.845  0.2976 -1.0528 -2.1620
 2322TIP3    H228458   1.116   4.011  16.785 -0.6742  0.1220 -1.1334
 2323TIP3   OH228459   2.021   2.106   4.909 -0.0677 -1.2942 -0.6077
 2323TIP3    H128460   1.982   2.191   4.930  2.0303 -0.7261  1.4786
 2323TIP3    H228461   2.096   2.128   4.854  0.3840 -1.7854 -0.2042
 2324TIP3   OH228462   5.289   5.131   3.446 -0.3009 -0.0579  0.1855
 2324TIP3    H128463   5.367   5.176   3.412 -1.9723  2.1775 -0.9644
 2324TIP3    H228464   5.267   5.179   3.526 -2.0046  1.1534 -0.9544
 2325TIP3   OH228465   1.600   5.986   1.627  0.2741  0.2882  0.2994
 2325TIP3    H128466   1.580   5.897   1.652 -1.6041  0.3254 -0.8556
 2325TIP3    H228467   1.642   6.025   1.704 -1.6755 -0.6864  1.9294
 2326TIP3   OH228468   3.723   3.120   5.838 -0.0170  0.4077 -0.2771
 2326TIP3    H128469   3.658   3.183   5.807  1.8143  2.9873  0.7861
 2326TIP3    H228470   3.737   3.062   5.763 -2.6137  0.4674 -0.9175
 2327TIP3   OH228471   2.180   5.796   4.983  0.5882 -0.3158  0.2533
 2327TIP3    H128472   2.092   5.791   5.022  0.3703 -0.1164 -0.2073
 2327TIP3    H228473   2.214   5.707   4.990  0.7431 -0.1874  1.3390
 2328TIP3   OH228474   1.498   1.640  13.692  0.5983 -0.0850 -0.1365
 2328TIP3    H128475   1.553   1.717  13.704 -1.3409  1.1406  1.6678
 2328TIP3    H228476   1.473   1.643  13.599  1.8035  0.5212 -0.4627
 2329TIP3   OH228477   1.348   5.503   2.323 -0.0136  0.0036 -0.3409
 2329TIP3    H128478   1.420   5.529   2.381 -0.7042  0.0890  0.5043
 2329TIP3    H228479   1.305   5.430   2.369  0.0654 -0.6454 -1.2587
 2330TIP3   OH228480   0.921   6.513   2.561  0.3171  0.1593 -0.0218
 2330TIP3    H128481   0.925   6.555   2.647  1.0819  0.1995 -0.0668
 2330TIP3    H228482   0.842   6.459   2.563  0.7873 -0.5132  1.0232
 2331TIP3   OH228483   1.010   3.795  16.016 -0.3400 -0.7796 -0.2470
 2331TIP3    H128484   1.072   3.862  15.987 -1.8000  1.4323  1.3976
 2331TIP3    H228485   1.031   3.718  15.963  2.7384  0.3228 -0.8413
 2332TIP3   OH228486   4.883   1.445   4.421 -0.0543 -0.6328  0.1872
 2332TIP3    H128487   4.868   1.362   4.376  1.2928 -0.1020 -1.3586
 2332TIP3    H228488   4.828   1.508   4.374  0.8360 -0.1997 -0.2916
 2333TIP3   OH228489   6.435   0.056  14.393 -0.5502 -0.7428 -0.4165
 2333TIP3    H128490   6.341   0.059  14.406 -0.6790  2.7603 -1.2638
 2333TIP3    H228491   6.472   0.105  14.467  0.4650 -0.5650 -1.0180
 2334TIP3   OH228492   4.618   5.944   4.587  0.1607  0.3688  0.4602
 2334TIP3    H128493   4.590   5.853   4.599 -0.4596  0.6417  1.1404
 2334TIP3    H228494   4.562   5.995   4.646 -0.1038  1.3017 -0.5527
 2335TIP3   OH228495   3.859   6.526  14.121  0.3374 -0.1443 -0.8598
 2335TIP3    H128496   3.874   6.463  14.192 -0.4862 -1.0347 -1.4493
 2335TIP3    H228497   3.820   6.474  14.051  2.9298  0.2790 -2.7661
 2336TIP3   OH228498   3.252   3.657  16.933 -0.3681  0.7251  0.1277
 2336TIP3    H128499   3.319   3.631  16.995  0.3100  0.0427 -0.8710
 2336TIP3    H228500   3.179   3.687  16.988  0.5066  0.8955  1.2282
 2337TIP3   OH228501   4.579   1.181  12.476  0.7201  0.2155 -0.6672
 2337TIP3    H128502   4.548   1.108  12.528  1.5269 -0.6652 -1.3903
 2337TIP3    H228503   4.502   1.212  12.428 -0.0853  1.1727  1.1367
 2338TIP3   OH228504   1.360   5.976   1.245 -0.3627  0.5729  0.0035
 2338TIP3    H128505   1.451   5.950   1.235 -0.2131 -0.1297  2.5841
 2338TIP3    H228506   1.345   5.978   1.339 -3.4180 -0.7649 -0.3257
 2339TIP3   OH228507   4.125   2.669   6.808  0.8281 -0.2253 -0.8057
 2339TIP3    H128508   4.032   2.647   6.808  0.0476  2.6325 -0.1149
 2339TIP3    H228509   4.154   2.654   6.898  0.9387 -0.7359 -0.9251
 2340TIP3   OH228510   6.618   4.459  14.064 -0.1046 -0.5686 -0.6718
 2340TIP3    H128511   6.547   4.487  14.121  0.4169 -0.6629  0.0281
 2340TIP3    H228512   6.683   4.420  14.122  2.7190  3.6457 -0.6046
 2341TIP3   OH228513   4.189   3.934   5.857 -0.2435  0.0802  0.0280
 2341TIP3    H128514   4.124   3.941   5.787 -0.9626 -1.1512  0.5384
 2341TIP3    H228515   4.221   3.844   5.852  1.4300  0.6481 -0.1897
 2342TIP3   OH228516   4.561   1.886   0.720 -0.4633  0.6271 -0.4174
 2342TIP3    H128517   4.496   1.894   0.791 -0.9982  0.3700 -0.8711
 2342TIP3    H228518   4.518   1.924   0.644 -0.8261 -1.2134 -1.1892
 2343TIP3   OH228519   3.186   5.211  15.212  0.6754  0.0182 -0.2827
 2343TIP3    H128520   3.096   5.240  15.195  0.3541  0.8113  2.3200
 2343TIP3    H228521   3.207   5.154  15.139 -1.7219  0.3116 -1.2935
 2344TIP3   OH228522   5.263   6.150   0.016  0.0630  0.0979  0.1908
 2344TIP3    H128523   5.252   6.171  -0.076 -0.4402 -1.2429 -0.0799
 2344TIP3    H228524   5.327   6.214   0.048  0.0580  0.7314 -1.0194
 2345TIP3   OH228525   3.114   2.735  13.498  0.5995  0.2902  0.1304
 2345TIP3    H128526   3.020   2.742  13.515  0.4738  0.3274 -0.5728
 2345TIP3    H228527   3.149   2.821  13.520  0.2026  0.8257 -1.2521
 2346TIP3   OH228528   1.183   0.212   3.227 -0.3035  0.4950 -0.2971
 2346TIP3    H128529   1.218   0.148   3.164  0.1518  1.1362 -0.7051
 2346TIP3    H228530   1.260   0.250   3.268 -0.5091  1.7401 -1.0262
 2347TIP3   OH228531   3.489   4.968  14.820 -0.3405 -0.2084  0.7139
 2347TIP3    H128532   3.458   4.914  14.748 -0.6120  1.1461 -0.2174
 2347TIP3    H228533   3.582   4.981  14.803 -0.3498 -0.0944  0.7483
 2348TIP3   OH228534   3.375   5.255   1.551 -0.5851  0.9074 -0.3925
 2348TIP3    H128535   3.284   5.262   1.524 -0.9051  1.0534  0.6798
 2348TIP3    H228536   3.396   5.162   1.543 -1.4080  0.5688  1.1083
 2349TIP3   OH228537   4.944   2.371   1.675  0.1838  0.2703 -0.4655
 2349TIP3    H128538   5.033   2.405   1.662 -0.0317  2.3534  2.6109
 2349TIP3    H228539   4.952   2.310   1.748 -0.7699 -0.3474 -0.8648
 2350TIP3   OH228540   3.025   1.863  11.372  0.5196  0.2730 -0.0088
 2350TIP3    H128541   2.988   1.816  11.447  0.3958  0.4285  0.0272
 2350TIP3    H228542   2.990   1.952  11.379  1.9969  0.8264  0.8265
 2351TIP3   OH228543   5.636   5.228  12.511  0.1404  0.3769 -0.1196
 2351TIP3    H128544   5.717   5.280  12.516 -0.0818  0.6392  1.3739
 2351TIP3    H228545   5.646   5.176  12.432  1.4609  0.9306 -0.3526
 2352TIP3   OH228546   2.500   1.677   1.195 -0.4441  0.0222 -0.0371
 2352TIP3    H128547   2.500   1.694   1.289 -0.9875  1.3446 -0.2427
 2352TIP3    H228548   2.414   1.708   1.165 -0.5989 -1.1229 -0.8598
 2353TIP3   OH228549   0.482   5.421  11.634  0.5069 -0.2522  0.5616
 2353TIP3    H128550   0.448   5.344  11.681 -0.8418  0.2431  0.4166
 2353TIP3    H228551   0.427   5.429  11.557  0.7019  0.8093  0.5167
 2354TIP3   OH228552   3.408   0.556  10.918  0.1352 -0.6181  0.0827
 2354TIP3    H128553   3.429   0.641  10.881 -2.1206 -0.6435 -1.4438
 2354TIP3    H228554   3.370   0.506  10.845  0.0170 -2.3987  1.2895
 2355TIP3   OH228555   6.374   3.342  15.421  0.4338 -0.1175 -0.2107
 2355TIP3    H128556   6.359   3.425  15.467 -1.2169  0.4450 -1.6456
 2355TIP3    H228557   6.467   3.343  15.400  0.8386  0.4559  1.4816
 2356TIP3   OH228558   0.699   4.684   1.021  0.3029  0.1583  0.2881
 2356TIP3    H128559   0.628   4.748   1.012  2.0756  2.0204 -1.5646
 2356TIP3    H228560   0.682   4.620   0.952 -0.1166  0.0254  0.5105
 2357TIP3   OH228561   4.720   6.523   0.380  0.0342  0.2790 -0.1703
 2357TIP3    H128562   4.708   6.527   0.285  0.4549 -0.8158 -0.2793
 2357TIP3    H228563   4.815   6.516   0.392  0.0599  1.3076  0.3843
 2358TIP3   OH228564   3.512   0.175   1.641  0.7850 -0.6205  0.0315
 2358TIP3    H128565   3.457   0.251   1.661 -0.5944 -1.5374 -0.1865
 2358TIP3    H228566   3.541   0.189   1.551  0.2419 -0.5424 -0.1287
 2359TIP3   OH228567   0.137   5.689  14.097  0.3504 -0.3560 -0.0052
 2359TIP3    H128568   0.148   5.666  14.005 -2.3063  0.0238 -0.4990
 2359TIP3    H228569   0.044   5.675  14.114  0.6736  0.0733  2.5092
 2360TIP3   OH228570   1.134   4.721  11.302  0.5120  0.0345  0.2705
 2360TIP3    H128571   1.112   4.682  11.218  1.6253  1.4951 -0.7555
 2360TIP3    H228572   1.210   4.672  11.333  0.7151  0.1402 -0.0625
 2361TIP3   OH228573   5.325   6.021  14.443 -0.2587 -0.3094 -0.0114
 2361TIP3    H128574   5.230   6.026  14.446 -0.2769 -0.1509 -0.7445
 2361TIP3    H228575   5.348   6.049  14.354  0.5952  1.6520  0.7706
 2362TIP3   OH228576   0.947   3.053   1.171  0.1589 -0.2093  0.5741
 2362TIP3    H128577   0.910   3.123   1.225 -0.6346  1.0529 -1.4780
 2362TIP3    H228578   1.025   3.092   1.131 -1.7641  0.6495 -2.7504
 2363TIP3   OH228579   3.265   0.808   2.123 -0.3628  0.0513 -0.1865
 2363TIP3    H128580   3.261   0.824   2.218 -0.8504 -0.9593 -0.0247
 2363TIP3    H228581   3.216   0.880   2.084  0.2709  0.7554  0.2908
 2364TIP3   OH228582   5.484   6.540   3.418 -0.1567  0.6734 -0.2875
 2364TIP3    H128583   5.536   6.589   3.482  1.9877  0.9813 -2.1270
 2364TIP3    H228584   5.533   6.458   3.406 -1.9568 -0.5667  0.3577
 2365TIP3   OH228585   3.710   4.908  13.884 -0.6247  0.0971 -0.0794
 2365TIP3    H128586   3.715   4.829  13.830  1.6211 -0.4351  0.7976
 2365TIP3    H228587   3.801   4.933  13.899 -1.2598  2.2275  0.6093
 2366TIP3   OH228588   5.627   3.196  15.154  0.2417  0.1179  0.4252
 2366TIP3    H128589   5.680   3.128  15.196  1.2626 -0.0246 -1.0184
 2366TIP3    H228590   5.691   3.255  15.114 -0.6179 -1.0435 -2.9414
 2367TIP3   OH228591   4.218   5.105  13.792 -0.0239 -0.0975  0.2473
 2367TIP3    H128592   4.239   5.114  13.699 -0.2762 -1.5863  0.0130
 2367TIP3    H228593   4.296   5.063  13.829 -1.0502 -2.2663  0.0861
 2368TIP3   OH228594   3.219   2.712   1.059 -0.6995  0.6641 -0.6467
 2368TIP3    H128595   3.141   2.691   1.008  0.1766  1.3638 -2.3805
 2368TIP3    H228596   3.288   2.657   1.022 -0.2850  0.2422  0.6881
 2369TIP3   OH228597   3.543   4.340  17.073  0.1294 -0.2303  0.0662
 2369TIP3    H128598   3.631   4.309  17.055 -0.8603 -2.9022 -0.6827
 2369TIP3    H228599   3.497   4.264  17.110 -2.3824  0.3960 -1.4585
 2370TIP3   OH228600   3.217   3.168   5.694 -0.0548  0.4338  0.4957
 2370TIP3    H128601   3.147   3.232   5.680  0.9421  1.4790  0.1590
 2370TIP3    H228602   3.230   3.167   5.789  0.1511  0.9969  0.4785
 2371TIP3   OH228603   3.077   3.391  11.521 -0.5080 -0.3170 -0.2191
 2371TIP3    H128604   3.007   3.440  11.478 -0.6714 -0.4067 -0.0543
 2371TIP3    H228605   3.157   3.440  11.500 -0.4693 -0.8012 -1.3277
 2372TIP3   OH228606   3.344   5.119   6.307  0.2909 -0.0430  0.0469
 2372TIP3    H128607   3.378   5.110   6.396  0.1114  1.6700  0.3248
 2372TIP3    H228608   3.411   5.171   6.262 -1.6892  3.1624  0.5224
 2373TIP3   OH228609   3.597   6.189  12.196 -0.1672 -0.5299 -0.7314
 2373TIP3    H128610   3.590   6.124  12.267 -0.9150  0.2968 -0.0103
 2373TIP3    H228611   3.532   6.255  12.219 -1.8286 -1.1502 -3.1936
 2374TIP3   OH228612   4.660   0.133   3.528 -0.2187 -0.1471  0.3763
 2374TIP3    H128613   4.694   0.207   3.477  0.2790  0.4460  1.5404
 2374TIP3    H228614   4.567   0.128   3.504 -0.1067  0.4367 -0.2062
 2375TIP3   OH228615   2.689   5.528  14.939  0.6726 -0.1560  0.7679
 2375TIP3    H128616   2.675   5.434  14.928  0.2305 -0.2430  2.0025
 2375TIP3    H228617   2.774   5.535  14.983  0.1452 -0.0406  1.7850
 2376TIP3   OH228618   5.737   0.497  13.402  0.0478 -0.1857 -0.5260
 2376TIP3    H128619   5.688   0.578  13.389  2.2430  1.3135  0.1351
 2376TIP3    H228620   5.738   0.484  13.497  2.1259  0.6569 -0.3792
 2377TIP3   OH228621   2.798   4.894  13.293  0.4221 -0.3551 -0.3925
 2377TIP3    H128622   2.803   4.803  13.264  1.7663 -0.6574  0.6936
 2377TIP3    H228623   2.789   4.945  13.213  1.1873 -1.3424 -1.1179
 2378TIP3   OH228624   2.885   4.995   3.869  0.0547 -0.0654  0.0719
 2378TIP3    H128625   2.812   5.056   3.866  0.9802  1.0788  0.2867
 2378TIP3    H228626   2.940   5.019   3.795  0.5535 -0.4811  0.3015
 2379TIP3   OH228627   1.874   3.479   2.778  0.4709 -0.1248 -0.2237
 2379TIP3    H128628   1.824   3.431   2.844  1.5020 -1.6389 -0.4783
 2379TIP3    H228629   1.870   3.570   2.806 -0.0115 -0.5957  1.3345
 2380TIP3   OH228630   1.274   2.377   3.451  0.4523 -0.1666  0.1562
 2380TIP3    H128631   1.228   2.294   3.435 -1.0415  0.2040  2.1972
 2380TIP3    H228632   1.259   2.428   3.371  0.9902 -1.6399 -0.9383
 2381TIP3   OH228633   3.525   4.491  16.241 -0.5122 -0.6760 -0.2363
 2381TIP3    H128634   3.598   4.484  16.180  0.1207  1.2457  0.2296
 2381TIP3    H228635   3.540   4.422  16.305  1.4070  0.2142  0.3377
 2382TIP3   OH228636   5.202   2.445   0.283 -0.3029  0.2385  0.2040
 2382TIP3    H128637   5.279   2.391   0.268 -0.1205  0.3450  0.7184
 2382TIP3    H228638   5.129   2.382   0.286 -0.0610 -0.0232  1.0502
 2383TIP3   OH228639   3.957   4.518   3.538 -0.9362 -0.2454  0.2578
 2383TIP3    H128640   3.899   4.589   3.511  0.3840  0.8013  0.0225
 2383TIP3    H228641   3.913   4.438   3.508 -2.4231  0.4652  0.4584
 2384TIP3   OH228642   6.634   2.539  13.416  0.7618  0.2061  0.2875
 2384TIP3    H128643   6.540   2.550  13.404  0.8342  1.0997  0.4674
 2384TIP3    H228644   6.672   2.554  13.330  0.7106 -0.5667  0.1272
 2385TIP3   OH228645   4.806   0.226  13.341  0.2481  0.4001 -0.1832
 2385TIP3    H128646   4.857   0.217  13.422 -0.8256 -0.2121  0.4409
 2385TIP3    H228647   4.827   0.146  13.292 -2.2004 -1.2837  1.3142
 2386TIP3   OH228648   5.983   5.856  11.558 -0.3817  0.0163  0.0368
 2386TIP3    H128649   5.972   5.836  11.651 -0.7417 -1.9807 -0.3837
 2386TIP3    H228650   5.960   5.774  11.513 -1.4194  1.2768 -1.8870
 2387TIP3   OH228651   0.091   5.048   3.002  0.4355  0.5760  0.0419
 2387TIP3    H128652   0.064   5.013   2.917 -0.0254 -0.0898  0.4459
 2387TIP3    H228653   0.138   5.129   2.982 -0.5741  0.9780 -0.7921
 2388TIP3   OH228654   6.748   4.734  12.225 -0.7218 -0.5918 -0.2212
 2388TIP3    H128655   6.752   4.695  12.137  0.2592  1.4458 -1.1307
 2388TIP3    H228656   6.792   4.818  12.216 -2.1362  0.4509  1.8284
 2389TIP3   OH228657   5.209   6.585   2.354 -0.4072  0.5074 -0.5941
 2389TIP3    H128658   5.281   6.579   2.291  0.7282  0.2338  0.6689
 2389TIP3    H228659   5.131   6.560   2.305  0.5869 -0.6511 -1.6464
 2390TIP3   OH228660   1.281   6.655   0.273 -0.3744  0.8162  0.0691
 2390TIP3    H128661   1.313   6.720   0.335  0.4853 -0.7952  1.4036
 2390TIP3    H228662   1.338   6.579   0.286  1.1153  0.9667 -4.0240
 2391TIP3   OH228663   3.464   1.445   5.404 -0.0990  0.3806 -0.2852
 2391TIP3    H128664   3.382   1.403   5.429 -0.1166  0.2563 -0.5498
 2391TIP3    H228665   3.494   1.488   5.484 -0.6337  0.7810 -0.2893
 2392TIP3   OH228666   4.255   1.388  12.462  0.5016 -0.0514 -0.2608
 2392TIP3    H128667   4.268   1.482  12.472  0.7233 -0.2414  1.5102
 2392TIP3    H228668   4.256   1.373  12.367  0.4995  1.7096 -0.5587
 2393TIP3   OH228669   3.614   1.653   0.774  0.4863 -0.5191  0.3473
 2393TIP3    H128670   3.700   1.692   0.788  0.0162  0.3909  0.7485
 2393TIP3    H228671   3.555   1.727   0.765 -0.5659 -1.0993  1.9781
 2394TIP3   OH228672   4.757   5.104  16.739  0.3031  0.0151  0.1479
 2394TIP3    H128673   4.748   5.103  16.644  1.6104 -1.9314 -0.0089
 2394TIP3    H228674   4.668   5.093  16.772 -0.7190  4.1554 -0.6644
 2395TIP3   OH228675   1.162   6.412  16.375 -0.1224  0.3796 -0.4167
 2395TIP3    H128676   1.221   6.473  16.329 -0.4003  1.6256  0.8074
 2395TIP3    H228677   1.080   6.460  16.384 -0.2353 -0.0145  0.8909
 2396TIP3   OH228678   4.622   0.069  16.365  0.6868 -0.5589  0.0652
 2396TIP3    H128679   4.712   0.098  16.351  0.5909  0.5783  1.5343
 2396TIP3    H228680   4.568   0.134  16.321  0.5495 -0.1015  0.8865
 2397TIP3   OH228681   4.755   0.928   4.259 -0.4163 -0.0486 -0.1301
 2397TIP3    H128682   4.836   0.933   4.311  0.3273 -3.1240 -0.7924
 2397TIP3    H228683   4.782   0.952   4.171 -0.8195  1.3567  0.1105
 2398TIP3   OH228684   3.588   2.491  12.387  0.2107  0.0930  0.3397
 2398TIP3    H128685   3.606   2.549  12.462 -0.5556  2.2155 -1.0216
 2398TIP3    H228686   3.494   2.500  12.371  0.3167 -0.5170 -0.7274
 2399TIP3   OH228687   0.944   0.435   5.471 -0.1222 -0.1442 -0.3854
 2399TIP3    H128688   0.967   0.491   5.546  1.1399 -2.1301  0.8061
 2399TIP3    H228689   1.028   0.413   5.430 -0.7497  0.3824 -2.0315
 2400TIP3   OH228690   3.457   6.685  11.320 -0.0307  0.5255  0.5724
 2400TIP3    H128691   3.504   6.646  11.394 -0.9526  0.3382  1.0642
 2400TIP3    H228692   3.371   6.644  11.321 -0.0860  0.5716 -0.5714
 2401TIP3   OH228693   0.331   6.635  12.132  0.2349  0.1673 -0.2199
 2401TIP3    H128694   0.271   6.572  12.173 -1.5916  2.2220  0.4770
 2401TIP3    H228695   0.418   6.600  12.151 -0.6080 -0.7764  2.5319
 2402TIP3   OH228696   1.536   1.540  13.943  0.4967 -0.3319  0.1768
 2402TIP3    H128697   1.538   1.578  13.855 -1.0109  1.1559  0.7199
 2402TIP3    H228698   1.557   1.448  13.930 -3.6795 -1.1684 -2.3654
 2403TIP3   OH228699   1.108   3.877   2.624  0.6075  0.2158  0.1423
 2403TIP3    H128700   1.027   3.928   2.620  0.4741  0.1129  1.2064
 2403TIP3    H228701   1.147   3.901   2.708  0.8194 -1.0065  0.4186
 2404TIP3   OH228702   4.840   1.166   0.312 -0.2578  0.2731  0.3312
 2404TIP3    H128703   4.897   1.230   0.354  1.6985 -0.3217 -1.2183
 2404TIP3    H228704   4.844   1.089   0.368 -1.1798  0.8914  1.2700
 2405TIP3   OH228705   3.484   5.446   4.998 -0.4385 -1.0138 -0.0806
 2405TIP3    H128706   3.575   5.429   5.025 -0.3109  0.0612  0.1839
 2405TIP3    H228707   3.482   5.538   4.975 -1.1620 -1.3199 -1.3559
 2406TIP3   OH228708   6.294   0.550  15.697 -0.2347  0.2547  0.1256
 2406TIP3    H128709   6.303   0.546  15.792 -0.0753  1.0842  0.1552
 2406TIP3    H228710   6.383   0.537  15.664 -0.2625  0.1469  0.0913
 2407TIP3   OH228711   5.113   3.260   4.271 -0.0853  0.1466  0.2638
 2407TIP3    H128712   5.122   3.196   4.200 -0.6962  2.6820 -2.2819
 2407TIP3    H228713   5.060   3.215   4.337  0.7682 -2.4386 -0.6822
 2408TIP3   OH228714   6.423   5.456  15.235 -0.0935  0.2338 -0.2973
 2408TIP3    H128715   6.486   5.389  15.261 -1.1395 -0.2628  1.1047
 2408TIP3    H228716   6.380   5.481  15.317 -0.6055  1.7096 -0.9888
 2409TIP3   OH228717   5.720   3.332  11.081  0.7011  0.4265 -0.2596
 2409TIP3    H128718   5.744   3.353  10.991  1.2543  0.9767  0.0141
 2409TIP3    H228719   5.789   3.371  11.135  2.1036 -2.5053  0.2616
 2410TIP3   OH228720   2.660   5.244  14.916  0.3314  0.2228  0.0048
 2410TIP3    H128721   2.749   5.212  14.905 -0.0407 -0.1699 -2.5528
 2410TIP3    H228722   2.610   5.169  14.947  1.0577  0.8000  2.8568
 2411TIP3   OH228723   0.280   6.689  13.761 -0.3400 -0.2017  0.0227
 2411TIP3    H128724   0.208   6.665  13.702  0.4093 -1.1680 -0.5129
 2411TIP3    H228725   0.295   6.782  13.744  0.1108 -0.5472 -1.5859
 2412TIP3   OH228726   5.798   5.246   1.560  0.5770  0.1555 -0.4209
 2412TIP3    H128727   5.781   5.287   1.644  0.1947  0.9785 -0.8941
 2412TIP3    H228728   5.798   5.152   1.579  0.1337  0.3188  0.4220
 2413TIP3   OH228729   0.581   6.015  11.369  0.1775 -0.0512 -0.6341
 2413TIP3    H128730   0.628   5.964  11.303  1.9559 -0.9900  1.2535
 2413TIP3    H228731   0.638   6.089  11.389  0.2774 -0.4659  0.7315
 2414TIP3   OH228732   1.945   1.868   4.803 -0.0270  0.3146  0.2217
 2414TIP3    H128733   2.031   1.834   4.778 -0.0902 -0.5989  1.2078
 2414TIP3    H228734   1.964   1.952   4.844  0.3437  0.3458 -0.0009
 2415TIP3   OH228735   4.477   0.471  13.244 -0.5198  0.7913 -0.3923
 2415TIP3    H128736   4.503   0.552  13.288  0.5482  0.0948  0.3110
 2415TIP3    H228737   4.480   0.404  13.312 -1.0639  0.0930 -1.0319
 2416TIP3   OH228738   2.071   2.123  16.939  0.2631  0.1584 -0.7055
 2416TIP3    H128739   2.009   2.111  16.868 -1.6182  1.4761  0.6238
 2416TIP3    H228740   2.022   2.099  17.018  0.9694  2.4386  0.5242
 2417TIP3   OH228741   1.051   0.366  13.594  0.1376 -0.3450  0.3628
 2417TIP3    H128742   1.068   0.459  13.607 -0.5918  0.1599 -1.8878
 2417TIP3    H228743   1.138   0.326  13.585  0.4227  0.3923 -0.2419
 2418TIP3   OH228744   1.271   2.350  12.364 -0.2275  0.1817  0.2501
 2418TIP3    H128745   1.221   2.274  12.394 -1.0941  0.5546 -0.2166
 2418TIP3    H228746   1.362   2.324  12.375 -0.3867 -2.1025 -2.6396
 2419TIP3   OH228747   5.473   2.727  12.398  0.1044  0.5008  0.1112
 2419TIP3    H128748   5.501   2.645  12.437  2.2894  0.4284 -1.4665
 2419TIP3    H228749   5.456   2.706  12.307 -0.9910  1.4796  0.0578
 2420TIP3   OH228750   4.372   5.282  14.034  0.2512 -0.4118  0.5552
 2420TIP3    H128751   4.345   5.289  13.943  1.6980 -1.7940 -0.0161
 2420TIP3    H228752   4.334   5.360  14.076  2.1627  2.0159 -1.8461
 2421TIP3   OH228753   1.938   1.758  13.325 -0.5037  0.5345 -0.5687
 2421TIP3    H128754   2.011   1.819  13.327 -0.2680  0.2309  1.3221
 2421TIP3    H228755   1.865   1.806  13.365 -0.0523 -0.6640  1.8670
 2422TIP3   OH228756   2.918   0.404  16.031 -0.9940  0.8371 -0.6152
 2422TIP3    H128757   2.934   0.367  16.118  1.4524 -0.9585 -1.6921
 2422TIP3    H228758   2.966   0.487  16.030  0.3501  0.0854 -0.7149
 2423TIP3   OH228759   3.101   3.528  13.887  0.5631 -0.5484  0.1358
 2423TIP3    H128760   3.035   3.461  13.902 -0.3054 -0.0436 -1.2876
 2423TIP3    H228761   3.163   3.517  13.960 -0.9466 -1.1871  1.3780
 2424TIP3   OH228762   3.698   1.949   5.270  0.2447  0.6691  0.0551
 2424TIP3    H128763   3.613   1.942   5.314  0.4707 -0.4136  0.3522
 2424TIP3    H228764   3.750   1.878   5.308 -0.1645 -1.6929 -3.3256
 2425TIP3   OH228765   3.844   4.121  13.129 -0.3071  0.0681  0.4508
 2425TIP3    H128766   3.887   4.127  13.044 -0.0810 -0.3325  0.5375
 2425TIP3    H228767   3.886   4.188  13.183 -1.8826  1.8119 -0.3642
 2426TIP3   OH228768   1.123   3.078   4.493  0.4670  0.0920 -0.1132
 2426TIP3    H128769   1.199   3.061   4.549 -0.4391 -1.3918  0.7376
 2426TIP3    H228770   1.110   2.995   4.446  0.0667  0.7097 -1.1219
 2427TIP3   OH228771   1.746   4.141   0.733 -0.0080 -0.0919  0.0406
 2427TIP3    H128772   1.735   4.112   0.642 -1.1813  0.9861 -0.1969
 2427TIP3    H228773   1.667   4.111   0.777  1.1182 -1.7118  1.0551
 2428TIP3   OH228774   5.956   2.084  10.852  0.1411 -0.5999 -0.1094
 2428TIP3    H128775   6.016   2.033  10.796  0.3269 -0.0433 -0.4203
 2428TIP3    H228776   5.955   2.171  10.813  1.7963  0.3621  1.8553
 2429TIP3   OH228777   4.629   5.617   5.457  0.0002  0.5842 -0.1923
 2429TIP3    H128778   4.555   5.674   5.482 -1.4152 -1.6286  0.9615
 2429TIP3    H228779   4.662   5.584   5.540  1.9234  1.0043 -0.7522
 2430TIP3   OH228780   4.499   2.580   0.818 -0.3534  0.2949 -0.8723
 2430TIP3    H128781   4.487   2.487   0.838 -0.0628  0.2105 -1.0822
 2430TIP3    H228782   4.547   2.581   0.735 -0.2082  0.6322 -0.7873
 2431TIP3   OH228783   3.223   0.206   5.667  0.1416 -0.8947  0.1607
 2431TIP3    H128784   3.144   0.241   5.708  0.3650  1.6765 -1.4290
 2431TIP3    H228785   3.230   0.253   5.584  2.3527 -2.3989 -0.5905
 2432TIP3   OH228786   4.134   2.309  11.378  0.2459  0.2620 -0.5235
 2432TIP3    H128787   4.158   2.326  11.287 -2.1173  0.1756 -1.2069
 2432TIP3    H228788   4.053   2.260  11.373 -0.7301  1.5241  1.6461
 2433TIP3   OH228789   3.996   2.072  13.120 -0.1353 -0.0966 -0.3748
 2433TIP3    H128790   4.024   2.002  13.060 -0.4520 -0.5635  0.0113
 2433TIP3    H228791   3.906   2.091  13.094 -0.2639 -0.2810 -0.0642
 2434TIP3   OH228792   6.814   3.010   3.152 -0.5138 -0.2251 -0.2265
 2434TIP3    H128793   6.833   3.001   3.059 -1.0074  1.0308 -0.4674
 2434TIP3    H228794   6.884   2.960   3.195  1.1000  1.0782 -1.2021
 2435TIP3   OH228795   1.801   1.683   4.163 -0.0672  0.8157 -0.8094
 2435TIP3    H128796   1.886   1.724   4.146  0.9170  0.3487  2.3254
 2435TIP3    H228797   1.822   1.605   4.214 -2.3480  0.1718 -0.7439
 2436TIP3   OH228798   2.526   0.236   4.115 -0.5396 -0.3639 -0.5531
 2436TIP3    H128799   2.433   0.257   4.104 -0.5500 -0.5416 -0.8413
 2436TIP3    H228800   2.532   0.194   4.201 -0.8276 -0.8965 -0.7878
 2437TIP3   OH228801   6.068   3.082   4.086 -0.4688  0.1405  0.0791
 2437TIP3    H128802   6.049   3.166   4.045 -0.6164  0.6721  1.1810
 2437TIP3    H228803   6.150   3.097   4.133  1.3295 -1.3150 -2.3655
 2438TIP3   OH228804   3.326   2.916   0.865  0.3489  0.4105 -0.5867
 2438TIP3    H128805   3.351   2.905   0.774  0.3914 -1.0234 -0.4155
 2438TIP3    H228806   3.388   2.863   0.914 -0.9543 -0.5215  0.0971
 2439TIP3   OH228807   6.676   2.864   5.306 -0.0589  0.7248  0.1684
 2439TIP3    H128808   6.764   2.900   5.319  0.0335  0.2369  0.9625
 2439TIP3    H228809   6.623   2.939   5.278  0.3975  1.2276  0.6262
 2440TIP3   OH228810   3.066   1.763  13.067 -0.3386  0.9331 -0.3860
 2440TIP3    H128811   3.027   1.717  13.141  3.2273  0.5577  1.5192
 2440TIP3    H228812   3.110   1.694  13.017 -0.0520  1.5584 -1.0057
 2441TIP3   OH228813   5.472   3.174   2.237 -0.0126  0.3344  0.1957
 2441TIP3    H128814   5.545   3.208   2.289 -1.0161  1.1029  1.1572
 2441TIP3    H228815   5.402   3.238   2.250 -0.7976 -0.2862 -0.8561
 2442TIP3   OH228816   3.819   2.215   4.098  0.3091  0.4519  0.2840
 2442TIP3    H128817   3.905   2.198   4.061 -0.0060 -0.8268  0.0858
 2442TIP3    H228818   3.796   2.134   4.144 -0.0822  1.3700  1.7421
 2443TIP3   OH228819   0.766   5.890   0.240 -0.8111  0.5725 -0.1018
 2443TIP3    H128820   0.838   5.878   0.179  0.9181  0.4185  1.8570
 2443TIP3    H228821   0.769   5.983   0.263  0.4514  0.0946  1.8804
 2444TIP3   OH228822   3.881   4.420   1.163  0.1589  0.2020 -0.2903
 2444TIP3    H128823   3.920   4.355   1.104 -0.8646  0.6124 -1.4568
 2444TIP3    H228824   3.845   4.369   1.235  1.9921 -0.2567  0.3479
 2445TIP3   OH228825   0.183   6.747   6.889  0.1411  0.1737 -0.4628
 2445TIP3    H128826   0.264   6.709   6.855  0.0818 -0.3630 -0.0175
 2445TIP3    H228827   0.207   6.837   6.913  0.7484 -0.1560  0.1959
 2446TIP3   OH228828   6.048   4.923   5.136  0.2949  0.0198 -0.0531
 2446TIP3    H128829   5.992   4.989   5.177 -0.8483 -0.3047 -1.0292
 2446TIP3    H228830   6.074   4.866   5.208 -0.8943  0.0029  0.3998
 2447TIP3   OH228831   6.532   0.119  10.985  0.3649 -0.1630  0.1439
 2447TIP3    H128832   6.589   0.120  11.062  0.6825 -2.4836  0.0183
 2447TIP3    H228833   6.565   0.190  10.930 -0.2163  1.9125  2.3205
 2448TIP3   OH228834   1.438   5.296   3.148 -0.3350 -0.5185 -0.0014
 2448TIP3    H128835   1.422   5.209   3.111  0.1062 -0.1363 -1.1181
 2448TIP3    H228836   1.388   5.356   3.093  0.1109  0.0342  0.1837
 2449TIP3   OH228837   6.414   1.145   6.119  0.4270 -0.4039  0.9445
 2449TIP3    H128838   6.429   1.119   6.028  1.8256 -1.3700  1.4221
 2449TIP3    H228839   6.319   1.138   6.130  0.1110  0.7279 -0.7118
 2450TIP3   OH228840   2.067   2.652   0.301 -0.3511  0.1995 -0.3087
 2450TIP3    H128841   2.156   2.676   0.328 -1.3994  0.5440  3.4266
 2450TIP3    H228842   2.047   2.711   0.229  2.5914 -0.3174 -1.7052
 2451TIP3   OH228843   5.994   4.846   6.584 -0.4385 -0.1036 -0.2066
 2451TIP3    H128844   5.900   4.828   6.582 -0.4186 -0.3886  0.7794
 2451TIP3    H228845   6.003   4.935   6.551 -1.2862  0.7616  1.7828
 2452TIP3   OH228846   3.563   4.752  15.803  0.5549  0.3403  0.0487
 2452TIP3    H128847   3.548   4.835  15.849 -0.4471  0.5447 -0.6111
 2452TIP3    H228848   3.557   4.685  15.872 -1.3807  0.5990  0.1843
 2453TIP3   OH228849   1.105   1.647   6.555  0.0600  0.4330 -0.2936
 2453TIP3    H128850   1.182   1.606   6.516  0.0181  0.7383 -0.7004
 2453TIP3    H228851   1.037   1.579   6.550  0.3206  0.1308  0.1528
 2454TIP3   OH228852   0.319   5.817   3.132  0.6052 -0.0004  0.4085
 2454TIP3    H128853   0.294   5.769   3.211  0.4661  1.1012  1.0576
 2454TIP3    H228854   0.407   5.783   3.111  0.5979 -0.3849  0.9629
 2455TIP3   OH228855   2.984   0.150  12.362  0.8450  0.0827 -0.7217
 2455TIP3    H128856   3.044   0.086  12.322  0.8428 -0.8573  0.7271
 2455TIP3    H228857   2.949   0.106  12.439 -0.9809  0.9828 -0.9789
 2456TIP3   OH228858   0.847   5.617  11.031  0.4035 -0.2318  0.2457
 2456TIP3    H128859   0.914   5.590  10.968  0.8557 -0.5115  0.8249
 2456TIP3    H228860   0.894   5.620  11.115 -0.2990 -0.3687  0.6524
 2457TIP3   OH228861   1.772   2.586   6.082  0.2876  0.1054  0.2214
 2457TIP3    H128862   1.789   2.662   6.027  2.2708  0.6172  1.4578
 2457TIP3    H228863   1.811   2.607   6.166 -2.1522 -0.8979  1.7320
 2458TIP3   OH228864   6.043   1.793  15.227 -0.1574 -0.2794  0.1684
 2458TIP3    H128865   6.051   1.725  15.293 -1.4962 -2.3557 -1.6556
 2458TIP3    H228866   6.133   1.818  15.207  0.2932 -0.1334  2.1657
 2459TIP3   OH228867   0.912   0.520   5.791  0.5441  0.2122 -1.1500
 2459TIP3    H128868   0.818   0.505   5.799  0.6337 -0.8852 -1.8986
 2459TIP3    H228869   0.920   0.607   5.751 -0.1466  0.2344 -1.2461
 2460TIP3   OH228870   4.160   5.165   4.003 -0.2553  0.2667  0.2371
 2460TIP3    H128871   4.168   5.176   3.908  0.2102 -0.3752  0.1940
 2460TIP3    H228872   4.076   5.121   4.015  0.0057 -0.2927  0.0618
 2461TIP3   OH228873   2.525   1.960  12.128  0.1194  0.3177  0.4217
 2461TIP3    H128874   2.514   2.054  12.115  2.1039  0.3755 -1.3494
 2461TIP3    H228875   2.456   1.936  12.190 -0.8471  2.8019  0.4124
 2462TIP3   OH228876   4.033   3.244   3.511  0.1608  0.3723  0.1874
 2462TIP3    H128877   4.100   3.308   3.487  0.1869  0.0960 -0.5143
 2462TIP3    H228878   4.083   3.164   3.530  0.1467  0.6136  1.2830
 2463TIP3   OH228879   4.576   4.534  14.690  0.0362 -0.0179 -0.1024
 2463TIP3    H128880   4.660   4.580  14.697  1.1659 -1.7168 -1.5682
 2463TIP3    H228881   4.595   4.445  14.720 -1.4236 -0.2687  0.1569
 2464TIP3   OH228882   2.432   0.549  11.903 -0.1853  0.3505  0.0932
 2464TIP3    H128883   2.399   0.557  11.814 -2.1188  1.0149  0.8185
 2464TIP3    H228884   2.490   0.624  11.914 -0.3419  0.5564 -0.4576
 2465TIP3   OH228885   6.481   0.648  16.519  0.4056 -0.2325  0.2991
 2465TIP3    H128886   6.477   0.581  16.586 -1.1580  0.2925  0.7862
 2465TIP3    H228887   6.527   0.607  16.445  1.1441 -1.1779  1.2653
 2466TIP3   OH228888   5.783   0.364   6.458  0.1376  0.1613  0.1368
 2466TIP3    H128889   5.830   0.428   6.404  0.2522 -0.5235 -0.5868
 2466TIP3    H228890   5.832   0.283   6.447  0.7671  0.2264  2.1050
 2467TIP3   OH228891   6.596   6.013  10.571 -0.3661  0.2564 -0.3357
 2467TIP3    H128892   6.685   6.046  10.581 -0.4675  0.5250 -0.2958
 2467TIP3    H228893   6.542   6.074  10.621 -0.5144 -0.1951  0.0675
 2468TIP3   OH228894   1.277   3.664   1.633  0.0698  0.1267  0.2235
 2468TIP3    H128895   1.220   3.635   1.561  0.8474  1.4644 -0.9903
 2468TIP3    H228896   1.221   3.723   1.685 -0.0750  0.3172 -0.1448
 2469TIP3   OH228897   2.825   4.345   5.009  0.1451  0.5017  0.3467
 2469TIP3    H128898   2.844   4.357   5.103  0.2313  0.6002  0.3176
 2469TIP3    H228899   2.887   4.404   4.965  1.5514 -1.0495  0.1350
 2470TIP3   OH228900   4.121   6.499  14.945  0.0007  0.2266  0.5200
 2470TIP3    H128901   4.104   6.496  14.851 -1.3517  1.2251  0.7148
 2470TIP3    H228902   4.076   6.577  14.975  0.3387 -0.1351  2.0260
 2471TIP3   OH228903   2.548   0.966   2.554  0.0497 -0.0517 -0.1910
 2471TIP3    H128904   2.570   1.000   2.467  1.2881  3.0143  1.1716
 2471TIP3    H228905   2.597   0.885   2.562  1.0224  0.3328 -1.8356
 2472TIP3   OH228906   3.921   1.219  16.400  0.2029 -0.2223 -0.0207
 2472TIP3    H128907   4.006   1.252  16.428 -0.1500  0.3353  0.4343
 2472TIP3    H228908   3.936   1.128  16.377  0.7848 -0.3097  0.6878
 2473TIP3   OH228909   4.285   3.433  16.856  0.7463 -0.3023 -0.4238
 2473TIP3    H128910   4.192   3.438  16.882  1.0102 -1.4838  0.8925
 2473TIP3    H228911   4.311   3.524  16.845 -1.0268  0.0409 -2.7039
 2474TIP3   OH228912   0.581   0.215  14.902 -0.3651  0.1537 -0.3459
 2474TIP3    H128913   0.592   0.297  14.950  2.7429  0.7903 -1.8674
 2474TIP3    H228914   0.583   0.147  14.969 -0.2707  1.2002  0.7321
 2475TIP3   OH228915   3.873   1.673   0.546 -0.4004 -0.1922  0.3617
 2475TIP3    H128916   3.878   1.755   0.594 -0.0939 -0.4249  0.7373
 2475TIP3    H228917   3.841   1.697   0.459  0.3083  0.4044  0.2592
 2476TIP3   OH228918   3.545   4.013  13.925 -0.2683 -0.2033 -0.1565
 2476TIP3    H128919   3.568   4.105  13.930  1.2423 -0.5938  0.4946
 2476TIP3    H228920   3.507   3.993  14.011 -1.7335  0.0746 -0.7093
 2477TIP3   OH228921   1.617   1.940  11.573 -0.3858 -0.8600 -0.2342
 2477TIP3    H128922   1.705   1.921  11.605  0.6551  1.1247 -1.7627
 2477TIP3    H228923   1.573   1.980  11.648  1.1497  1.2435 -0.3685
 2478TIP3   OH228924   0.607   1.865  14.469 -0.0641 -0.0620 -0.2209
 2478TIP3    H128925   0.683   1.809  14.450  0.9901  1.4476 -0.6457
 2478TIP3    H228926   0.546   1.847  14.398  0.0341 -1.0175 -0.0867
 2479TIP3   OH228927   5.774   0.784  17.050 -0.2693 -0.3073 -0.2156
 2479TIP3    H128928   5.747   0.749  17.135 -2.1774  0.2401 -0.5371
 2479TIP3    H228929   5.693   0.816  17.011  0.9138  1.6444 -1.2399
 2480TIP3   OH228930   2.558   3.976  12.625 -0.1287 -0.5622  0.1026
 2480TIP3    H128931   2.484   3.916  12.632 -0.9695  0.4200 -0.1383
 2480TIP3    H228932   2.616   3.935  12.560 -2.0388  0.1864 -2.2328
 2481TIP3   OH228933   5.710   1.148   1.623 -0.3417  0.2824 -0.3905
 2481TIP3    H128934   5.618   1.120   1.620  0.1213 -1.3814  0.2293
 2481TIP3    H228935   5.753   1.096   1.555  1.3648 -3.9557  3.4739
 2482TIP3   OH228936   6.779   0.517  10.598  0.1027  0.2335 -0.0498
 2482TIP3    H128937   6.691   0.481  10.612 -0.2207  0.9929 -0.1256
 2482TIP3    H228938   6.765   0.606  10.566  0.8978  0.1035 -0.8064
 2483TIP3   OH228939   0.569   0.269  16.805 -0.1969 -0.5658  0.4040
 2483TIP3    H128940   0.656   0.294  16.774 -0.4525 -0.6944 -0.4560
 2483TIP3    H228941   0.523   0.240  16.726 -2.3129  3.0836  0.1026
 2484TIP3   OH228942   6.026   2.097  11.549 -0.0301  0.2756 -0.3235
 2484TIP3    H128943   5.955   2.041  11.518 -0.5772  0.5917  0.3302
 2484TIP3    H228944   6.033   2.077  11.642  1.4423 -0.5067 -0.5750
 2485TIP3   OH228945   5.915   2.295  13.394  0.0592  0.0429 -0.1414
 2485TIP3    H128946   5.961   2.255  13.320 -1.1027  1.3961 -1.6912
 2485TIP3    H228947   5.971   2.368  13.421  0.8406 -0.8966  0.8420
 2486TIP3   OH228948   0.936   0.126  15.959  0.3396  0.0765  0.3790
 2486TIP3    H128949   0.930   0.179  15.880  0.0124 -2.3498 -1.3441
 2486TIP3    H228950   0.876   0.167  16.021 -2.1731  0.0619 -1.8953
 2487TIP3   OH228951   0.750   1.713  12.656  0.3093 -0.5601 -0.0228
 2487TIP3    H128952   0.687   1.693  12.588  1.0107 -0.6163 -0.6731
 2487TIP3    H228953   0.726   1.800  12.688 -1.6867 -1.6163  1.5855
 2488TIP3   OH228954   5.658   5.464   3.735  0.0654  0.0017 -0.3207
 2488TIP3    H128955   5.567   5.486   3.715 -0.7039 -3.0975 -0.6901
 2488TIP3    H228956   5.663   5.466   3.830  0.1112  1.7207 -0.3174
 2489TIP3   OH228957   6.089   1.749   1.002 -0.1674 -0.3925  0.6152
 2489TIP3    H128958   6.005   1.727   1.041 -0.6483 -0.6924 -0.5606
 2489TIP3    H228959   6.116   1.669   0.957  0.1276  0.0888 -0.0852
 2490TIP3   OH228960   1.866   6.290   1.111 -0.1148 -0.0867 -0.1235
 2490TIP3    H128961   1.887   6.315   1.021 -0.1711 -2.8020 -0.9837
 2490TIP3    H228962   1.827   6.203   1.103 -0.4416 -0.2556  2.5132
 2491TIP3   OH228963   4.469   1.411   3.465  0.4721  0.4923 -0.3053
 2491TIP3    H128964   4.463   1.317   3.482  0.3210  0.5802  0.1313
 2491TIP3    H228965   4.559   1.434   3.490  0.9392  0.2267 -1.6349
 2492TIP3   OH228966   5.415   5.464  15.624 -0.1247  0.1069  0.3635
 2492TIP3    H128967   5.371   5.387  15.587  0.4709 -0.4426  0.7856
 2492TIP3    H228968   5.508   5.446  15.612  0.0643  0.1195  1.7275
 2493TIP3   OH228969   1.486   0.239  15.448  0.2015  0.0396  0.1826
 2493TIP3    H128970   1.506   0.160  15.498  0.1035 -1.0873 -1.4498
 2493TIP3    H228971   1.565   0.292  15.454  0.5284 -0.5010  0.7617
 2494TIP3   OH228972   3.819   0.293  11.907  0.3108  0.1627  0.6135
 2494TIP3    H128973   3.911   0.299  11.933  1.5306 -0.6676 -2.9920
 2494TIP3    H228974   3.805   0.370  11.852 -0.6946 -0.5751 -0.1924
 2495TIP3   OH228975   2.301   2.338  13.937  0.2200  0.3347  0.6993
 2495TIP3    H128976   2.211   2.368  13.923  0.4554  0.4521 -0.6474
 2495TIP3    H228977   2.295   2.277  14.011 -1.3235 -1.2678 -0.6701
 2496TIP3   OH228978   5.103   3.025  15.648  0.4687  0.6183  0.1011
 2496TIP3    H128979   5.179   3.038  15.705 -0.7914  1.6628  1.6433
 2496TIP3    H228980   5.071   2.938  15.669  0.9637  0.3474 -0.2409
 2497TIP3   OH228981   1.337   0.866   4.033  0.1772 -0.4449  0.0947
 2497TIP3    H128982   1.312   0.952   4.001 -0.2444 -0.4360  0.4480
 2497TIP3    H228983   1.431   0.861   4.015 -0.0768 -0.5489 -1.3963
 2498TIP3   OH228984   6.365   5.000   5.902 -0.2831  0.2384  0.6796
 2498TIP3    H128985   6.280   4.958   5.899 -0.5118  0.7679 -1.1313
 2498TIP3    H228986   6.365   5.061   5.829  1.9903 -0.4157  0.0457
 2499TIP3   OH228987   3.003   2.636  11.266  0.1302 -0.5735 -0.4822
 2499TIP3    H128988   2.940   2.574  11.302 -0.4053 -0.0518 -0.4954
 2499TIP3    H228989   3.059   2.660  11.340 -0.3923 -0.1983 -0.1995
 2500TIP3   OH228990   1.806   5.104  16.690  0.3147  0.1801  1.2053
 2500TIP3    H128991   1.803   5.009  16.686 -1.7706  0.2385 -0.2834
 2500TIP3    H228992   1.724   5.133  16.649  2.6538  2.6977 -2.3286
 2501TIP3   OH228993   2.660   4.379   0.424 -0.3264  0.3879  0.1620
 2501TIP3    H128994   2.666   4.290   0.389  2.3481  0.7081 -0.4203
 2501TIP3    H228995   2.750   4.400   0.450 -0.7458  3.1987 -0.4160
 2502TIP3   OH228996   1.246   3.394   4.639  0.0760  0.4678 -0.1978
 2502TIP3    H128997   1.339   3.371   4.632 -0.0223  0.4213 -1.4161
 2502TIP3    H228998   1.239   3.479   4.596 -0.5926  0.0951 -0.8307
 2503TIP3   OH228999   5.620   6.117  11.388 -0.1221 -0.1310  0.8354
 2503TIP3    H129000   5.539   6.167  11.379  0.0567  0.0800  0.4007
 2503TIP3    H229001   5.617   6.083  11.478 -2.0092 -2.4169  0.0013
 2504TIP3   OH229002   3.243   4.855   3.368  0.0302  0.3502 -0.5420
 2504TIP3    H129003   3.165   4.889   3.323 -0.3423 -0.8883 -0.8957
 2504TIP3    H229004   3.211   4.830   3.455 -0.0419 -0.3724 -0.7655
 2505TIP3   OH229005   4.748   1.437  13.014 -0.5589 -0.5637 -0.0708
 2505TIP3    H129006   4.686   1.495  12.970 -1.8557 -2.2647 -0.5984
 2505TIP3    H229007   4.797   1.397  12.942 -1.7817 -2.3692  0.0559
 2506TIP3   OH229008   0.337   0.457  16.508 -0.7671  0.1569  0.6821
 2506TIP3    H129009   0.396   0.483  16.437  0.3934 -1.0927  1.1503
 2506TIP3    H229010   0.358   0.516  16.580  0.4158 -0.7150  1.0708
 2507TIP3   OH229011   3.327   3.730   2.374  0.0123 -0.0613  0.2537
 2507TIP3    H129012   3.286   3.809   2.340 -1.3606 -0.6278  0.5558
 2507TIP3    H229013   3.356   3.683   2.296  2.4306  1.5085  0.1011
 2508TIP3   OH229014   5.920   1.200  13.033  0.2957 -0.1483  0.3169
 2508TIP3    H129015   6.011   1.225  13.048 -0.0118  1.0734  0.2312
 2508TIP3    H229016   5.889   1.260  12.965 -0.2764 -1.2537 -0.4392
 2509TIP3   OH229017   3.404   1.303   1.148 -0.2433 -0.2584 -0.0652
 2509TIP3    H129018   3.420   1.353   1.068  2.0101 -1.1630 -0.2575
 2509TIP3    H229019   3.464   1.229   1.142  0.4676 -0.0147  2.7825
 2510TIP3   OH229020   3.680   6.551   5.953  0.4906  0.0308 -0.3582
 2510TIP3    H129021   3.659   6.483   6.017 -1.2961 -0.1368 -1.0808
 2510TIP3    H229022   3.643   6.631   5.990  2.3310  0.6128  0.3484
 2511TIP3   OH229023   4.558   5.841   4.103  0.1142  0.0008  0.4626
 2511TIP3    H129024   4.574   5.747   4.107  2.1677  0.3455  2.9177
 2511TIP3    H229025   4.643   5.879   4.080 -0.0307  1.3471  1.9644
 2512TIP3   OH229026   3.110   3.492  15.438  0.2865 -0.8482  0.1898
 2512TIP3    H129027   3.169   3.521  15.367  0.6566 -0.7776  0.5232
 2512TIP3    H229028   3.053   3.427  15.396 -0.4312  0.2177 -0.5204
 2513TIP3   OH229029   0.316   6.803   1.280 -0.0954 -0.3691 -0.1253
 2513TIP3    H129030   0.408   6.830   1.277 -0.2725  0.1711 -1.5073
 2513TIP3    H229031   0.320   6.708   1.290  0.6536 -0.4432 -0.9389
 2514TIP3   OH229032   3.216   0.304  12.628  0.3364 -0.0524  0.0706
 2514TIP3    H129033   3.197   0.213  12.651  0.6034  0.4399  2.4818
 2514TIP3    H229034   3.134   0.338  12.592  0.0708 -1.0684 -0.3192
 2515TIP3   OH229035   5.526   5.942  14.210 -0.1109  0.4464  0.0680
 2515TIP3    H129036   5.589   5.946  14.139 -1.2479  0.5749 -0.9603
 2515TIP3    H229037   5.477   6.024  14.204 -2.0521 -0.7078 -0.7625
 2516TIP3   OH229038   3.424   2.559  11.487  0.3008  0.2776 -0.5933
 2516TIP3    H129039   3.443   2.652  11.496  1.0726  0.1487 -0.8667
 2516TIP3    H229040   3.483   2.516  11.549  1.2886 -0.1617 -1.8133
 2517TIP3   OH229041   3.122   1.520   0.394  0.2595 -0.2517 -0.0303
 2517TIP3    H129042   3.189   1.565   0.445  0.3081 -0.1065 -0.2197
 2517TIP3    H229043   3.105   1.578   0.320 -0.2794 -0.1551  0.1613
 2518TIP3   OH229044   4.167   6.710   5.768  0.0531 -0.6000  0.1192
 2518TIP3    H129045   4.108   6.689   5.696  0.8992 -0.8717 -0.5167
 2518TIP3    H229046   4.207   6.793   5.743  0.1253 -0.5399  0.4244
 2519TIP3   OH229047   2.881   5.351   5.390  0.3881  0.6023 -0.2978
 2519TIP3    H129048   2.817   5.294   5.433  2.3205 -1.4043  0.0781
 2519TIP3    H229049   2.903   5.416   5.457 -1.1548  1.3195 -0.4259
 2520TIP3   OH229050   6.323   6.565   3.824  0.0790 -0.1962 -0.1025
 2520TIP3    H129051   6.257   6.578   3.756 -2.4199 -1.0553  2.0052
 2520TIP3    H229052   6.326   6.648   3.871 -0.4557 -0.5154  0.5287
 2521TIP3   OH229053   2.417   6.477   3.646 -0.1490  0.1579  0.4304
 2521TIP3    H129054   2.389   6.513   3.562  0.5971 -0.7078 -0.2072
 2521TIP3    H229055   2.336   6.446   3.687 -0.7001  1.7347  0.6296
 2522TIP3   OH229056   3.689   1.771  11.405  0.4322  0.6269  0.1976
 2522TIP3    H129057   3.766   1.822  11.378 -0.1745  1.4517 -0.0095
 2522TIP3    H229058   3.621   1.794  11.342 -0.8761  2.2157  2.0745
 2523TIP3   OH229059   4.377   6.071   3.339 -0.4590 -0.4381 -0.3157
 2523TIP3    H129060   4.372   6.003   3.406 -1.3833  3.1358  3.7274
 2523TIP3    H229061   4.288   6.105   3.332 -0.2180 -0.1527 -2.8999
 2524TIP3   OH229062   3.233   0.318   4.510  0.5921 -0.3580  0.5713
 2524TIP3    H129063   3.299   0.375   4.472  0.8468 -0.9769  0.0611
 2524TIP3    H229064   3.204   0.263   4.436  0.2548 -0.7899  1.0189
 2525TIP3   OH229065   1.682   2.407  16.599  0.4828  0.1905 -0.1328
 2525TIP3    H129066   1.659   2.447  16.682 -0.6071  1.4648 -0.9985
 2525TIP3    H229067   1.770   2.439  16.580  0.4049  0.5723  0.1426
 2526TIP3   OH229068   3.071   0.763  16.595 -0.0872  0.4475 -0.5231
 2526TIP3    H129069   2.999   0.825  16.594 -0.9299 -0.4898 -0.2399
 2526TIP3    H229070   3.029   0.678  16.610  1.0129 -0.2030 -0.9824
 2527TIP3   OH229071   5.771   2.654  12.037 -0.2992  0.0734 -0.1722
 2527TIP3    H129072   5.821   2.585  11.994 -0.0877  0.4631 -0.5741
 2527TIP3    H229073   5.701   2.609  12.083  0.5163 -0.5022  0.5460
 2528TIP3   OH229074   4.978   4.602   4.978 -0.1377 -0.6576 -0.1361
 2528TIP3    H129075   4.895   4.610   5.025  0.2169 -0.2527  0.4344
 2528TIP3    H229076   4.983   4.680   4.924  0.3040 -0.2017  0.5453
 2529TIP3   OH229077   6.092   5.224  16.117  0.2310 -0.1026 -0.1153
 2529TIP3    H129078   6.062   5.211  16.026 -0.7687  0.4849  0.1112
 2529TIP3    H229079   6.034   5.168  16.169 -0.0864  0.5771  0.2764
 2530TIP3   OH229080   1.794   5.974   6.408 -0.1677 -0.0236 -0.4792
 2530TIP3    H129081   1.817   5.894   6.456  0.5394  0.6096  0.2669
 2530TIP3    H229082   1.704   5.960   6.379  0.9530 -2.4820 -3.2575
 2531TIP3   OH229083   4.373   5.559   3.352 -0.3839 -0.1119  0.1595
 2531TIP3    H129084   4.310   5.512   3.298  1.7662 -2.6692 -0.3422
 2531TIP3    H229085   4.400   5.633   3.298 -2.0630  0.3860 -0.0587
 2532TIP3   OH229086   4.216   2.185   4.043  0.3560 -0.2820 -0.1684
 2532TIP3    H129087   4.295   2.140   4.012  0.2845 -0.3971 -0.1824
 2532TIP3    H229088   4.145   2.150   3.990  0.0366 -1.3977  0.9268
 2533TIP3   OH229089   6.183   4.449   0.735 -0.8305 -0.0882 -0.0098
 2533TIP3    H129090   6.206   4.376   0.792 -0.1561  0.9887  1.1527
 2533TIP3    H229091   6.153   4.518   0.795 -1.7244  0.4947 -1.0961
 2534TIP3   OH229092   6.670   1.593  12.016 -0.0908  0.0223  0.1927
 2534TIP3    H129093   6.576   1.599  12.032 -0.2125  1.7264 -0.9216
 2534TIP3    H229094   6.709   1.583  12.103 -1.1654  1.7407  0.9234
 2535TIP3   OH229095   5.086   1.759   6.132 -0.0944 -0.4809  0.0205
 2535TIP3    H129096   5.111   1.711   6.053  1.1960  0.8802 -0.4397
 2535TIP3    H229097   5.125   1.708   6.203 -1.6620 -1.9724 -0.1275
 2536TIP3   OH229098   2.930   6.061   4.344  0.4282  0.7882 -0.1221
 2536TIP3    H129099   2.884   6.097   4.269 -1.5769  1.7558  1.4529
 2536TIP3    H229100   2.869   5.997   4.381  0.8885  1.1290  1.2894
 2537TIP3   OH229101   0.074   6.530   4.854  0.0502  0.8664 -0.2973
 2537TIP3    H129102   0.088   6.437   4.870  0.6386  1.0196  0.1145
 2537TIP3    H229103   0.069   6.538   4.759  0.8058  0.5177 -0.3714
 2538TIP3   OH229104   5.547   4.894  13.197 -0.2517  0.1318  0.2818
 2538TIP3    H129105   5.516   4.882  13.287  0.6439  1.3079  0.7632
 2538TIP3    H229106   5.468   4.915  13.147 -0.6935 -0.1323  0.8533
 2539TIP3   OH229107   0.106   2.923   5.382  0.2322  0.3686 -0.1391
 2539TIP3    H129108   0.123   2.879   5.465  0.6574  0.6662 -0.0676
 2539TIP3    H229109   0.156   3.004   5.387 -0.8050  1.0365 -0.1240
 2540TIP3   OH229110   5.909   3.596   1.386 -0.1014 -0.0912 -0.1884
 2540TIP3    H129111   5.921   3.548   1.303 -2.5357  3.4293 -2.8969
 2540TIP3    H229112   5.984   3.655   1.389 -1.1094  1.2967 -1.1625
 2541TIP3   OH229113   6.050   5.348   3.503 -0.3378 -0.1302  0.4793
 2541TIP3    H129114   6.079   5.294   3.430 -0.1988 -0.0877  0.5033
 2541TIP3    H229115   6.067   5.295   3.581  0.2531  0.1408  0.5405
 2542TIP3   OH229116   4.946   5.514  11.788 -0.3498 -0.6733  0.5805
 2542TIP3    H129117   4.896   5.486  11.865  0.6540  2.0316  2.3754
 2542TIP3    H229118   5.031   5.540  11.823  0.3740  0.0371 -1.5518
 2543TIP3   OH229119   5.171   3.638   2.968 -0.9737 -0.1449  0.5233
 2543TIP3    H129120   5.195   3.658   2.878  0.9054 -2.7598  0.3444
 2543TIP3    H229121   5.249   3.658   3.019 -1.4831 -0.2092  1.3547
 2544TIP3   OH229122   5.300   5.057  15.325 -0.0377  0.1922  0.2571
 2544TIP3    H129123   5.322   5.144  15.291 -1.5554  0.7623  0.6731
 2544TIP3    H229124   5.295   5.002  15.248 -0.3001  0.7580 -0.1372
 2545TIP3   OH229125   3.350   1.635  15.849 -0.3993  0.0273 -0.2796
 2545TIP3    H129126   3.330   1.713  15.798  1.3555 -0.0567 -1.1521
 2545TIP3    H229127   3.293   1.642  15.926 -0.4672  2.0393 -0.4519
 2546TIP3   OH229128   3.967   4.640  12.056  0.0831 -0.1283 -0.0138
 2546TIP3    H129129   3.919   4.558  12.062 -1.0181  0.5466  0.8667
 2546TIP3    H229130   4.000   4.642  11.967 -0.9646 -0.9388 -0.4451
 2547TIP3   OH229131   4.124   4.547   5.440  0.4813 -0.2938 -0.0775
 2547TIP3    H129132   4.045   4.594   5.466 -1.2487 -1.4433 -2.8438
 2547TIP3    H229133   4.194   4.611   5.450 -0.5549  0.5616  3.1293
 2548TIP3   OH229134   4.369   3.829  14.899  0.5952 -0.1494 -0.0693
 2548TIP3    H129135   4.349   3.737  14.916  0.3624 -0.3906 -1.4964
 2548TIP3    H229136   4.377   3.869  14.986  2.2280 -1.8292  0.6336
 2549TIP3   OH229137   4.791   0.600   1.705 -0.4184 -0.2643  0.0758
 2549TIP3    H129138   4.828   0.634   1.786 -0.5904  0.3372 -0.0925
 2549TIP3    H229139   4.697   0.591   1.723 -0.3580 -0.7602  0.1543
 2550TIP3   OH229140   5.445   6.722   5.595 -0.5139  0.1975  0.0380
 2550TIP3    H129141   5.395   6.748   5.673 -1.3693 -0.5873 -0.2365
 2550TIP3    H229142   5.510   6.660   5.628 -0.9152 -0.1822  0.1169
 2551TIP3   OH229143   1.913   1.841  10.998  0.0006  0.5345  0.2894
 2551TIP3    H129144   1.894   1.898  10.924 -0.5239  0.0868  0.0801
 2551TIP3    H229145   1.838   1.852  11.057 -0.2198 -0.1205  0.1369
 2552TIP3   OH229146   3.790   2.516   2.124 -0.0454 -0.5439  0.1528
 2552TIP3    H129147   3.834   2.586   2.173 -1.1828  0.1951  0.1514
 2552TIP3    H229148   3.801   2.541   2.032 -0.9134 -0.0613  0.1697
 2553TIP3   OH229149   0.035   2.320  12.565 -0.4600 -0.0906 -0.9865
 2553TIP3    H129150   0.124   2.287  12.554 -1.0336 -2.3725  0.3883
 2553TIP3    H229151   0.034   2.357  12.653 -1.5962 -3.1917  0.4645
 2554TIP3   OH229152   2.166   4.134   5.279  0.0848  0.1957  0.2036
 2554TIP3    H129153   2.164   4.103   5.188 -0.3675  1.6945 -0.3243
 2554TIP3    H229154   2.190   4.057   5.330 -2.7221 -1.5040 -0.8341
 2555TIP3   OH229155   3.359   2.165   2.816  0.0190  0.0658 -0.1542
 2555TIP3    H129156   3.295   2.235   2.828  0.4283  0.6266 -1.1102
 2555TIP3    H229157   3.433   2.208   2.773 -0.9600 -1.5132 -3.8572
 2556TIP3   OH229158   5.203   0.386  12.006 -0.4958  0.4374 -0.0240
 2556TIP3    H129159   5.209   0.422  11.918 -2.0053  1.5104  0.2823
 2556TIP3    H229160   5.252   0.448  12.061 -1.1361  0.8000  0.1524
 2557TIP3   OH229161   1.108   6.630  13.444  0.0635  0.1032  0.6248
 2557TIP3    H129162   1.088   6.608  13.353  0.9475 -2.1403  0.9218
 2557TIP3    H229163   1.052   6.706  13.462 -1.1024 -0.1833 -1.3756
 2558TIP3   OH229164   6.326   2.767   3.506 -0.0448  0.1766 -0.1663
 2558TIP3    H129165   6.242   2.756   3.461  0.1048 -1.2608 -0.1361
 2558TIP3    H229166   6.381   2.812   3.442  0.6643 -3.1812 -2.1696
 2559TIP3   OH229167   3.912   5.535   6.807  0.5381  0.4675 -0.3366
 2559TIP3    H129168   3.841   5.592   6.778  0.3383  0.3278 -0.1218
 2559TIP3    H229169   3.990   5.591   6.806  0.6987  0.2549 -1.9458
 2560TIP3   OH229170   4.645   3.180  14.421  0.1240 -0.7350  0.2841
 2560TIP3    H129171   4.594   3.139  14.491  1.8939  0.4010  2.3906
 2560TIP3    H229172   4.677   3.262  14.460  2.1521 -0.6180 -1.4574
 2561TIP3   OH229173   4.205   0.685  11.089  1.0346 -0.3626 -0.2850
 2561TIP3    H129174   4.288   0.668  11.044  1.8646  0.2513  0.9616
 2561TIP3    H229175   4.228   0.744  11.161 -0.2537 -1.2453  0.9110
 2562TIP3   OH229176   4.685   3.490  14.239  0.6962  0.1358  0.0285
 2562TIP3    H129177   4.660   3.572  14.281 -0.4696 -0.4698  0.5595
 2562TIP3    H229178   4.602   3.445  14.222  1.2603 -0.5298 -1.1037
 2563TIP3   OH229179   2.938   6.232  16.950 -0.3679  0.2125  0.0968
 2563TIP3    H129180   2.849   6.209  16.975 -0.2902  0.7378  0.9107
 2563TIP3    H229181   2.985   6.149  16.947 -0.3541  0.1070  1.9156
 2564TIP3   OH229182   3.395   6.002   5.145 -0.1424 -0.3820  0.5579
 2564TIP3    H129183   3.461   6.071   5.157  0.1760 -0.1635 -1.8734
 2564TIP3    H229184   3.312   6.049   5.145  0.0335 -0.0460 -0.5257
 2565TIP3   OH229185   5.297   0.504   4.165  0.0185  0.0870 -0.1767
 2565TIP3    H129186   5.281   0.419   4.206 -1.9530  1.2995  1.7756
 2565TIP3    H229187   5.272   0.492   4.073 -0.0513 -1.4520  0.0192
 2566TIP3   OH229188   0.673   6.343  12.843  0.9236 -0.2915 -0.0745
 2566TIP3    H129189   0.674   6.424  12.893 -0.5364 -0.2805 -0.0374
 2566TIP3    H229190   0.764   6.332  12.814  1.3165  0.8897  0.6398
 2567TIP3   OH229191   5.416   1.095   5.770 -0.0109 -0.3217 -0.6517
 2567TIP3    H129192   5.348   1.037   5.734  0.7734 -0.8603 -1.3062
 2567TIP3    H229193   5.458   1.042   5.838 -1.2191  0.5488  0.8382
 2568TIP3   OH229194   6.156   5.229  13.497 -0.1585 -0.1407 -0.1145
 2568TIP3    H129195   6.119   5.173  13.428 -1.5315  1.0268 -0.3857
 2568TIP3    H229196   6.103   5.308  13.494  0.4088  0.3529  1.6317
 2569TIP3   OH229197   5.972   2.670   5.890  0.4333  0.4432 -0.5632
 2569TIP3    H129198   5.921   2.708   5.962 -0.7909 -2.3012  0.1512
 2569TIP3    H229199   6.062   2.671   5.923 -0.0917 -0.6669  1.0163
 2570TIP3   OH229200   4.627   6.533  10.664 -0.1696  0.2853  0.3331
 2570TIP3    H129201   4.703   6.537  10.722  0.3946 -0.0108 -0.3780
 2570TIP3    H229202   4.559   6.489  10.717  0.5386 -0.5703  0.5542
 2571TIP3   OH229203   0.377   5.872   2.389 -0.1712  0.6135 -0.5602
 2571TIP3    H129204   0.430   5.827   2.454 -0.1375  0.0306 -0.9840
 2571TIP3    H229205   0.327   5.937   2.439  0.7197  0.9699 -0.1178
 2572TIP3   OH229206   4.715   6.287   0.069  0.2115 -0.3084  0.5613
 2572TIP3    H129207   4.791   6.344   0.074 -0.4134  0.5329  0.8411
 2572TIP3    H229208   4.697   6.263   0.160  0.6956 -1.2687  0.4100
 2573TIP3   OH229209   4.761   4.329   5.332 -0.5973  0.2278 -0.1599
 2573TIP3    H129210   4.825   4.395   5.307  0.3216 -0.7247 -0.4370
 2573TIP3    H229211   4.808   4.246   5.323 -1.8349 -0.4975 -0.2259
 2574TIP3   OH229212   0.019   5.168   4.972 -0.4306  0.5370 -0.0831
 2574TIP3    H129213   0.039   5.115   4.895  0.2122 -0.1968  0.5892
 2574TIP3    H229214  -0.062   5.131   5.006 -0.2323  0.2885  0.1162
 2575TIP3   OH229215   4.290   1.850   4.113  0.3821 -0.0293  0.6874
 2575TIP3    H129216   4.324   1.922   4.061 -1.1199  0.4019  0.2486
 2575TIP3    H229217   4.322   1.867   4.202 -0.3096  1.4306  0.6786
 2576TIP3   OH229218   1.015   3.570  12.599  0.3208  0.0909 -0.9510
 2576TIP3    H129219   1.065   3.528  12.529 -0.2337  0.5734 -1.6355
 2576TIP3    H229220   0.954   3.628  12.555  0.5633  1.0752 -0.0349
 2577TIP3   OH229221   1.980   5.065   0.523  0.0763 -0.4802 -0.4097
 2577TIP3    H129222   1.983   5.153   0.485 -0.8744 -0.5829 -0.7344
 2577TIP3    H229223   1.974   5.006   0.448  0.6325 -0.8249 -0.1901
 2578TIP3   OH229224   1.213   5.574   0.623  0.2643  0.0419  0.2732
 2578TIP3    H129225   1.188   5.664   0.603  0.7125 -0.1953 -1.4654
 2578TIP3    H229226   1.133   5.533   0.656 -1.4259 -0.3040 -3.7568
 2579TIP3   OH229227   1.026   0.694   5.630  0.2298 -0.2024  0.3748
 2579TIP3    H129228   1.020   0.759   5.700 -0.8539 -1.4480  1.4905
 2579TIP3    H229229   1.090   0.730   5.569 -1.5500  2.7459  0.0456
 2580TIP3   OH229230   3.555   3.875  15.771 -0.8886 -0.0397 -0.2200
 2580TIP3    H129231   3.552   3.922  15.854 -0.6580 -1.2538  0.4874
 2580TIP3    H229232   3.465   3.843  15.758 -1.8006  2.8437 -2.0849
 2581TIP3   OH229233   2.230   5.958  14.089 -0.5402  0.3201  0.3365
 2581TIP3    H129234   2.148   5.992  14.055 -1.4802 -1.6885  0.3984
 2581TIP3    H229235   2.244   5.877  14.040  0.5074 -0.2274  1.4908
 2582TIP3   OH229236   3.378   1.686   0.138  0.3158 -0.1525 -0.7035
 2582TIP3    H129237   3.282   1.691   0.130  0.1767 -1.6785 -0.2775
 2582TIP3    H229238   3.406   1.636   0.062  1.1811  2.9635 -2.6309
 2583TIP3   OH229239   6.052   1.605   4.546 -0.5038  0.1726  0.2010
 2583TIP3    H129240   6.093   1.520   4.563 -2.0593 -0.3559  1.6927
 2583TIP3    H229241   6.121   1.669   4.563 -0.1985 -0.6695  2.5072
 2584TIP3   OH229242   0.630   6.590  10.799  0.1233  0.4702  0.5176
 2584TIP3    H129243   0.592   6.676  10.781  0.5099  0.3992 -0.7936
 2584TIP3    H229244   0.713   6.591  10.750  0.4395 -0.4032  1.0304
 2585TIP3   OH229245   6.754   2.154   3.102  0.0095 -0.5466 -0.3028
 2585TIP3    H129246   6.712   2.161   3.016 -2.0212 -1.9960  0.5022
 2585TIP3    H229247   6.685   2.174   3.165  1.2104 -0.4502  1.0477
 2586TIP3   OH229248   0.407   5.383  15.555 -0.0042  0.4917  0.1699
 2586TIP3    H129249   0.318   5.417  15.551 -0.3548 -0.4717 -0.5739
 2586TIP3    H229250   0.397   5.292  15.585  0.4984 -0.3824 -2.1333
 2587TIP3   OH229251   0.841   1.076   4.994  0.1279  0.2092 -0.1731
 2587TIP3    H129252   0.794   1.125   4.926  1.3360  1.1477 -0.3627
 2587TIP3    H229253   0.772   1.047   5.054 -0.8415  0.2987 -1.2146
 2588TIP3   OH229254   4.709   3.862   4.675 -0.0827  0.3793  0.4654
 2588TIP3    H129255   4.735   3.887   4.764 -1.3164 -0.6812  1.1668
 2588TIP3    H229256   4.752   3.925   4.618  0.6616  1.1361  1.8274
 2589TIP3   OH229257   3.537   2.402   2.688 -0.4931  0.1679  0.1644
 2589TIP3    H129258   3.578   2.450   2.760  0.1431  1.1844 -0.8434
 2589TIP3    H229259   3.459   2.452   2.666 -0.7183 -0.1724  0.1778
 2590TIP3   OH229260   0.788   1.953   1.370 -1.1519  0.1487  0.2551
 2590TIP3    H129261   0.841   2.033   1.369  0.5018 -0.8835  0.9513
 2590TIP3    H229262   0.767   1.940   1.463 -1.3596 -0.2685  0.1488
 2591TIP3   OH229263   6.103   4.956   4.695 -0.1917  0.3773 -0.1563
 2591TIP3    H129264   6.135   4.892   4.759 -0.6835 -0.2306 -0.5063
 2591TIP3    H229265   6.155   4.940   4.617 -1.7476 -1.1076 -0.9728
 2592TIP3   OH229266   2.810   6.681  10.455  0.4514  0.1336  0.2085
 2592TIP3    H129267   2.738   6.694  10.393  1.6583 -3.0908 -2.1492
 2592TIP3    H229268   2.783   6.604  10.506  1.7537 -0.4631  0.0246
 2593TIP3   OH229269   2.594   6.007   4.900 -0.1115  0.2447 -0.0020
 2593TIP3    H129270   2.669   6.028   4.955  0.2915 -1.8693  0.3655
 2593TIP3    H229271   2.620   5.926   4.855 -1.3257  0.6643 -1.5638
 2594TIP3   OH229272   6.820   1.807   2.873  0.5267  0.0096 -0.2986
 2594TIP3    H129273   6.770   1.860   2.809  0.5618  0.4090 -0.0007
 2594TIP3    H229274   6.882   1.869   2.911 -1.8540  0.7322  2.7395
 2595TIP3   OH229275   2.332   4.117   1.871 -0.1176  0.1152 -0.2214
 2595TIP3    H129276   2.425   4.140   1.877 -0.2583  0.4754  0.7771
 2595TIP3    H229277   2.329   4.048   1.804  0.4978  1.9041 -2.2142
 2596TIP3   OH229278   2.130   6.471  16.532  0.5442 -0.1199 -0.1490
 2596TIP3    H129279   2.181   6.430  16.602  1.3286 -0.8301 -1.1162
 2596TIP3    H229280   2.086   6.398  16.489 -1.4888  0.4885  0.7784
 2597TIP3   OH229281   2.385   4.948   0.318  0.4282 -0.0519  0.0331
 2597TIP3    H129282   2.414   4.858   0.335  0.1363 -0.2205 -0.3409
 2597TIP3    H229283   2.378   4.953   0.222 -0.8789 -0.0625  0.1034
 2598TIP3   OH229284   3.632   3.327  15.910  0.2751  1.3863 -0.0067
 2598TIP3    H129285   3.644   3.381  15.988 -0.5499  0.7702  0.5739
 2598TIP3    H229286   3.693   3.254  15.922  1.0097  1.8941 -0.5363
 2599TIP3   OH229287   3.871   5.281   2.131 -0.1449 -0.0930  0.2987
 2599TIP3    H129288   3.917   5.361   2.154 -1.0043  0.5753 -0.2566
 2599TIP3    H229289   3.881   5.225   2.209 -1.3197  1.3688  1.5716
 2600TIP3   OH229290   2.851   2.508   2.015  0.1299  0.7514 -0.0715
 2600TIP3    H129291   2.900   2.564   1.955 -0.2936  1.4734  0.2449
 2600TIP3    H229292   2.812   2.441   1.958 -0.7078  1.7411 -0.6812
 2601TIP3   OH229293   0.837   4.255  14.572 -0.0801 -0.1358 -0.5879
 2601TIP3    H129294   0.775   4.182  14.579  0.8612 -0.9180 -0.1406
 2601TIP3    H229295   0.807   4.305  14.496 -1.4143 -0.3286 -0.2104
 2602TIP3   OH229296   2.844   4.164  10.650  0.6672  0.7069 -0.3455
 2602TIP3    H129297   2.775   4.187  10.712  1.2712 -0.0619  0.6425
 2602TIP3    H229298   2.850   4.239  10.591 -0.9281  0.8280 -0.3898
 2603TIP3   OH229299   4.859   6.156   0.745 -0.4804 -0.3559 -0.0467
 2603TIP3    H129300   4.888   6.196   0.827  0.1575 -2.4526  0.8322
 2603TIP3    H229301   4.933   6.167   0.686 -0.0232 -0.8277  0.4198
 2604TIP3   OH229302   0.959   5.543   3.596 -0.3318  0.4145  1.1295
 2604TIP3    H129303   0.938   5.530   3.688 -0.5934  0.8373  1.1315
 2604TIP3    H229304   0.874   5.546   3.552 -0.2023 -1.6599  0.5943
 2605TIP3   OH229305   1.428   6.406  14.370  0.5916  0.1969  0.0196
 2605TIP3    H129306   1.366   6.423  14.441  0.7605  0.0362  0.2072
 2605TIP3    H229307   1.483   6.334  14.403  0.5653  0.0119 -0.3389
 2606TIP3   OH229308   3.215   5.967  11.452  0.0810  0.2161  0.0001
 2606TIP3    H129309   3.257   5.989  11.368 -1.1813  2.1746 -0.1810
 2606TIP3    H229310   3.243   6.037  11.511 -2.0300  0.9816  0.1507
 2607TIP3   OH229311   4.226   2.317  13.480  0.0309 -0.2467 -0.1612
 2607TIP3    H129312   4.317   2.338  13.503 -0.3159  1.3689 -0.1476
 2607TIP3    H229313   4.174   2.379  13.531 -1.0922 -1.1632 -0.1635
 2608TIP3   OH229314   1.960   6.200   5.063 -0.7086 -0.5530  0.0489
 2608TIP3    H129315   1.921   6.269   5.010 -1.5101  0.2205  1.5610
 2608TIP3    H229316   1.891   6.133   5.069 -0.6065 -0.6562  0.0693
 2609TIP3   OH229317   3.731   3.303   6.229  0.3715 -0.3501  0.0038
 2609TIP3    H129318   3.737   3.294   6.325  1.4641  2.3610  0.2798
 2609TIP3    H229319   3.666   3.372   6.216  1.9280  0.9825 -1.0437
 2610TIP3   OH229320   1.789   3.496   0.887  0.3529 -0.4380 -0.1608
 2610TIP3    H129321   1.806   3.470   0.977  2.4914  0.7303 -0.1501
 2610TIP3    H229322   1.862   3.460   0.837 -1.0801 -1.5455 -1.5815
 2611TIP3   OH229323   5.557   0.055   3.130  0.1028 -0.5411 -0.0777
 2611TIP3    H129324   5.634   0.035   3.183  0.2365  1.8742  0.7889
 2611TIP3    H229325   5.487   0.070   3.194 -1.4017 -3.5230 -0.8680
 2612TIP3   OH229326   0.167   0.293  15.685  0.8909 -0.1567 -0.6145
 2612TIP3    H129327   0.189   0.246  15.765  1.4739  0.0758 -0.6307
 2612TIP3    H229328   0.204   0.240  15.615 -1.1075 -1.2804 -0.9009
 2613TIP3   OH229329   1.170   4.812   4.239 -0.3879 -0.1738  0.6040
 2613TIP3    H129330   1.259   4.778   4.245 -0.3653 -0.0842  0.7744
 2613TIP3    H229331   1.148   4.838   4.329 -0.3855  0.3236  0.4615
 2614TIP3   OH229332   4.574   4.899  14.541  0.1642 -0.4581  0.3892
 2614TIP3    H129333   4.613   4.979  14.506  0.0669  0.2733  1.8334
 2614TIP3    H229334   4.647   4.852  14.581 -0.0548 -0.1364  1.2042
 2615TIP3   OH229335   6.629   6.605  11.631 -0.1024 -0.2288 -0.3665
 2615TIP3    H129336   6.668   6.581  11.715  0.6604  1.3327 -0.2465
 2615TIP3    H229337   6.577   6.529  11.607 -0.4039 -0.6987  1.5593
 2616TIP3   OH229338   1.823   3.909   5.521 -0.0185  0.4524 -0.0978
 2616TIP3    H129339   1.868   3.826   5.502 -0.9554  0.2375 -1.5679
 2616TIP3    H229340   1.893   3.968   5.550  0.6001 -0.9605  1.4746
 2617TIP3   OH229341   1.312   1.001  12.006 -0.6282 -0.2400  0.8522
 2617TIP3    H129342   1.264   0.972  11.928  0.4428 -0.4776  0.2635
 2617TIP3    H229343   1.299   0.931  12.069 -1.0347 -0.3163  0.6861
 2618TIP3   OH229344   4.749   1.911   2.141  0.4003 -0.1435  0.1228
 2618TIP3    H129345   4.712   1.893   2.228  1.1443 -0.0299  0.4663
 2618TIP3    H229346   4.815   1.979   2.156  0.6039 -0.1910 -0.5200
 2619TIP3   OH229347   0.378   3.939   5.712  0.6876 -0.3392 -0.0168
 2619TIP3    H129348   0.394   3.975   5.799  1.0452 -0.2313 -0.1250
 2619TIP3    H229349   0.464   3.906   5.684  0.9869  1.2374 -1.0664
 2620TIP3   OH229350   0.117   2.927   1.486  0.3782 -0.1790  0.1111
 2620TIP3    H129351   0.049   2.872   1.447  1.0390 -1.5067  0.7889
 2620TIP3    H229352   0.069   3.000   1.525 -0.3451  0.9440 -2.6802
 2621TIP3   OH229353   3.738   0.807   5.399 -0.3260 -0.4909  0.9832
 2621TIP3    H129354   3.758   0.770   5.485 -0.3521 -1.0448  0.7577
 2621TIP3    H229355   3.824   0.820   5.358 -0.3126 -0.2042  1.0995
 2622TIP3   OH229356   1.549   4.142   1.757  0.4012 -0.3588 -0.2092
 2622TIP3    H129357   1.510   4.095   1.683 -0.1279  0.4108 -0.4445
 2622TIP3    H229358   1.610   4.204   1.716 -0.0021  0.1716 -0.0185
 2623TIP3   OH229359   3.841   4.019  10.799 -0.2602  0.3087 -0.0169
 2623TIP3    H129360   3.854   4.114  10.800 -0.1818  0.3088 -0.5306
 2623TIP3    H229361   3.884   3.990  10.718 -0.5035 -0.1333  0.0071
 2624TIP3   OH229362   0.957   1.314   0.668 -0.1672 -0.6630  0.2201
 2624TIP3    H129363   0.863   1.322   0.655 -0.2882 -0.2612  1.2294
 2624TIP3    H229364   0.966   1.261   0.748  0.5262 -3.4609 -1.5600
 2625TIP3   OH229365   4.612   3.015   2.545 -0.3523 -0.5720  0.2640
 2625TIP3    H129366   4.697   2.974   2.558 -0.2126 -0.2658  0.3121
 2625TIP3    H229367   4.590   3.053   2.630  0.0928  0.5378 -0.1040
 2626TIP3   OH229368   3.670   2.855  16.631  0.5251 -0.5215  0.2783
 2626TIP3    H129369   3.758   2.890  16.645 -0.1405  0.9628  0.9857
 2626TIP3    H229370   3.619   2.930  16.600 -1.2248 -0.5154  2.8359
 2627TIP3   OH229371   1.735   5.436  15.389  0.1634 -0.4610 -0.1020
 2627TIP3    H129372   1.796   5.380  15.437 -0.6889 -1.7127 -0.4153
 2627TIP3    H229373   1.699   5.379  15.320  0.0009  0.7712 -1.0697
 2628TIP3   OH229374   2.483   4.658   2.641  0.5254  0.3575  0.0994
 2628TIP3    H129375   2.454   4.724   2.577  0.4382 -0.2651 -0.5117
 2628TIP3    H229376   2.426   4.583   2.625 -0.7807  0.8147  2.1579
 2629TIP3   OH229377   3.559   1.575  17.107  0.5606 -0.5854  0.1148
 2629TIP3    H129378   3.495   1.504  17.105  0.6275 -0.7424  2.0159
 2629TIP3    H229379   3.629   1.543  17.163  0.7324  0.8568  0.7610
 2630TIP3   OH229380   3.983   6.402  12.554  0.0209 -0.1189  0.6811
 2630TIP3    H129381   4.000   6.311  12.530 -2.4794 -0.2921 -0.7153
 2630TIP3    H229382   3.971   6.447  12.470  0.2551  1.3245  1.3866
 2631TIP3   OH229383   3.832   1.156  12.156  0.0414 -1.0037  0.3312
 2631TIP3    H129384   3.861   1.225  12.096 -0.7930 -2.2182 -1.5658
 2631TIP3    H229385   3.738   1.171  12.166  0.0625 -1.1925  0.8447
 2632TIP3   OH229386   2.276   6.576  13.235 -0.2628 -0.4517 -0.0065
 2632TIP3    H129387   2.355   6.569  13.289 -0.4246 -0.8574  0.1843
 2632TIP3    H229388   2.228   6.495  13.252 -0.8030 -0.1336  0.0108
 2633TIP3   OH229389   5.860   2.782   6.259  0.2770 -0.2613  0.2582
 2633TIP3    H129390   5.797   2.804   6.328 -0.6941 -0.4475 -0.5450
 2633TIP3    H229391   5.914   2.713   6.297 -0.6371 -0.7848  0.6262
 2634TIP3   OH229392   2.924   5.724  12.340  0.0644  0.0973 -0.0175
 2634TIP3    H129393   2.833   5.751  12.327 -0.0825  0.0497  0.8468
 2634TIP3    H229394   2.969   5.805  12.365  0.5474  0.3867 -1.6689
 2635TIP3   OH229395   4.709   1.519  16.475  0.4115 -0.4529 -0.5523
 2635TIP3    H129396   4.696   1.428  16.450  2.5580 -1.2067  0.8695
 2635TIP3    H229397   4.734   1.516  16.567 -1.6229  1.7852  0.1901
 2636TIP3   OH229398   2.835   4.916  16.660 -0.6992  0.2579 -0.3520
 2636TIP3    H129399   2.862   4.980  16.725 -0.8517  0.0713 -0.1048
 2636TIP3    H229400   2.750   4.947  16.629 -0.3490  0.6811 -0.9104
 2637TIP3   OH229401   3.230   6.143  14.653 -0.3517  0.2198 -0.5528
 2637TIP3    H129402   3.212   6.216  14.595  1.6283  1.9691  0.8563
 2637TIP3    H229403   3.286   6.180  14.722 -2.0956 -1.8293  2.1957
 2638TIP3   OH229404   4.882   3.566   0.782  0.5905  0.5158  0.0276
 2638TIP3    H129405   4.953   3.596   0.839  1.4737 -0.4489 -0.5277
 2638TIP3    H229406   4.893   3.471   0.778 -1.0345  0.2899  0.3056
 2639TIP3   OH229407   1.017   1.015   1.974 -0.2324  0.2923  0.3178
 2639TIP3    H129408   1.110   1.038   1.968 -0.2626  0.2682 -0.3249
 2639TIP3    H229409   0.981   1.037   1.888 -1.1127  1.5425  0.9797
 2640TIP3   OH229410   0.566   4.976  11.926 -0.3751 -0.0329 -0.1657
 2640TIP3    H129411   0.617   4.991  11.847 -0.7287  1.1158 -0.1926
 2640TIP3    H229412   0.621   5.010  11.997 -0.0368 -1.1038  0.1056
 2641TIP3   OH229413   1.465   2.523  14.997 -0.0026 -0.2572  0.3735
 2641TIP3    H129414   1.458   2.434  15.032  0.4401 -0.5836 -0.3387
 2641TIP3    H229415   1.404   2.526  14.923 -0.2884  0.1524  0.6182
 2642TIP3   OH229416   2.060   5.421   3.190  0.2412 -0.1961  0.3418
 2642TIP3    H129417   2.066   5.517   3.183 -0.0489 -0.0291  1.9388
 2642TIP3    H229418   2.140   5.395   3.235  0.3887 -0.7307 -0.2231
 2643TIP3   OH229419   2.602   0.569   4.618  0.1135  0.0860 -0.7617
 2643TIP3    H129420   2.695   0.591   4.625 -0.0371  0.3783  0.4348
 2643TIP3    H229421   2.557   0.639   4.665 -0.6590 -0.5422 -0.5556
 2644TIP3   OH229422   4.253   5.066  12.076  0.0355 -0.6782 -0.0624
 2644TIP3    H129423   4.316   4.996  12.093 -1.0301 -2.3273 -2.4371
 2644TIP3    H229424   4.178   5.044  12.131 -0.7313 -2.1326 -1.5873
 2645TIP3   OH229425   3.364   3.105   4.540  0.0266  0.2547 -0.3394
 2645TIP3    H129426   3.314   3.113   4.459 -0.7510  2.4793  0.2874
 2645TIP3    H229427   3.302   3.068   4.603 -0.0587  0.6346 -0.1995
 2646TIP3   OH229428   5.004   3.126   4.495 -0.3344  0.2215 -0.8251
 2646TIP3    H129429   4.937   3.191   4.516  0.6533  1.2039 -0.6403
 2646TIP3    H229430   4.961   3.042   4.509 -1.2973  0.8388  0.0446
 2647TIP3   OH229431   4.111   3.420  11.371 -0.2576  0.5698 -0.0272
 2647TIP3    H129432   4.123   3.419  11.465  0.0277 -2.4552  0.0048
 2647TIP3    H229433   4.026   3.378  11.357 -0.0787  0.5447 -1.1321
 2648TIP3   OH229434   1.540   6.643   5.093 -0.0867  0.6972  0.5030
 2648TIP3    H129435   1.589   6.639   5.010 -2.6911 -2.6028 -1.0927
 2648TIP3    H229436   1.581   6.577   5.148  0.7071  1.8810  1.4010
 2649TIP3   OH229437   4.118   2.733   4.827 -0.1721 -0.1484  0.1536
 2649TIP3    H129438   4.129   2.812   4.774  1.1820 -1.7993 -2.2099
 2649TIP3    H229439   4.024   2.716   4.826 -0.3401  0.7542 -0.3357
 2650TIP3   OH229440   2.013   5.167  16.854  0.1803  0.1083 -0.4025
 2650TIP3    H129441   2.099   5.131  16.829  0.0091  0.9442 -2.3792
 2650TIP3    H229442   1.953   5.131  16.789 -0.6794  0.8598 -0.0358
 2651TIP3   OH229443   5.838   4.495   2.659 -0.0749  0.4306  0.2677
 2651TIP3    H129444   5.814   4.458   2.574  0.0057  0.7287  0.1146
 2651TIP3    H229445   5.754   4.514   2.701 -0.1676 -1.7477  1.1663
 2652TIP3   OH229446   2.967   2.350   1.641 -0.0922 -0.5765 -0.2949
 2652TIP3    H129447   2.971   2.262   1.679 -1.7020 -1.0561 -1.1625
 2652TIP3    H229448   3.022   2.345   1.563  3.7768  0.5909  2.0577
 2653TIP3   OH229449   1.128   0.529  12.766  0.1627 -0.5662  0.4698
 2653TIP3    H129450   1.037   0.519  12.793  0.3765 -1.5116  0.8829
 2653TIP3    H229451   1.133   0.486  12.681 -0.0958  0.8098 -0.2790
 2654TIP3   OH229452   0.118   1.175   5.728  0.1234  0.7525 -0.3851
 2654TIP3    H129453   0.065   1.222   5.664  0.3564 -0.3166 -1.4070
 2654TIP3    H229454   0.105   1.083   5.707 -0.8592  0.2649  1.9846
 2655TIP3   OH229455   2.221   1.233   5.419 -0.6097  0.1704  0.3235
 2655TIP3    H129456   2.151   1.280   5.374 -0.7246  1.6954  1.9988
 2655TIP3    H229457   2.280   1.302   5.451  1.3456 -1.0328 -0.4952
 2656TIP3   OH229458   0.425   2.683   5.562 -0.5581 -0.0593 -0.3873
 2656TIP3    H129459   0.495   2.742   5.535 -1.0247  1.5976  1.7442
 2656TIP3    H229460   0.345   2.735   5.554 -1.0254 -0.4844  1.1720
 2657TIP3   OH229461   6.189   1.977  12.018 -0.5577 -0.2202  0.1499
 2657TIP3    H129462   6.134   1.946  12.090  0.5999  1.3382  1.8077
 2657TIP3    H229463   6.232   1.898  11.985 -0.7628 -0.9414  1.5148
 2658TIP3   OH229464   5.345   4.808   4.576  0.4449 -0.3142  0.2516
 2658TIP3    H129465   5.255   4.795   4.545  0.4444 -1.7330  0.7633
 2658TIP3    H229466   5.371   4.893   4.541 -1.1493  0.1784  0.2191
 2659TIP3   OH229467   6.005   1.316   2.021 -0.4494  0.0708  0.8812
 2659TIP3    H129468   5.958   1.282   1.945 -1.2336  0.6272  1.0993
 2659TIP3    H229469   6.096   1.293   2.006 -0.5280  0.5742 -0.4641
 2660TIP3   OH229470   5.077   2.930   5.890 -0.0887  0.3602  0.3553
 2660TIP3    H129471   5.006   2.979   5.849  1.9041  2.2896 -0.9578
 2660TIP3    H229472   5.156   2.958   5.845  1.5451 -1.9058  1.5734
 2661TIP3   OH229473   5.423   6.569   0.811 -0.0095  0.6239  0.5517
 2661TIP3    H129474   5.366   6.497   0.835 -1.9208  1.2000 -1.8819
 2661TIP3    H229475   5.501   6.558   0.866 -1.3530 -1.6955  2.1246
 2662TIP3   OH229476   3.975   5.110  14.160 -0.7562 -0.3296 -0.8234
 2662TIP3    H129477   3.961   5.020  14.192 -2.2866  0.3690  0.6374
 2662TIP3    H229478   4.069   5.114  14.142 -0.3407 -1.7336  0.7222
 2663TIP3   OH229479   4.515   5.489   5.150 -0.0707 -0.1824  0.2411
 2663TIP3    H129480   4.446   5.514   5.212  0.6006 -0.1523  0.9945
 2663TIP3    H229481   4.567   5.569   5.138  1.0291 -0.6954  1.2829
 2664TIP3   OH229482   0.370   1.589  11.579 -0.7786 -0.4017  0.0442
 2664TIP3    H129483   0.463   1.591  11.601 -1.0060  1.0755  1.0232
 2664TIP3    H229484   0.365   1.538  11.498  0.9706  0.1280 -0.4276
 2665TIP3   OH229485   2.625   2.816  13.681 -0.4092 -0.0493  0.0625
 2665TIP3    H129486   2.611   2.892  13.738 -3.1480  0.2568 -0.8580
 2665TIP3    H229487   2.539   2.775  13.674  0.3815 -1.5651 -1.7940
 2666TIP3   OH229488   2.097   0.383   6.427 -0.3603  0.5200 -0.6180
 2666TIP3    H129489   2.109   0.342   6.513  1.6738  1.0517 -0.5908
 2666TIP3    H229490   2.005   0.408   6.426 -1.1175 -1.8913  0.2938
 2667TIP3   OH229491   0.907   5.207   5.779  0.1898  0.0693 -0.1836
 2667TIP3    H129492   0.953   5.170   5.854 -1.9126  1.5630  2.0260
 2667TIP3    H229493   0.974   5.220   5.713  2.4942  0.1491  2.0301
 2668TIP3   OH229494   2.904   3.595  15.057  0.3049 -0.2018  0.2278
 2668TIP3    H129495   2.897   3.500  15.069 -2.3554  0.0605  1.8292
 2668TIP3    H229496   2.970   3.607  14.990 -0.5894 -3.2936 -1.3980
 2669TIP3   OH229497   3.763   3.160  14.039  0.2925 -0.0132 -0.2377
 2669TIP3    H129498   3.715   3.231  13.997 -1.2874  0.0553  1.5323
 2669TIP3    H229499   3.792   3.105  13.967 -1.8548  0.3514 -1.4663
 2670TIP3   OH229500   0.078   5.501   3.180  0.5366  0.2096  0.2416
 2670TIP3    H129501   0.088   5.497   3.084 -0.1563 -1.2524  0.2148
 2670TIP3    H229502   0.035   5.586   3.195 -3.0074 -1.1387 -1.1395
 2671TIP3   OH229503   5.565   2.964  17.159 -0.5453 -0.0123  0.1429
 2671TIP3    H129504   5.656   2.938  17.155 -0.8920 -1.6059  1.5273
 2671TIP3    H229505   5.560   3.025  17.233 -0.9895 -1.8968  1.7308
 2672TIP3   OH229506   5.948   3.050  10.420 -0.7935  0.8472 -0.2052
 2672TIP3    H129507   5.938   2.955  10.423  1.3116  0.5876  0.6339
 2672TIP3    H229508   6.012   3.066  10.351 -1.6195  1.7395 -0.7999
 2673TIP3   OH229509   1.774   5.998  14.615 -0.1993  0.1660 -0.1460
 2673TIP3    H129510   1.685   6.033  14.615  0.2299  1.3454 -1.6784
 2673TIP3    H229511   1.764   5.907  14.586 -0.9721 -0.0315  0.6616
 2674TIP3   OH229512   5.337   4.308   3.595  0.4165 -0.1220  0.4473
 2674TIP3    H129513   5.307   4.394   3.621  1.2958 -0.3714  2.4290
 2674TIP3    H229514   5.257   4.257   3.583 -0.2624 -0.7847  5.5543
 2675TIP3   OH229515   0.995   0.786  16.656  0.2034  0.0573  1.0628
 2675TIP3    H129516   1.087   0.793  16.682  0.0330  1.0499  1.4588
 2675TIP3    H229517   0.982   0.693  16.639  1.8646  0.1475 -1.2276
 2676TIP3   OH229518   4.397   1.470   1.727 -0.0130  0.1691 -0.8855
 2676TIP3    H129519   4.414   1.556   1.765 -1.5703  0.3350 -0.4813
 2676TIP3    H229520   4.451   1.410   1.779 -0.7085  0.6277  0.4070
 2677TIP3   OH229521   6.793   2.521  13.920  0.5098  0.3932  0.2280
 2677TIP3    H129522   6.735   2.473  13.862 -0.0106  0.7350  0.4634
 2677TIP3    H229523   6.819   2.457  13.987  1.6869 -0.2076 -0.7632
 2678TIP3   OH229524   2.925   1.976  14.737 -0.0593  0.3374 -0.0531
 2678TIP3    H129525   2.890   1.902  14.788  2.6765  0.0557  1.6294
 2678TIP3    H229526   2.912   2.052  14.794  1.1032  0.3782  0.1801
 2679TIP3   OH229527   3.317   6.622   4.665  0.4217 -0.0837 -0.3474
 2679TIP3    H129528   3.228   6.589   4.668  0.6965 -0.8061  0.0395
 2679TIP3    H229529   3.320   6.689   4.734  0.2623 -0.2710 -0.1563
 2680TIP3   OH229530   4.303   3.681   5.855  0.0875 -0.2211 -0.5769
 2680TIP3    H129531   4.258   3.599   5.874  1.6523 -0.9246  0.2957
 2680TIP3    H229532   4.331   3.672   5.764  0.6962 -0.8940 -0.3342
 2681TIP3   OH229533   0.418   4.921  11.341  0.1625 -0.4230 -0.4745
 2681TIP3    H129534   0.414   5.010  11.377  0.4039 -0.9357  0.8545
 2681TIP3    H229535   0.505   4.915  11.302  0.8764 -0.6705  1.0834
 2682TIP3   OH229536   0.375   0.593  13.407 -0.3101 -0.3355 -0.4484
 2682TIP3    H129537   0.364   0.653  13.333  1.8278  0.8070  0.0798
 2682TIP3    H229538   0.335   0.638  13.481  3.0180  1.5876  0.4112
 2683TIP3   OH229539   4.905   3.084   5.754 -0.2643  0.5596 -0.0858
 2683TIP3    H129540   4.939   3.094   5.665  1.7477  2.6043  0.8131
 2683TIP3    H229541   4.865   3.169   5.774 -1.0171  0.0029  0.8643
 2684TIP3   OH229542   6.714   0.522   3.770 -0.8062  0.1098 -0.0719
 2684TIP3    H129543   6.700   0.445   3.714  0.0654  0.5034 -0.8664
 2684TIP3    H229544   6.808   0.536   3.768 -0.9438  1.1422  0.1422
 2685TIP3   OH229545   6.495   4.320  11.520  0.0042 -0.0328  0.3351
 2685TIP3    H129546   6.414   4.366  11.499 -1.6673 -3.1638 -0.7072
 2685TIP3    H229547   6.510   4.339  11.612 -1.4216  1.3427  0.3229
 2686TIP3   OH229548   2.866   2.281  13.489  0.2643  0.2406  0.0638
 2686TIP3    H129549   2.786   2.330  13.510 -0.2811 -1.1784  1.5294
 2686TIP3    H229550   2.934   2.348  13.479 -0.7244  1.3627  0.6344
 2687TIP3   OH229551   5.737   3.868   4.762  0.9661 -0.3543  0.1055
 2687TIP3    H129552   5.792   3.873   4.841  0.9469  0.3540  0.0814
 2687TIP3    H229553   5.648   3.858   4.796  0.7852  1.3936  0.2313
 2688TIP3   OH229554   1.083   0.716   4.620  0.3163 -0.1696  0.3748
 2688TIP3    H129555   1.160   0.763   4.652 -0.1661  0.2229  0.9960
 2688TIP3    H229556   1.010   0.753   4.670  0.0155 -2.2366  1.5834
 2689TIP3   OH229557   0.665   6.318  16.001  0.5159  0.4198 -0.2631
 2689TIP3    H129558   0.706   6.237  15.969  1.7607  0.4594  1.1259
 2689TIP3    H229559   0.707   6.387  15.950  0.9571  0.3280 -0.0333
 2690TIP3   OH229560   4.970   2.680   1.118  0.3105 -0.3192 -0.2102
 2690TIP3    H129561   5.055   2.637   1.124  0.2002 -0.4518  0.4797
 2690TIP3    H229562   4.915   2.618   1.071  0.9802  0.3949 -2.0284
 2691TIP3   OH229563   3.812   6.016  14.131 -0.0089  0.4082 -0.0644
 2691TIP3    H129564   3.884   6.006  14.193  2.1046  0.0909 -2.4293
 2691TIP3    H229565   3.854   6.021  14.045 -2.8116  0.4750 -1.5571
 2692TIP3   OH229566   2.832   5.035  14.264 -0.4252 -0.2177  0.3413
 2692TIP3    H129567   2.822   5.013  14.171 -1.7384 -0.5899  0.5532
 2692TIP3    H229568   2.797   5.124  14.271 -3.8387 -1.4707  1.0619
 2693TIP3   OH229569   1.982   3.941   2.290  0.6211  0.2256 -0.2705
 2693TIP3    H129570   2.018   3.996   2.221  0.4174  0.4130 -0.2283
 2693TIP3    H229571   1.903   3.987   2.319  0.8057  0.2396  0.2160
 2694TIP3   OH229572   6.158   0.076  14.447  0.1379  0.2349  0.3157
 2694TIP3    H129573   6.136  -0.017  14.450 -0.1921  0.3222  0.7876
 2694TIP3    H229574   6.105   0.110  14.375 -0.2240  0.1741  0.5487
 2695TIP3   OH229575   0.155   5.123  11.161  0.4042  0.2197 -0.0139
 2695TIP3    H129576   0.222   5.066  11.199  1.7082  0.9051 -1.1983
 2695TIP3    H229577   0.120   5.172  11.235  1.8847  0.5211  0.5212
 2696TIP3   OH229578   6.712   6.677   4.570  0.4144  0.4077  0.1561
 2696TIP3    H129579   6.790   6.723   4.601  0.9971 -1.9304  2.5634
 2696TIP3    H229580   6.738   6.585   4.565 -2.2635 -0.5794  1.6724
 2697TIP3   OH229581   3.362   3.204  13.791  0.2855 -0.1731 -0.4543
 2697TIP3    H129582   3.386   3.293  13.815 -0.2420 -0.2877  0.5682
 2697TIP3    H229583   3.269   3.210  13.767 -0.1374 -0.6549  0.9476
 2698TIP3   OH229584   5.402   6.258  13.965 -0.5069 -0.1260 -0.8912
 2698TIP3    H129585   5.330   6.233  13.907  0.5685 -2.7688 -1.2588
 2698TIP3    H229586   5.478   6.264  13.907 -0.1108  1.1012 -0.2813
 2699TIP3   OH229587   6.685   4.115  11.811  0.1175 -0.1061  0.4315
 2699TIP3    H129588   6.662   4.084  11.899  0.9706 -0.6371  0.4759
 2699TIP3    H229589   6.771   4.077  11.794 -0.0682 -0.0634 -0.6650
 2700TIP3   OH229590   3.285   6.345   4.950 -0.2467  0.1643 -0.1202
 2700TIP3    H129591   3.343   6.301   4.887 -2.1573 -1.7148 -0.6623
 2700TIP3    H229592   3.298   6.298   5.032 -0.0785  0.5847  0.0985
 2701TIP3   OH229593   2.440   5.512   0.347 -0.5926 -0.3000  0.2442
 2701TIP3    H129594   2.518   5.468   0.380  0.0177  1.9217  2.0284
 2701TIP3    H229595   2.394   5.541   0.426 -1.3102  1.5788 -0.8172
 2702TIP3   OH229596   3.972   4.403  15.851 -0.1417 -0.4481  0.1354
 2702TIP3    H129597   4.035   4.356  15.905 -0.8848  0.8129  2.2063
 2702TIP3    H229598   3.894   4.346  15.850  1.3732 -2.9057 -3.9303
 2703TIP3   OH229599   5.450   5.615  11.317  0.0989 -0.3620  0.2975
 2703TIP3    H129600   5.378   5.588  11.260  0.6070 -1.4006  0.1367
 2703TIP3    H229601   5.407   5.652  11.394 -0.5943  1.0241 -0.7118
 2704TIP3   OH229602   6.640   5.868   3.451 -0.7597  1.1138  0.1067
 2704TIP3    H129603   6.716   5.895   3.400 -1.7136  1.2060 -1.3257
 2704TIP3    H229604   6.669   5.871   3.542  0.8900  1.2968 -0.4035
 2705TIP3   OH229605   4.190   1.204   4.960  0.0551  0.4414  0.0172
 2705TIP3    H129606   4.252   1.236   5.026 -0.5023  1.2865  0.1335
 2705TIP3    H229607   4.206   1.259   4.883 -0.5022  0.6152  0.0245
 2706TIP3   OH229608   0.123   2.785   2.562 -0.2324 -0.4572  0.0621
 2706TIP3    H129609   0.053   2.810   2.622  0.2077  1.0579 -0.0273
 2706TIP3    H229610   0.200   2.773   2.618  0.0361  0.3747 -0.1215
 2707TIP3   OH229611   5.456   1.955  16.894 -0.4252 -0.0427 -0.1934
 2707TIP3    H129612   5.384   2.010  16.927 -0.1984 -0.3429  0.8484
 2707TIP3    H229613   5.426   1.865  16.908 -0.0913 -0.1713 -0.2958
 2708TIP3   OH229614   3.776   2.577   4.526  0.0746  0.0049  0.5392
 2708TIP3    H129615   3.737   2.594   4.612  1.1639  0.4762  0.9600
 2708TIP3    H229616   3.712   2.611   4.463 -0.1292  0.9042  1.2127
 2709TIP3   OH229617   3.869   0.745  12.113 -0.4754 -0.6141  0.3228
 2709TIP3    H129618   3.808   0.787  12.173  0.0895 -0.9498  1.1461
 2709TIP3    H229619   3.817   0.679  12.068 -0.7562 -0.7815  0.8926
 2710TIP3   OH229620   0.859   4.144   0.938  0.0780 -0.8383 -0.2270
 2710TIP3    H129621   0.793   4.120   1.003 -1.0542  1.0519 -0.5998
 2710TIP3    H229622   0.821   4.218   0.892  2.2715  0.0016 -0.8128
 2711TIP3   OH229623   1.145   3.354   5.400 -0.4614  0.3052 -0.5300
 2711TIP3    H129624   1.102   3.431   5.363 -1.4770 -0.0347 -0.0927
 2711TIP3    H229625   1.147   3.291   5.328 -1.3305  0.0781 -0.3634
 2712TIP3   OH229626   2.234   2.678  16.839  0.0374 -1.0922  0.1632
 2712TIP3    H129627   2.310   2.652  16.891 -0.4620 -3.0224 -0.0280
 2712TIP3    H229628   2.206   2.761  16.878  2.7745  0.2097 -0.3495
 2713TIP3   OH229629   6.335   4.674  11.585  0.1805 -0.5457 -0.0690
 2713TIP3    H129630   6.303   4.585  11.569 -1.6298 -0.1945  1.3271
 2713TIP3    H229631   6.271   4.731  11.542 -0.2717  0.1491  1.4732
 2714TIP3   OH229632   3.693   4.291   3.725 -0.1387  0.1528 -0.2362
 2714TIP3    H129633   3.765   4.244   3.683  1.4122  2.3323 -0.1576
 2714TIP3    H229634   3.717   4.297   3.817 -0.7577  0.3244 -0.0780
 2715TIP3   OH229635   2.053   3.443  13.032  0.0148 -0.3271 -0.3826
 2715TIP3    H129636   2.095   3.471  12.951 -1.8608 -0.1269 -1.3632
 2715TIP3    H229637   2.102   3.366  13.060  0.3089 -0.8096 -2.1032
 2716TIP3   OH229638   2.188   4.993  15.109  0.1898 -0.4147  0.2544
 2716TIP3    H129639   2.254   4.966  15.045  0.4208  0.9753 -0.1253
 2716TIP3    H229640   2.201   5.087  15.118 -2.0792  0.0077 -0.2224
 2717TIP3   OH229641   4.229   4.977   5.041 -0.1683  0.4871  0.0148
 2717TIP3    H129642   4.323   4.995   5.037  0.2657 -1.3494  0.9011
 2717TIP3    H229643   4.223   4.884   5.060 -2.2136 -0.1364 -2.9490
 2718TIP3   OH229644   4.128   5.239   3.736  0.1521 -0.2203 -0.3791
 2718TIP3    H129645   4.045   5.244   3.690  0.0725  0.5494 -0.1758
 2718TIP3    H229646   4.157   5.331   3.743 -0.7134 -0.0654  2.6347
 2719TIP3   OH229647   1.525   2.612   2.800 -0.3337 -0.2430  0.0380
 2719TIP3    H129648   1.557   2.578   2.716  1.9625  2.7087 -0.4612
 2719TIP3    H229649   1.450   2.666   2.777 -0.5201 -0.4987  0.0507
 2720TIP3   OH229650   1.068   6.047  12.467 -0.4862 -0.1467  0.1273
 2720TIP3    H129651   0.977   6.053  12.497 -1.0954 -3.6042 -0.7127
 2720TIP3    H229652   1.074   5.964  12.421  3.1702 -0.1066  0.2200
 2721TIP3   OH229653   4.475   6.106  12.447 -0.3663  0.2587 -0.2431
 2721TIP3    H129654   4.417   6.060  12.386 -1.6926  0.2412  0.9770
 2721TIP3    H229655   4.563   6.088  12.415 -0.9586 -1.1213 -1.1866
 2722TIP3   OH229656   4.852   1.918   3.962  0.0143 -0.0675  0.0070
 2722TIP3    H129657   4.868   1.905   4.056  1.3441 -1.8530 -0.4029
 2722TIP3    H229658   4.808   2.002   3.956 -1.9667 -0.8154  2.4013
 2723TIP3   OH229659   1.533   6.615   3.013 -0.2713  0.4451 -0.0725
 2723TIP3    H129660   1.515   6.544   3.075  0.8216  0.7930  0.6715
 2723TIP3    H229661   1.448   6.654   2.996 -0.6863 -0.1281  0.6387
 2724TIP3   OH229662   3.229   4.629  12.232  0.5252  0.6941  0.2470
 2724TIP3    H129663   3.180   4.701  12.193 -0.4291 -1.0624 -1.9839
 2724TIP3    H229664   3.173   4.552  12.220  1.9137 -0.6271  1.6840
 2725TIP3   OH229665   3.552   2.318  14.202  1.1523  0.1432  0.8386
 2725TIP3    H129666   3.489   2.301  14.271 -0.2339 -2.8390 -0.9665
 2725TIP3    H229667   3.614   2.246  14.208  1.3017  0.1157 -0.6804
 2726TIP3   OH229668   2.400   5.122  16.451 -0.0677  0.5677  0.3017
 2726TIP3    H129669   2.381   5.215  16.464  2.1841  1.1465 -0.0312
 2726TIP3    H229670   2.475   5.122  16.391  0.1754 -1.4520  0.5556
 2727TIP3   OH229671   4.230   1.816   5.994  0.4222 -0.2551  0.2613
 2727TIP3    H129672   4.251   1.881   6.061  0.1950 -1.4676  1.5487
 2727TIP3    H229673   4.288   1.742   6.014  0.2673 -0.6799 -0.8237
 2728TIP3   OH229674   1.716   4.171   3.902 -0.1280  0.2721  0.3997
 2728TIP3    H129675   1.779   4.174   3.830  0.4371 -1.5008  0.7615
 2728TIP3    H229676   1.690   4.079   3.907 -2.0133  0.7864  0.9067
 2729TIP3   OH229677   4.884   1.986  13.439  0.2584  0.5554  0.3230
 2729TIP3    H129678   4.887   2.009  13.347  0.9847  1.3221  0.5254
 2729TIP3    H229679   4.964   1.934  13.454  0.0665  0.3022  0.4881
 2730TIP3   OH229680   1.945   3.921   1.912  0.6617  0.1070  0.0332
 2730TIP3    H129681   1.941   3.847   1.974 -1.0730 -0.1293 -0.3156
 2730TIP3    H229682   1.866   3.972   1.930 -0.1705 -0.2324 -2.2845
 2731TIP3   OH229683   3.266   1.075  14.604 -0.3268  0.0667 -0.1608
 2731TIP3    H129684   3.346   1.060  14.554 -0.4471  1.6452 -0.8793
 2731TIP3    H229685   3.245   0.990  14.642  1.7464 -0.3630  0.1270
 2732TIP3   OH229686   3.075   6.427   5.671 -0.1362 -0.5841 -0.7178
 2732TIP3    H129687   3.076   6.511   5.625 -1.9793  0.5692  1.1454
 2732TIP3    H229688   3.148   6.432   5.733 -0.2539 -0.3356 -0.5971
 2733TIP3   OH229689   2.053   3.272   0.274  0.0893  0.7110  0.4061
 2733TIP3    H129690   1.981   3.301   0.329 -0.9660  0.4834 -0.8105
 2733TIP3    H229691   2.114   3.229   0.334 -0.9005  0.7055  1.4267
 2734TIP3   OH229692   3.235   4.768   2.057  0.1241 -0.1774  0.2189
 2734TIP3    H129693   3.148   4.792   2.025 -0.1866 -1.4651  0.0363
 2734TIP3    H229694   3.285   4.850   2.055 -1.8241  1.2545  2.9599
 2735TIP3   OH229695   3.403   0.168   3.968  0.2929 -0.1932  0.3308
 2735TIP3    H129696   3.431   0.211   3.887  0.6468  1.4843  1.3078
 2735TIP3    H229697   3.401   0.075   3.945 -1.2378  0.3425 -2.0606
 2736TIP3   OH229698   0.270   5.221   2.623  0.1446  0.1114  0.4906
 2736TIP3    H129699   0.202   5.287   2.637  0.5146  0.6080 -0.0390
 2736TIP3    H229700   0.223   5.146   2.587  0.0542  0.9531 -1.2689
 2737TIP3   OH229701   0.844   4.674   5.577 -0.3226  0.0346 -0.0013
 2737TIP3    H129702   0.904   4.646   5.646  1.3252 -0.8688 -1.6932
 2737TIP3    H229703   0.899   4.723   5.516 -1.3791 -0.4496 -1.4014
 2738TIP3   OH229704   2.308   2.177   3.989  0.2185  0.3068 -0.3083
 2738TIP3    H129705   2.265   2.100   3.953 -1.6499 -0.1769  2.6498
 2738TIP3    H229706   2.401   2.161   3.976 -0.1979 -1.8752 -0.8684
 2739TIP3   OH229707   0.601   5.796   3.884  0.2039  0.0287  1.2422
 2739TIP3    H129708   0.510   5.801   3.854  0.2785 -0.0533  0.9945
 2739TIP3    H229709   0.635   5.884   3.870  1.1622 -0.7239 -1.9636
 2740TIP3   OH229710   0.343   0.325  11.511  0.2487 -0.1717 -0.1805
 2740TIP3    H129711   0.347   0.238  11.550 -0.2777 -0.7255 -1.2997
 2740TIP3    H229712   0.378   0.312  11.422 -1.1784  0.4418 -0.8582
 2741TIP3   OH229713   6.293   3.676  16.126  0.3565 -0.1257 -0.1957
 2741TIP3    H129714   6.318   3.684  16.218 -0.1925  0.7889 -0.1072
 2741TIP3    H229715   6.208   3.719  16.120  0.0297 -0.8436 -0.9942
 2742TIP3   OH229716   6.081   0.683  13.570  0.5350  0.1304  0.3421
 2742TIP3    H129717   6.056   0.751  13.633  0.8921  0.2385  0.3660
 2742TIP3    H229718   6.040   0.711  13.488 -0.2919 -0.2340  0.6143
 2743TIP3   OH229719   1.672   2.111  11.197 -0.2045  0.5090 -1.0129
 2743TIP3    H129720   1.659   2.202  11.169  1.7100  0.9536 -0.6413
 2743TIP3    H229721   1.587   2.083  11.230 -0.9941  1.9437 -1.7491
 2744TIP3   OH229722   5.837   1.943   1.091 -0.2705 -0.2366 -0.3263
 2744TIP3    H129723   5.758   1.889   1.080  0.2835 -0.8799 -1.3534
 2744TIP3    H229724   5.845   1.990   1.008  1.7625 -2.0409 -1.2560
 2745TIP3   OH229725   5.662   6.704   1.306  0.3163  0.0733 -0.0010
 2745TIP3    H129726   5.712   6.635   1.349  1.7546  0.2582 -1.3076
 2745TIP3    H229727   5.573   6.669   1.300  1.4215 -2.7120 -2.6912
 2746TIP3   OH229728   2.123   3.761  15.910 -0.0899 -0.4459 -0.0373
 2746TIP3    H129729   2.157   3.729  15.993  2.5773  0.3953 -0.6925
 2746TIP3    H229730   2.069   3.837  15.933  2.1466  0.9688  0.8942
 2747TIP3   OH229731   5.147   4.804  13.451 -0.5111  1.0245 -0.1348
 2747TIP3    H129732   5.232   4.795  13.410  0.1476 -1.5132  1.5812
 2747TIP3    H229733   5.149   4.891  13.491  2.3331  0.1884  1.9023
 2748TIP3   OH229734   2.569   5.918  15.129  0.4030  0.2865 -0.2954
 2748TIP3    H129735   2.568   5.875  15.043  2.6389 -0.2150 -0.1390
 2748TIP3    H229736   2.588   5.847  15.191 -0.0469  0.8285  0.4750
 2749TIP3   OH229737   3.248   4.236  12.315 -0.0368 -0.1280  0.7522
 2749TIP3    H129738   3.199   4.270  12.240  0.2433 -1.9846 -0.3285
 2749TIP3    H229739   3.183   4.229  12.385 -1.2748 -2.0368 -0.4956
 2750TIP3   OH229740   6.266   6.397   5.020  0.5717  0.1835  0.0852
 2750TIP3    H129741   6.208   6.322   5.032  3.1629 -1.6472  2.3128
 2750TIP3    H229742   6.212   6.473   5.042 -1.4555 -1.2056  0.2039
 2751TIP3   OH229743   0.025   1.381  15.096 -0.3971 -0.0681  0.1202
 2751TIP3    H129744   0.062   1.456  15.142 -0.5254 -1.1621  2.1504
 2751TIP3    H229745   0.098   1.344  15.047 -0.1726  0.9610 -0.3375
 2752TIP3   OH229746   1.938   2.081  11.197 -0.2248 -0.1906  0.2382
 2752TIP3    H129747   1.969   2.139  11.128  0.3061 -0.4966  0.2145
 2752TIP3    H229748   1.843   2.096  11.200 -0.4301 -0.9217 -1.2681
 2753TIP3   OH229749   4.681   3.617  12.896 -0.0088 -0.1573  0.0708
 2753TIP3    H129750   4.648   3.666  12.971  0.8510  1.8588 -0.8154
 2753TIP3    H229751   4.750   3.671  12.860  0.6771 -1.8308 -1.2584
 2754TIP3   OH229752   3.466   3.365   4.170  0.1927 -0.3658 -0.1991
 2754TIP3    H129753   3.424   3.443   4.134 -1.1922 -0.7060  0.5979
 2754TIP3    H229754   3.401   3.295   4.158  1.3420 -1.3785 -0.7639
 2755TIP3   OH229755   4.263   4.763  14.193 -0.2242  0.0912  0.2854
 2755TIP3    H129756   4.277   4.846  14.148 -1.5600 -0.1952 -0.6948
 2755TIP3    H229757   4.346   4.716  14.182 -0.4452  0.0991 -1.7414
 2756TIP3   OH229758   2.185   0.471  11.911 -0.5874 -0.3052 -0.3533
 2756TIP3    H129759   2.280   0.480  11.915 -0.6714  0.6949 -0.4776
 2756TIP3    H229760   2.157   0.535  11.846 -1.3846 -0.3149 -0.0330
 2757TIP3   OH229761   5.707   2.261   1.064 -0.1768 -0.6385 -0.1471
 2757TIP3    H129762   5.735   2.202   0.994 -0.9806  0.7666 -1.7320
 2757TIP3    H229763   5.612   2.246   1.071 -0.2626 -0.0703 -0.0508
 2758TIP3   OH229764   0.067   5.428  11.125  0.1370  0.0365  0.1484
 2758TIP3    H129765  -0.014   5.428  11.176 -0.9750  0.8638 -1.4857
 2758TIP3    H229766   0.071   5.516  11.087  0.6072 -0.6821 -1.5762
 2759TIP3   OH229767   1.639   3.392  14.541  0.0613  0.0461  0.1221
 2759TIP3    H129768   1.594   3.408  14.458 -0.8057 -0.3934  0.4995
 2759TIP3    H229769   1.672   3.478  14.567 -0.4921  0.3577 -0.1959
 2760TIP3   OH229770   3.099   3.233   1.497 -0.4307  0.0133  0.2329
 2760TIP3    H129771   3.184   3.266   1.468 -1.0247 -0.6290 -2.5311
 2760TIP3    H229772   3.117   3.144   1.528 -0.1072 -0.3080 -0.8120
 2761TIP3   OH229773   2.358   5.058  13.749 -0.5679 -0.2752  0.4062
 2761TIP3    H129774   2.302   5.041  13.673 -0.5524  1.5070 -0.0319
 2761TIP3    H229775   2.434   5.103  13.712 -0.1350 -0.2041  1.3688
 2762TIP3   OH229776   2.330   5.590  10.881  0.0552  0.1255 -0.3012
 2762TIP3    H129777   2.334   5.558  10.791  2.1789 -2.0481  0.4638
 2762TIP3    H229778   2.319   5.511  10.934  0.1963  1.2289  1.4413
 2763TIP3   OH229779   1.732   0.854  14.474  0.0108 -0.5348  0.8138
 2763TIP3    H129780   1.691   0.847  14.560 -0.5775 -1.7812  0.4535
 2763TIP3    H229781   1.680   0.798  14.418 -0.1699  0.9830 -0.5986
 2764TIP3   OH229782   6.802   3.358  14.108  0.4529  0.2841 -0.2773
 2764TIP3    H129783   6.707   3.345  14.107  0.2236  1.7512 -1.1498
 2764TIP3    H229784   6.833   3.326  14.024  0.3417  2.0612 -1.0420
 2765TIP3   OH229785   4.322   6.137  14.256  0.1419  0.4855 -0.1837
 2765TIP3    H129786   4.246   6.123  14.200  0.0164  0.9749 -0.1444
 2765TIP3    H229787   4.394   6.093  14.212 -0.2126 -0.1757 -0.1077
 2766TIP3   OH229788   1.358   5.661   4.697  0.0594 -0.2760  0.1720
 2766TIP3    H129789   1.411   5.637   4.773 -1.8211 -2.3999  0.9492
 2766TIP3    H229790   1.385   5.599   4.629 -0.1760 -0.1861 -0.0036
 2767TIP3   OH229791   0.903   4.462  13.128 -0.2740 -0.2406  0.1093
 2767TIP3    H129792   0.921   4.376  13.166 -2.2477 -0.0948  1.5337
 2767TIP3    H229793   0.901   4.447  13.033  3.7168 -0.8287 -0.0525
 2768TIP3   OH229794   5.294   3.531   0.636  0.7337 -0.3742  0.1944
 2768TIP3    H129795   5.224   3.596   0.634 -0.8311 -1.9986 -1.8015
 2768TIP3    H229796   5.338   3.547   0.720 -2.1459  0.5790  1.6770
 2769TIP3   OH229797   0.255   5.655  14.973  0.7127 -0.1495  0.5334
 2769TIP3    H129798   0.230   5.691  14.888 -0.2060  1.4201  1.4248
 2769TIP3    H229799   0.203   5.575  14.981  0.3300  0.0258 -0.1001
 2770TIP3   OH229800   5.418   4.065   2.702 -0.3610 -0.2445 -0.2595
 2770TIP3    H129801   5.434   4.008   2.627  0.7398 -2.8043  1.7505
 2770TIP3    H229802   5.506   4.088   2.733 -0.7965  0.6348  0.3576
 2771TIP3   OH229803   3.395   0.478  13.641  0.2494  0.1279  0.1716
 2771TIP3    H129804   3.466   0.509  13.585  1.2104 -0.4847  0.9993
 2771TIP3    H229805   3.409   0.524  13.724  0.8256 -1.3594  0.9437
 2772TIP3   OH229806   2.849   6.067   4.656 -0.1775  0.2290 -0.4284
 2772TIP3    H129807   2.939   6.045   4.631  0.0434  1.1718 -0.4817
 2772TIP3    H229808   2.858   6.111   4.740 -0.7314 -0.9918  0.2944
 2773TIP3   OH229809   2.120   3.907  13.068 -0.0753 -0.2353 -0.0950
 2773TIP3    H129810   2.175   3.870  12.999  3.1709 -0.4747  2.3736
 2773TIP3    H229811   2.150   3.998  13.077 -0.6508 -0.1095  0.7477
 2774TIP3   OH229812   4.911   5.790  16.905 -0.1263 -0.3116  0.0371
 2774TIP3    H129813   4.941   5.825  16.990 -2.6536  0.5857  0.6646
 2774TIP3    H229814   4.923   5.696  16.912  2.6337 -0.0462  0.0964
 2775TIP3   OH229815   4.589   2.013   4.386  0.6238  0.8871  0.3678
 2775TIP3    H129816   4.506   2.035   4.343 -0.4800 -1.8517  0.8228
 2775TIP3    H229817   4.626   2.097   4.413 -0.8080  2.3735 -1.9553
 2776TIP3   OH229818   5.666   3.746  13.941 -0.2857  0.3421 -0.3367
 2776TIP3    H129819   5.695   3.690  14.013 -1.0396  0.0668 -0.2352
 2776TIP3    H229820   5.746   3.789  13.910  0.0133  0.6593  0.8191
 2777TIP3   OH229821   3.329   3.446  11.412 -0.1882 -0.6227  0.0536
 2777TIP3    H129822   3.309   3.401  11.330 -1.7429 -0.5650  0.3789
 2777TIP3    H229823   3.343   3.537  11.386 -2.7540 -0.1683  0.0507
 2778TIP3   OH229824   5.580   2.075   0.082  0.0110  0.1942 -0.1484
 2778TIP3    H129825   5.536   2.140   0.138  1.2271 -1.7912  3.4487
 2778TIP3    H229826   5.512   2.013   0.059 -0.5203  1.0693 -1.0328
 2779TIP3   OH229827   5.035   5.796   0.600  0.3068  0.1491 -0.1460
 2779TIP3    H129828   4.979   5.726   0.568 -0.4382  0.7435 -0.1634
 2779TIP3    H229829   4.976   5.853   0.649  0.7721  1.1082 -0.6733
 2780TIP3   OH229830   0.046   1.165  10.389 -0.1649  0.1472 -0.0073
 2780TIP3    H129831   0.043   1.144  10.483 -0.6824 -0.1690 -0.0894
 2780TIP3    H229832  -0.034   1.127  10.354  0.1072  0.1274 -0.6118
 2781TIP3   OH229833   1.286   1.079   3.843 -0.5185 -0.2513  0.1476
 2781TIP3    H129834   1.200   1.114   3.868 -0.4821  0.7883 -1.0797
 2781TIP3    H229835   1.281   1.070   3.747 -0.0551 -2.3949  0.2751
 2782TIP3   OH229836   1.230   3.224   1.405  0.0542  0.0215 -0.1542
 2782TIP3    H129837   1.317   3.257   1.382  0.5624 -0.2487  1.2545
 2782TIP3    H229838   1.207   3.271   1.485  0.3812 -2.2207  1.3619
 2783TIP3   OH229839   1.880   2.949  12.387 -0.2049  0.0831 -0.2942
 2783TIP3    H129840   1.846   3.037  12.368  0.5209  0.5906  0.6613
 2783TIP3    H229841   1.976   2.959  12.383 -0.0682 -0.3202  1.1751
 2784TIP3   OH229842   5.973   0.978  15.520 -0.3558 -0.0732 -0.3401
 2784TIP3    H129843   5.988   0.890  15.555 -2.5490 -0.7587 -0.9333
 2784TIP3    H229844   6.009   0.975  15.431  1.1587  0.2244  0.2421
 2785TIP3   OH229845   0.500   5.592  17.165 -0.2886 -0.4032 -0.2766
 2785TIP3    H129846   0.536   5.513  17.205  0.7252  0.6687  1.0362
 2785TIP3    H229847   0.576   5.647  17.148 -1.1053  1.1819  0.8945
 2786TIP3   OH229848   5.845   5.985  13.040 -0.4207 -0.0452 -0.9061
 2786TIP3    H129849   5.807   6.008  13.125  0.6981  0.2931 -0.4790
 2786TIP3    H229850   5.774   5.941  12.993 -1.3400  0.5854 -0.1519
 2787TIP3   OH229851   6.304   0.672  16.760 -0.6397 -0.0374  0.0621
 2787TIP3    H129852   6.282   0.734  16.690 -1.6301  1.1176  1.3240
 2787TIP3    H229853   6.355   0.724  16.822  1.2723 -1.3573 -0.3248
 2788TIP3   OH229854   1.650   6.069   2.627 -0.1428  0.4605  0.0518
 2788TIP3    H129855   1.706   6.106   2.558 -1.0107  1.2130 -0.2705
 2788TIP3    H229856   1.705   6.069   2.705  1.5348 -2.2324 -1.0063
 2789TIP3   OH229857   2.760   6.304   3.501 -0.3779  0.7026 -0.6707
 2789TIP3    H129858   2.849   6.332   3.477 -0.3511  0.0383 -1.3786
 2789TIP3    H229859   2.763   6.297   3.597  0.1827  1.1775 -0.6442
 2790TIP3   OH229860   4.957   0.560  11.907  0.5183 -0.4611  0.4328
 2790TIP3    H129861   5.016   0.621  11.864  0.9786 -0.6727  0.7464
 2790TIP3    H229862   4.983   0.562  11.999  1.7790 -2.4687  0.1786
 2791TIP3   OH229863   2.132   2.427  13.368  0.0974  0.6177  0.6520
 2791TIP3    H129864   2.180   2.468  13.296 -0.0954  1.5682  1.0416
 2791TIP3    H229865   2.079   2.360  13.326 -0.5385  1.6141 -0.2080
 2792TIP3   OH229866   4.686   1.466   4.611 -0.0369  0.6449 -0.5976
 2792TIP3    H129867   4.768   1.457   4.562  0.7503  1.7769  0.4674
 2792TIP3    H229868   4.671   1.560   4.615 -0.4380  0.5406  0.7522
 2793TIP3   OH229869   1.834   5.595   5.091 -0.3329 -0.7804 -0.5513
 2793TIP3    H129870   1.877   5.566   5.171  0.5386  1.7137 -0.0029
 2793TIP3    H229871   1.775   5.524   5.067 -0.9657 -1.4378  2.5436
 2794TIP3   OH229872   3.775   1.979   4.240  0.0868 -0.2381  0.0259
 2794TIP3    H129873   3.845   1.982   4.306  0.8686 -1.6368 -0.6861
 2794TIP3    H229874   3.707   1.925   4.279 -0.6761  1.1818  0.7481
 2795TIP3   OH229875   1.608   5.979   0.856 -0.4451 -0.0062  0.1649
 2795TIP3    H129876   1.576   6.034   0.785 -0.2082 -0.5058 -0.3368
 2795TIP3    H229877   1.540   5.912   0.867 -0.4969  0.0883  0.4330
 2796TIP3   OH229878   4.252   2.990  13.784  0.1380  0.3945  0.1187
 2796TIP3    H129879   4.347   2.989  13.768  0.1434  0.2331  0.1669
 2796TIP3    H229880   4.219   2.911  13.741 -0.2457  1.4321 -1.6095
 2797TIP3   OH229881   2.962   5.722   3.669  0.1606  0.9202  1.2950
 2797TIP3    H129882   2.962   5.730   3.574 -1.2647  0.1544  1.2048
 2797TIP3    H229883   2.876   5.755   3.696 -0.5051 -1.2589  2.0581
 2798TIP3   OH229884   4.348   2.251   2.275  0.7475  0.3429 -0.2447
 2798TIP3    H129885   4.341   2.339   2.314  0.5889  0.8879 -1.4591
 2798TIP3    H229886   4.285   2.198   2.324 -0.1607  1.2492 -0.3968
 2799TIP3   OH229887   4.523   0.833   3.857 -0.5990  0.3274  0.2558
 2799TIP3    H129888   4.549   0.925   3.865  1.3360 -0.2674  1.2340
 2799TIP3    H229889   4.522   0.800   3.947  0.7971 -1.1275 -0.2092
 2800TIP3   OH229890   0.493   1.027   1.655 -0.0367 -0.5589 -0.3827
 2800TIP3    H129891   0.435   0.955   1.627  0.3562 -0.5742 -1.1844
 2800TIP3    H229892   0.472   1.099   1.594 -0.9300  0.2697  0.8427
 2801TIP3   OH229893   2.749   6.818   3.043  0.4390  0.0363 -0.8168
 2801TIP3    H129894   2.746   6.776   2.956 -2.5894  1.2971 -1.4482
 2801TIP3    H229895   2.758   6.911   3.024  1.0725  0.2248  0.3189
 2802TIP3   OH229896   5.617   0.089   4.072  0.2220  0.4870  0.0468
 2802TIP3    H129897   5.568   0.008   4.058  1.1771 -0.1437  0.3204
 2802TIP3    H229898   5.671   0.097   3.993  0.2315  0.7905  0.0839
 2803TIP3   OH229899   6.339   2.074  12.576  0.6971  0.4830 -0.1069
 2803TIP3    H129900   6.336   2.048  12.484  1.9893  0.2540 -0.1076
 2803TIP3    H229901   6.339   1.991  12.624  0.3964  0.5933  0.0820
 2804TIP3   OH229902   0.494   0.003  11.035 -0.2163 -0.1476 -0.6251
 2804TIP3    H129903   0.520  -0.008  10.944  0.3533 -0.4550 -0.4358
 2804TIP3    H229904   0.543   0.080  11.065  0.0904 -0.4229 -0.4080
 2805TIP3   OH229905   5.102   3.795  11.687  0.6351  0.9023 -0.1311
 2805TIP3    H129906   5.051   3.748  11.621  0.1582 -0.2785  1.0122
 2805TIP3    H229907   5.045   3.796  11.765  2.1819 -0.1433  1.0795
 2806TIP3   OH229908   6.400   0.880  13.684  0.7508  0.4805 -0.4319
 2806TIP3    H129909   6.488   0.890  13.647  0.8928 -2.2579 -1.0245
 2806TIP3    H229910   6.413   0.828  13.763 -0.3063  0.3727 -0.3151
 2807TIP3   OH229911   1.280   6.554   1.607 -0.7472 -0.3277  0.1111
 2807TIP3    H129912   1.204   6.509   1.644  1.3787 -1.9952  2.8209
 2807TIP3    H229913   1.323   6.488   1.553 -0.2434  0.0538  0.0417
 2808TIP3   OH229914   6.339   3.624  17.144  0.3922  0.1195 -0.2906
 2808TIP3    H129915   6.272   3.563  17.176 -0.0674  1.4755  1.5100
 2808TIP3    H229916   6.373   3.583  17.065 -0.7099 -1.8957  0.2057
 2809TIP3   OH229917   0.782   5.942  10.761 -0.1615  0.2632  0.0528
 2809TIP3    H129918   0.781   6.027  10.804  1.2915 -0.0584  0.7771
 2809TIP3    H229919   0.694   5.933  10.724 -0.3476  2.0455 -0.0024
 2810TIP3   OH229920   2.314   2.681  15.927 -0.5092 -0.5572  0.0764
 2810TIP3    H129921   2.406   2.671  15.901 -0.7791 -0.7399 -0.8614
 2810TIP3    H229922   2.280   2.749  15.869 -0.5700  0.6758  1.5069
 2811TIP3   OH229923   5.630   3.197   3.577 -0.3088  0.5964  0.3016
 2811TIP3    H129924   5.689   3.189   3.502  1.5897  0.4775  1.7397
 2811TIP3    H229925   5.584   3.114   3.580  1.5423 -0.4776  0.7843
 2812TIP3   OH229926   6.565   6.164  16.808 -0.1526 -0.2720  0.4002
 2812TIP3    H129927   6.582   6.121  16.892 -0.5264  0.8318  1.0636
 2812TIP3    H229928   6.523   6.097  16.755 -0.6626 -0.7697  1.3875
 2813TIP3   OH229929   5.035   6.792   0.467  0.0292  0.1348 -0.2842
 2813TIP3    H129930   5.129   6.779   0.480  0.5464  0.4986 -2.9697
 2813TIP3    H229931   5.003   6.707   0.436 -0.3117  0.2803 -0.3356
 2814TIP3   OH229932   1.934   0.256  12.489 -0.2274  0.4020  0.2338
 2814TIP3    H129933   1.981   0.311  12.427  0.9902 -0.9285 -0.0681
 2814TIP3    H229934   1.919   0.312  12.565  0.3975  1.3325 -0.3142
 2815TIP3   OH229935   2.720   2.352  13.125  0.3396  0.2943  0.1884
 2815TIP3    H129936   2.761   2.322  13.044 -0.6063  1.7788 -0.8882
 2815TIP3    H229937   2.792   2.363  13.187  1.2285  0.3061 -0.8270
 2816TIP3   OH229938   1.200   2.716  16.551 -0.1117 -0.0957 -0.0205
 2816TIP3    H129939   1.192   2.803  16.591 -0.6339 -0.2535  0.2285
 2816TIP3    H229940   1.289   2.713  16.517 -0.3413  0.8322 -0.7336
 2817TIP3   OH229941   1.886   4.819  12.008 -0.4327 -0.1731 -0.1217
 2817TIP3    H129942   1.947   4.751  11.981 -1.1974 -0.6850 -0.5847
 2817TIP3    H229943   1.913   4.897  11.960  0.7762  0.0144  0.8056
 2818TIP3   OH229944   1.162   5.914   0.299  0.1116 -0.1272 -0.1393
 2818TIP3    H129945   1.076   5.896   0.261  0.5554 -0.3137 -1.1004
 2818TIP3    H229946   1.219   5.925   0.223  0.6652  1.3509  0.4575
 2819TIP3   OH229947   1.107   1.328   4.522 -0.0646 -0.1700  0.2616
 2819TIP3    H129948   1.078   1.386   4.593  0.2958  2.1292 -1.3487
 2819TIP3    H229949   1.197   1.305   4.545  0.2384  1.0040  0.3055
 2820TIP3   OH229950   3.287   3.911   1.090 -0.2023 -0.3294 -0.0771
 2820TIP3    H129951   3.289   3.900   1.185  0.8583  2.7995  0.3829
 2820TIP3    H229952   3.278   4.005   1.077  1.9562 -0.3917 -3.0583
 2821TIP3   OH229953   4.790   6.017   4.132  0.5652  0.3915  0.0179
 2821TIP3    H129954   4.726   6.020   4.204  0.7211  1.8150  0.1220
 2821TIP3    H229955   4.824   6.106   4.127  3.5622 -0.5886  0.8726
 2822TIP3   OH229956   4.432   0.685  13.824 -0.3534 -0.1865 -0.3930
 2822TIP3    H129957   4.416   0.636  13.905 -0.8641 -1.0497 -1.0029
 2822TIP3    H229958   4.461   0.771  13.854 -1.5593 -0.1410  0.7142
 2823TIP3   OH229959   6.271   0.073  16.953 -0.0936  0.1564 -0.2821
 2823TIP3    H129960   6.332   0.133  16.996  2.1020 -0.7106 -1.9863
 2823TIP3    H229961   6.246   0.012  17.022 -0.8228  1.7863  0.9938
 2824TIP3   OH229962   6.591   3.782   4.488  0.0045 -0.2348 -0.5411
 2824TIP3    H129963   6.498   3.790   4.510 -0.7511 -1.1656 -3.0469
 2824TIP3    H229964   6.593   3.716   4.419  2.4002  0.6262 -1.3681
 2825TIP3   OH229965   4.200   3.410   5.762 -0.0708 -0.8578 -0.0822
 2825TIP3    H129966   4.113   3.447   5.745  1.3071  3.0979  0.3474
 2825TIP3    H229967   4.251   3.433   5.685  1.5792  0.6922  1.3915
 2826TIP3   OH229968   3.236   4.637  15.397  0.3725 -0.1802 -0.8846
 2826TIP3    H129969   3.323   4.664  15.428  0.7565 -0.3377 -1.7925
 2826TIP3    H229970   3.252   4.554  15.352 -0.2207 -0.1102 -1.2319
 2827TIP3   OH229971   2.017   5.344  14.278 -0.4204 -0.6669 -0.0766
 2827TIP3    H129972   2.080   5.401  14.234 -0.0533 -1.1760 -0.2134
 2827TIP3    H229973   1.939   5.347  14.222 -0.4998 -0.0982  0.0542
 2828TIP3   OH229974   6.195   0.081   6.278  0.1401 -0.5681  0.1507
 2828TIP3    H129975   6.241   0.161   6.253  0.4314 -0.7536  0.0919
 2828TIP3    H229976   6.264   0.017   6.292  0.0582 -0.3142  2.0678
 2829TIP3   OH229977   0.360   5.505   4.997  0.7080  0.1214 -0.3787
 2829TIP3    H129978   0.415   5.526   4.922  0.9298 -1.2179 -0.6255
 2829TIP3    H229979   0.295   5.444   4.963 -2.5811  3.5049 -0.6858
 2830TIP3   OH229980   4.825   6.788   0.197 -0.6939 -0.7910  0.1482
 2830TIP3    H129981   4.905   6.740   0.176 -0.2735 -0.2316  0.4515
 2830TIP3    H229982   4.755   6.723   0.187 -0.2911 -1.0907 -0.8469
 2831TIP3   OH229983   3.530   2.496  16.530 -0.8718 -0.4254  0.5352
 2831TIP3    H129984   3.547   2.409  16.567  1.4985  0.3001  1.3835
 2831TIP3    H229985   3.535   2.483  16.435  2.7153 -0.8181  0.6135
 2832TIP3   OH229986   1.154   5.109   1.188  0.1274 -0.4021 -0.5197
 2832TIP3    H129987   1.203   5.191   1.185  0.1586 -0.4058 -0.1409
 2832TIP3    H229988   1.208   5.048   1.136  0.8742 -0.5808  0.4248
 2833TIP3   OH229989   2.287   4.365   2.083  0.0730 -0.9037  0.5008
 2833TIP3    H129990   2.238   4.330   2.009  0.3574  0.0187 -0.1375
 2833TIP3    H229991   2.240   4.334   2.160 -1.3507 -0.2601 -0.0920
 2834TIP3   OH229992   0.326   4.269  12.075 -0.3438 -0.1114 -0.1172
 2834TIP3    H129993   0.352   4.181  12.050  0.1341 -0.1842  0.5971
 2834TIP3    H229994   0.410   4.315  12.088 -0.5864  0.4371 -0.4505
 2835TIP3   OH229995   6.158   5.588   0.040 -0.5796 -0.0499  0.3113
 2835TIP3    H129996   6.075   5.559   0.002 -0.2354 -0.4816 -0.1378
 2835TIP3    H229997   6.217   5.513   0.029 -0.3664 -0.0473  1.3834
 2836TIP3   OH229998   0.230   2.808  15.408  0.4376 -0.2059  0.2434
 2836TIP3    H129999   0.211   2.729  15.459 -1.2727 -0.3819 -0.5870
 2836TIP3    H230000   0.315   2.790  15.368 -0.5577 -2.3316 -1.1383
 2837TIP3   OH230001   0.035   5.379  12.289  0.4197 -0.0544 -0.1466
 2837TIP3    H130002   0.087   5.434  12.348 -0.6382 -0.1474  0.9214
 2837TIP3    H230003   0.005   5.307  12.344 -1.0187  0.1206 -0.6449
 2838TIP3   OH230004   5.317   6.089  16.720 -0.1259  0.1403 -0.1908
 2838TIP3    H130005   5.327   6.146  16.796  1.1308 -0.0393 -0.1978
 2838TIP3    H230006   5.281   6.008  16.755 -2.7217  1.1678 -0.3000
 2839TIP3   OH230007   3.203   3.044  14.282  0.0503  0.8477 -0.1445
 2839TIP3    H130008   3.268   3.038  14.213  0.9396 -1.2689  0.7842
 2839TIP3    H230009   3.171   2.954  14.294 -2.8489  1.7336 -0.3283
 2840TIP3   OH230010   5.346   5.319  15.256 -0.4397 -0.1025  0.4640
 2840TIP3    H130011   5.259   5.345  15.286  0.0628 -0.2499  2.1439
 2840TIP3    H230012   5.407   5.370  15.309  0.5166 -0.3854 -0.3172
 2841TIP3   OH230013   5.566   2.196  11.618  0.1468  0.1891 -0.2574
 2841TIP3    H130014   5.563   2.157  11.531  1.6486 -0.2677 -0.1373
 2841TIP3    H230015   5.646   2.249  11.618  0.1374  0.2268  0.8080
 2842TIP3   OH230016   0.983   4.170   5.750 -0.1475  0.2923 -0.0830
 2842TIP3    H130017   1.039   4.140   5.821 -0.8573 -1.2231 -0.1242
 2842TIP3    H230018   0.949   4.089   5.711 -0.6474  1.1249 -1.4303
 2843TIP3   OH230019   1.930   2.992   1.891 -0.0753 -0.5424  0.7065
 2843TIP3    H130020   1.953   2.959   1.804  1.4247 -1.5838  1.4459
 2843TIP3    H230021   1.897   2.915   1.938 -0.2986 -0.1189  1.2476
 2844TIP3   OH230022   4.111   2.794  14.634 -0.1894  0.4109 -0.6193
 2844TIP3    H130023   4.024   2.774  14.667 -0.8581  1.5324 -1.6378
 2844TIP3    H230024   4.109   2.888  14.616  0.4033  0.0428 -2.9618
 2845TIP3   OH230025   4.629   6.176  10.621  0.3924 -0.5659 -0.1081
 2845TIP3    H130026   4.664   6.212  10.702  0.9380 -0.7467 -0.2594
 2845TIP3    H230027   4.631   6.250  10.560  0.1785 -0.4846 -0.0192
 2846TIP3   OH230028   4.959   5.597  15.094 -0.0999  0.4550 -0.1186
 2846TIP3    H130029   4.926   5.676  15.136 -1.7910 -0.2742  0.0135
 2846TIP3    H230030   5.050   5.616  15.074 -0.0499  1.8720  1.2892
 2847TIP3   OH230031   4.269   6.310   4.746 -0.2156 -0.1677 -0.3009
 2847TIP3    H130032   4.186   6.355   4.730  0.8530  2.2114  0.2303
 2847TIP3    H230033   4.331   6.382   4.764  1.6042 -1.9229  0.8459
 2848TIP3   OH230034   5.302   0.834   1.431  0.1746 -0.2226  0.0297
 2848TIP3    H130035   5.278   0.926   1.420 -0.7515 -0.2009  1.9024
 2848TIP3    H230036   5.230   0.795   1.479  1.7367 -1.2872  1.6521
 2849TIP3   OH230037   4.820   6.421   5.637  0.6291  0.1853 -0.4213
 2849TIP3    H130038   4.915   6.422   5.625  0.8575 -1.1546  0.9319
 2849TIP3    H230039   4.806   6.471   5.718  0.3002 -0.4394 -0.0810
 2850TIP3   OH230040   6.111   3.493  14.083  0.1392  0.0247  0.7938
 2850TIP3    H130041   6.100   3.477  14.177 -1.6618 -0.3000  0.5722
 2850TIP3    H230042   6.066   3.575  14.067  1.4078  0.6637  0.3711
 2851TIP3   OH230043   4.021   5.453   0.281 -0.1638  0.1655 -0.1467
 2851TIP3    H130044   4.011   5.528   0.223  0.3295  0.2221 -0.1673
 2851TIP3    H230045   4.116   5.441   0.287 -0.2158  0.1006  0.5734
 2852TIP3   OH230046   6.747   4.884   3.911  0.0451 -0.3923 -0.7086
 2852TIP3    H130047   6.686   4.945   3.954  0.4857  0.6400 -1.4902
 2852TIP3    H230048   6.696   4.846   3.839 -0.5287 -1.7179  0.3575
 2853TIP3   OH230049   1.562   3.715  12.133 -0.4183  0.0534  0.1725
 2853TIP3    H130050   1.535   3.682  12.218 -0.1589  0.6519  0.4957
 2853TIP3    H230051   1.635   3.774  12.152  0.5270 -0.8394 -0.5909
 2854TIP3   OH230052   1.824   1.758  14.943  0.4219  0.2696  0.5314
 2854TIP3    H130053   1.829   1.805  15.026 -1.4386 -0.1946  0.9605
 2854TIP3    H230054   1.893   1.692  14.948  1.2366  1.1466  1.0970
 2855TIP3   OH230055   3.641   1.902  14.658 -1.0677  0.2961  0.2893
 2855TIP3    H130056   3.663   1.995  14.659 -0.0493  0.1538 -2.2201
 2855TIP3    H230057   3.549   1.899  14.685 -0.9009  1.9272  1.1714
 2856TIP3   OH230058   2.855   2.118  12.556  0.4600 -0.3688  0.2418
 2856TIP3    H130059   2.823   2.182  12.492 -1.3456 -1.5271 -0.1002
 2856TIP3    H230060   2.950   2.120  12.546  0.3353  0.9193 -1.0694
 2857TIP3   OH230061   3.034   0.945   2.965  0.2117 -0.7000 -0.3348
 2857TIP3    H130062   3.110   0.918   2.912 -0.4815  1.6929 -2.7809
 2857TIP3    H230063   3.044   1.040   2.974 -0.9696 -0.7209  1.9618
 2858TIP3   OH230064   2.798   5.399  16.352 -0.0970 -0.0663 -1.2832
 2858TIP3    H130065   2.884   5.360  16.369  0.5577  0.5668 -3.0019
 2858TIP3    H230066   2.800   5.482  16.400 -0.0461 -0.3795 -0.7271
 2859TIP3   OH230067   5.125   2.415  14.212 -0.2059  0.1854 -0.5872
 2859TIP3    H130068   5.054   2.452  14.265  0.6428 -0.2379  0.8958
 2859TIP3    H230069   5.106   2.322  14.208  0.1401  0.1031 -0.3731
 2860TIP3   OH230070   3.064   2.085  16.740  0.0880  0.6400  0.5702
 2860TIP3    H130071   3.129   2.016  16.721  1.5563  1.8520  0.9921
 2860TIP3    H230072   3.030   2.109  16.654 -0.0530 -0.2401  0.3678
 2861TIP3   OH230073   1.401   2.241  13.170  0.4087 -0.0597  0.3043
 2861TIP3    H130074   1.350   2.211  13.096  0.6797 -0.1959  0.1696
 2861TIP3    H230075   1.337   2.253  13.240  0.2496 -0.6484  0.2688
 2862TIP3   OH230076   6.451   6.031  11.261  0.1383  0.2525  0.0580
 2862TIP3    H130077   6.495   6.113  11.280 -2.4930  1.5492  0.9700
 2862TIP3    H230078   6.406   6.046  11.178  0.6969 -0.7873 -0.4677
 2863TIP3   OH230079   6.756   0.302  16.156 -0.0935 -0.2888 -0.1083
 2863TIP3    H130080   6.674   0.256  16.141 -0.2671  0.4040 -1.3730
 2863TIP3    H230081   6.820   0.233  16.173 -1.0590 -0.8022  1.6214
 2864TIP3   OH230082   3.469   2.192  16.235  0.9017  0.6062 -0.3810
 2864TIP3    H130083   3.374   2.204  16.235  0.7370 -0.5363  0.6149
 2864TIP3    H230084   3.482   2.099  16.217  1.7036  0.1816  2.0216
 2865TIP3   OH230085   4.479   4.474   3.231 -0.2815  0.1142 -0.2687
 2865TIP3    H130086   4.387   4.464   3.206 -0.6712 -0.5377  1.3342
 2865TIP3    H230087   4.527   4.435   3.158 -1.2449  0.7012 -1.2582
 2866TIP3   OH230088   2.460   5.513  14.458 -0.1097 -1.0768  0.4560
 2866TIP3    H130089   2.525   5.492  14.526  0.5193 -2.1690 -0.4450
 2866TIP3    H230090   2.507   5.570  14.397  0.1948 -2.2896 -0.4731
 2867TIP3   OH230091   5.845   2.432   4.091 -0.1703  0.4292 -0.2720
 2867TIP3    H130092   5.874   2.465   4.176 -1.4501 -1.0833  0.8084
 2867TIP3    H230093   5.849   2.508   4.033 -0.1596  1.7240  1.3601
 2868TIP3   OH230094   5.417   2.516   0.878  0.5184  0.2571 -0.6502
 2868TIP3    H130095   5.442   2.438   0.928 -0.2144  0.2779 -0.2397
 2868TIP3    H230096   5.494   2.572   0.881  1.0846 -0.4932 -1.0265
 2869TIP3   OH230097   6.619   4.521   2.716  0.2401  0.8573  0.6635
 2869TIP3    H130098   6.680   4.465   2.668 -1.4029 -1.5089  1.1619
 2869TIP3    H230099   6.675   4.581   2.765  2.1035 -0.3569  0.1263
 2870TIP3   OH230100   0.971   4.420   1.467  0.8380  0.0761 -0.4388
 2870TIP3    H130101   1.034   4.468   1.521  1.2549 -0.4008 -0.4840
 2870TIP3    H230102   0.905   4.390   1.529  1.2585 -0.3778 -0.1983
 2871TIP3   OH230103   1.387   2.402   4.973  0.6139  0.1672  0.2052
 2871TIP3    H130104   1.462   2.452   4.940 -1.0779  2.1015 -0.9904
 2871TIP3    H230105   1.359   2.350   4.898 -1.4205  2.3030 -0.6452
 2872TIP3   OH230106   1.680   2.873  13.629 -0.4601  0.1183  0.1861
 2872TIP3    H130107   1.744   2.907  13.692 -1.5892  2.6198  0.1166
 2872TIP3    H230108   1.710   2.784  13.610  2.6310  0.9325  0.6137
 2873TIP3   OH230109   1.769   3.453   5.619 -0.0437  0.4780  0.8343
 2873TIP3    H130110   1.674   3.458   5.606 -0.1778 -0.7499  1.1547
 2873TIP3    H230111   1.806   3.497   5.543 -0.8497  3.7205  2.1776
 2874TIP3   OH230112   5.521   3.536  17.164  0.1094 -0.2425  0.5401
 2874TIP3    H130113   5.430   3.511  17.176 -0.4946  0.6084 -1.6688
 2874TIP3    H230114   5.561   3.525  17.250 -2.2249 -0.0048  1.7324
 2875TIP3   OH230115   3.475   5.436   0.731  0.1503 -0.2362 -0.2363
 2875TIP3    H130116   3.471   5.522   0.688  0.7393 -0.6025 -1.0353
 2875TIP3    H230117   3.519   5.379   0.668 -1.9605 -1.6360 -0.5327
 2876TIP3   OH230118   5.177   4.290   5.239  0.7612  0.5892  0.0079
 2876TIP3    H130119   5.254   4.232   5.244  0.1306 -0.3260 -0.5252
 2876TIP3    H230120   5.140   4.288   5.327  0.3097 -0.4582 -0.1902
 2877TIP3   OH230121   0.959   5.455   2.364  0.3562  0.4369  0.7577
 2877TIP3    H130122   0.947   5.383   2.302  1.4979 -1.0298  2.1453
 2877TIP3    H230123   1.030   5.507   2.327  0.8805 -0.2994  0.7065
 2878TIP3   OH230124   5.432   4.599  12.814 -0.1776  0.7491 -0.6611
 2878TIP3    H130125   5.374   4.524  12.799  1.3426 -0.5059 -0.5781
 2878TIP3    H230126   5.456   4.629  12.727  0.9922 -0.3400 -0.7407
 2879TIP3   OH230127   1.386   1.142  15.838 -0.3121 -0.9058  0.0413
 2879TIP3    H130128   1.448   1.070  15.831  0.0972 -0.4616 -1.0356
 2879TIP3    H230129   1.438   1.221  15.822 -1.3218 -0.5880 -2.0130
 2880TIP3   OH230130   6.593   3.959   5.872 -0.0927  0.4684 -0.1086
 2880TIP3    H130131   6.501   3.958   5.844 -0.8426 -0.7518  2.1398
 2880TIP3    H230132   6.603   3.880   5.925  2.1515  0.8152  0.0912
 2881TIP3   OH230133   3.058   3.289  12.473  0.0007  0.0676  0.4927
 2881TIP3    H130134   2.999   3.350  12.517 -0.3654  0.1466 -0.0880
 2881TIP3    H230135   3.005   3.250  12.403  0.6779  0.2687 -0.1530
 2882TIP3   OH230136   2.709   5.126  11.355  0.2169 -0.8629 -0.0456
 2882TIP3    H130137   2.624   5.159  11.325 -0.7364 -1.8975  1.3626
 2882TIP3    H230138   2.765   5.203  11.360 -0.9203 -0.0121 -0.1177
 2883TIP3   OH230139   6.759   2.705   5.884 -0.2850 -0.0568  0.1657
 2883TIP3    H130140   6.830   2.690   5.946  0.0785  0.9232  0.0040
 2883TIP3    H230141   6.799   2.689   5.798 -0.2635  0.4409  0.0782
 2884TIP3   OH230142   5.423   1.474   1.078  0.7323 -0.2292 -0.0888
 2884TIP3    H130143   5.351   1.467   1.141  0.3835  2.6030  0.0011
 2884TIP3    H230144   5.384   1.453   0.993 -0.0093  0.4252  0.0763
 2885TIP3   OH230145   6.707   2.686  10.633 -0.2248  0.0184 -0.0077
 2885TIP3    H130146   6.642   2.617  10.647 -0.8552  0.6311  0.1368
 2885TIP3    H230147   6.782   2.640  10.595 -0.6384 -0.7443  0.0666
 2886TIP3   OH230148   5.963   3.229  12.466 -0.0329 -0.0631 -0.2668
 2886TIP3    H130149   6.040   3.277  12.436  1.0175 -0.7490  1.2378
 2886TIP3    H230150   5.979   3.138  12.439 -0.0496 -0.3091  0.5469
 2887TIP3   OH230151   6.194   1.910  13.170 -0.2160  0.4103  0.0650
 2887TIP3    H130152   6.187   1.856  13.249 -0.0089 -1.2155 -0.9837
 2887TIP3    H230153   6.144   1.988  13.191 -0.9392 -0.3737  1.4763
 2888TIP3   OH230154   0.213   4.880   3.903 -0.0155 -0.3187 -0.0749
 2888TIP3    H130155   0.204   4.801   3.956 -1.3547 -2.1588 -2.7786
 2888TIP3    H230156   0.124   4.911   3.890  0.4390  1.2575  0.3026
 2889TIP3   OH230157   6.072   0.101  11.711 -0.2529  0.2711  0.2817
 2889TIP3    H130158   6.070   0.193  11.685  0.9217 -0.1446 -1.4245
 2889TIP3    H230159   5.987   0.085  11.751  0.2036  2.5578  2.3798
 2890TIP3   OH230160   3.956   3.931  14.532 -0.3853  0.0641 -0.1276
 2890TIP3    H130161   4.030   3.960  14.586  0.2140 -1.4022 -0.1214
 2890TIP3    H230162   3.997   3.899  14.451 -1.1663  0.9152 -0.8788
 2891TIP3   OH230163   2.769   1.846   4.447  0.1747  0.1428  0.0395
 2891TIP3    H130164   2.736   1.931   4.418  0.3850  0.5557  0.9737
 2891TIP3    H230165   2.861   1.862   4.470 -0.4855  0.3706  2.9164
 2892TIP3   OH230166   0.668   0.377   0.837 -0.7149 -0.1524 -0.2264
 2892TIP3    H130167   0.662   0.299   0.783 -0.4399  0.9574 -1.9477
 2892TIP3    H230168   0.634   0.448   0.782 -2.0775  0.7907  1.6930
 2893TIP3   OH230169   1.233   3.414  16.165 -0.1082 -0.2160 -0.7131
 2893TIP3    H130170   1.314   3.397  16.116 -0.8991 -1.4127 -1.6542
 2893TIP3    H230171   1.247   3.370  16.249  1.3670  2.0740  0.3444
 2894TIP3   OH230172   1.587   5.988  11.142 -0.4112  0.2415 -0.6272
 2894TIP3    H130173   1.596   6.043  11.063 -1.7089 -0.5191 -1.3224
 2894TIP3    H230174   1.597   5.899  11.110 -0.6626 -0.0608  0.1271
 2895TIP3   OH230175   5.103   6.314  12.746  0.4481 -0.5952  0.5119
 2895TIP3    H130176   5.044   6.248  12.781 -1.2854  0.3261 -0.5615
 2895TIP3    H230177   5.063   6.341  12.664  0.8544  2.1257  1.1338
 2896TIP3   OH230178   3.871   1.431   0.640  0.1453 -0.0845  0.0134
 2896TIP3    H130179   3.907   1.518   0.621  1.4891 -0.4156  0.8935
 2896TIP3    H230180   3.861   1.430   0.735  0.6582 -1.0794  0.0674
 2897TIP3   OH230181   4.300   2.346  12.139  0.0270  0.5935  0.1857
 2897TIP3    H130182   4.302   2.284  12.212  0.7032  1.1348  0.6510
 2897TIP3    H230183   4.292   2.292  12.061 -0.9046  0.0129  0.6740
 2898TIP3   OH230184   6.597   3.169  16.133 -0.5844 -0.1357  0.7876
 2898TIP3    H130185   6.541   3.227  16.184 -2.4394 -0.1144 -1.1041
 2898TIP3    H230186   6.592   3.204  16.044  2.5828 -0.1006  0.5237
 2899TIP3   OH230187   5.256   2.485  13.946  0.0588 -0.3486  0.1926
 2899TIP3    H130188   5.238   2.449  14.033 -1.5378  0.9660  0.4406
 2899TIP3    H230189   5.316   2.558  13.962  0.3379 -0.5586  0.1071
 2900TIP3   OH230190   2.856   1.770  16.800  0.8794 -0.2590 -0.4181
 2900TIP3    H130191   2.895   1.743  16.884  2.2900  0.5143 -0.8038
 2900TIP3    H230192   2.843   1.864  16.809  1.8017 -0.0241 -1.3504
 2901TIP3   OH230193   1.115   4.679  13.188  0.1048 -0.2045 -0.1567
 2901TIP3    H130194   1.122   4.690  13.283 -0.4832  1.7379 -0.2925
 2901TIP3    H230195   1.042   4.618  13.176  0.3767 -0.6970  0.6372
 2902TIP3   OH230196   6.053   5.696  15.104 -0.1773  0.1056  0.3534
 2902TIP3    H130197   5.990   5.765  15.083 -0.0724 -0.1827 -0.9887
 2902TIP3    H230198   6.007   5.638  15.164  0.0049  1.7676  2.1870
 2903TIP3   OH230199   3.671   5.565  10.750 -0.5431  0.3678  0.4693
 2903TIP3    H130200   3.679   5.654  10.716  0.6774 -0.4772 -1.6798
 2903TIP3    H230201   3.621   5.574  10.832 -1.3912  2.8640 -0.2443
 2904TIP3   OH230202   5.354   3.097   4.375  0.0647  0.0347 -0.3850
 2904TIP3    H130203   5.292   3.155   4.420 -1.1666 -0.2665 -1.6238
 2904TIP3    H230204   5.308   3.071   4.295  1.5722 -0.6952 -1.0419
 2905TIP3   OH230205   0.672   6.661  14.307  0.3394 -0.4143 -0.1449
 2905TIP3    H130206   0.746   6.694  14.257  0.9982 -0.8217  0.5270
 2905TIP3    H230207   0.711   6.629  14.389 -0.5149 -1.0649  0.0240
 2906TIP3   OH230208   6.250   2.498   0.110  0.8845 -0.2662 -0.1035
 2906TIP3    H130209   6.156   2.479   0.111  1.1243 -1.5784 -0.1775
 2906TIP3    H230210   6.281   2.476   0.198  0.8787  1.6499  0.4149
 2907TIP3   OH230211   5.392   0.130   1.004 -0.7341 -0.1853  0.8429
 2907TIP3    H130212   5.460   0.123   1.071 -1.5562 -0.9268  1.6396
 2907TIP3    H230213   5.390   0.223   0.982  3.4554 -0.5715 -2.4308
 2908TIP3   OH230214   5.292   4.346  12.750  0.1165  0.3010  0.5340
 2908TIP3    H130215   5.379   4.308  12.735  0.1285  0.0644  1.1965
 2908TIP3    H230216   5.233   4.291  12.698  0.6233  1.9271 -1.9334
 2909TIP3   OH230217   3.314   1.660  14.700  0.6043  0.4921  0.3093
 2909TIP3    H130218   3.321   1.753  14.678 -1.2589  0.9322  1.3320
 2909TIP3    H230219   3.221   1.640  14.688  0.8926 -1.1231  0.5519
 2910TIP3   OH230220   2.221   2.138   5.398  0.2606  0.3914  0.4675
 2910TIP3    H130221   2.180   2.223   5.414  0.8372  0.8014 -0.1505
 2910TIP3    H230222   2.314   2.154   5.411  0.2394 -0.5229  1.8617
 2911TIP3   OH230223   1.964   0.469   2.684 -0.4493 -0.6886  0.2820
 2911TIP3    H130224   2.060   0.471   2.679 -0.5313  0.7520 -1.6621
 2911TIP3    H230225   1.944   0.499   2.772  0.8749 -1.1708  0.7754
 2912TIP3   OH230226   4.246   0.370  14.725  0.2341 -0.3674 -0.3761
 2912TIP3    H130227   4.251   0.454  14.679  0.7436  0.5040  1.1969
 2912TIP3    H230228   4.235   0.394  14.817  0.0620 -2.0414  0.0639
 2913TIP3   OH230229   5.676   0.378  16.035  0.8473  0.3644  0.2760
 2913TIP3    H130230   5.665   0.368  15.941 -2.7182 -1.7155  0.7485
 2913TIP3    H230231   5.635   0.462  16.056 -1.0352 -0.5033  0.2353
 2914TIP3   OH230232   1.503   3.158   3.131  0.5954  0.1645  0.2205
 2914TIP3    H130233   1.584   3.210   3.134  0.3980  0.4101  2.3866
 2914TIP3    H230234   1.502   3.110   3.213 -2.6134  1.9281  1.3800
 2915TIP3   OH230235   6.102   1.916   4.803 -0.3566  0.5974 -0.4006
 2915TIP3    H130236   6.158   1.849   4.764  0.2107  0.0094  1.3676
 2915TIP3    H230237   6.013   1.886   4.784 -0.1304  0.8100 -2.0023
 2916TIP3   OH230238   1.662   1.289  14.193 -0.2389  0.1450  0.1361
 2916TIP3    H130239   1.569   1.268  14.202  0.0766 -1.2104  0.3982
 2916TIP3    H230240   1.705   1.236  14.260  0.6530  1.4107  0.5963
 2917TIP3   OH230241   6.821   0.080  15.922 -0.2964  0.8273 -0.8528
 2917TIP3    H130242   6.814  -0.013  15.943  0.0804  0.9775 -0.0114
 2917TIP3    H230243   6.915   0.099  15.930 -0.4602  1.4286 -0.3291
 2918TIP3   OH230244   6.041   2.466   1.664  0.1984  0.5041  0.1747
 2918TIP3    H130245   6.026   2.438   1.754 -1.2497 -1.5378 -0.6253
 2918TIP3    H230246   6.060   2.385   1.616  1.6658  1.6156 -1.2504
 2919TIP3   OH230247   2.398   1.942   1.678  0.2035 -0.1081  0.4069
 2919TIP3    H130248   2.370   1.851   1.680  0.1027 -0.3567 -4.0837
 2919TIP3    H230249   2.320   1.992   1.701 -0.4393 -1.0930  0.4137
 2920TIP3   OH230250   4.080   4.286   4.981 -0.0182 -0.0113  0.0455
 2920TIP3    H130251   4.113   4.224   4.917 -1.9509 -1.0810 -0.0117
 2920TIP3    H230252   4.001   4.244   5.017  0.2454  1.1287  2.1546
 2921TIP3   OH230253   0.799   1.045   3.338  0.2941 -0.3063 -0.0079
 2921TIP3    H130254   0.892   1.067   3.348 -0.2322  1.5233  1.3365
 2921TIP3    H230255   0.762   1.058   3.425 -1.5487  0.7995 -0.8977
 2922TIP3   OH230256   6.504   0.749  13.913 -0.6732  0.1161 -0.2845
 2922TIP3    H130257   6.437   0.702  13.964 -0.7873 -0.0377 -0.5752
 2922TIP3    H230258   6.537   0.816  13.973 -1.7894  0.8476 -0.4561
 2923TIP3   OH230259   0.197   1.673  16.319  0.7091  0.0107  0.0647
 2923TIP3    H130260   0.157   1.671  16.406  2.6134  3.5151  1.2074
 2923TIP3    H230261   0.124   1.689  16.259 -0.3939 -0.3851  1.2653
 2924TIP3   OH230262   1.996   3.709   0.834  0.9611 -0.1731 -0.5418
 2924TIP3    H130263   1.960   3.688   0.920 -2.0449  0.6012 -1.4945
 2924TIP3    H230264   1.976   3.633   0.780  1.6118 -0.1009 -0.8931
 2925TIP3   OH230265   1.209   4.944  14.495  0.0904  0.2968  0.3135
 2925TIP3    H130266   1.259   4.893  14.432 -2.2779  0.2449 -1.6923
 2925TIP3    H230267   1.177   5.019  14.446 -2.5837 -0.1907  1.1409
 2926TIP3   OH230268   0.172   4.538  16.795 -0.0898  0.2822  0.6619
 2926TIP3    H130269   0.237   4.486  16.843 -0.2621 -2.0124 -1.3671
 2926TIP3    H230270   0.223   4.610  16.757  0.9923 -0.6066  0.3588
 2927TIP3   OH230271   1.423   4.823  11.260  0.0912 -0.4425  0.6656
 2927TIP3    H130272   1.507   4.826  11.305  0.9131  0.2118 -0.8336
 2927TIP3    H230273   1.398   4.915  11.247 -1.7560 -0.5929  2.6176
 2928TIP3   OH230274   2.517   2.298  15.118 -0.1934 -0.1458  0.0960
 2928TIP3    H130275   2.465   2.315  15.196 -2.7880 -1.8103 -1.1324
 2928TIP3    H230276   2.518   2.382  15.071 -1.2256  0.0845  0.4642
 2929TIP3   OH230277   1.420   3.424  11.874  0.3328  0.6063 -0.9156
 2929TIP3    H130278   1.503   3.431  11.921  0.2375 -0.5873 -0.5359
 2929TIP3    H230279   1.399   3.514  11.848  1.1367  1.0783  0.0282
 2930TIP3   OH230280   5.947   3.755  16.781 -0.1919  0.4996  0.5762
 2930TIP3    H130281   6.013   3.688  16.797  1.8405  2.7140  2.2868
 2930TIP3    H230282   5.870   3.724  16.828  0.1596 -1.3077  0.0464
 2931TIP3   OH230283   1.882   4.228  14.820  0.0110 -0.2600  0.7993
 2931TIP3    H130284   1.896   4.298  14.756  1.4670 -1.0652  0.1896
 2931TIP3    H230285   1.921   4.261  14.901  2.2217 -0.9475  0.0971
 2932TIP3   OH230286   3.108   2.048  11.100 -0.0770 -0.2334 -0.1033
 2932TIP3    H130287   3.045   2.120  11.110 -1.7554 -1.4451 -1.4140
 2932TIP3    H230288   3.193   2.088  11.121 -0.9616  2.0798 -0.5782
 2933TIP3   OH230289   0.098   2.320   1.198 -0.3309  0.1796 -0.2572
 2933TIP3    H130290   0.182   2.361   1.218 -0.7382  0.6198  0.6424
 2933TIP3    H230291   0.119   2.247   1.140  0.7728 -0.3132  0.7440
 2934TIP3   OH230292   3.023   1.935   5.820 -0.1293 -0.3566 -0.6406
 2934TIP3    H130293   3.103   1.970   5.782  0.2626 -0.3553  0.1688
 2934TIP3    H230294   3.002   1.859   5.765  0.4911 -0.4328 -0.7819
 2935TIP3   OH230295   5.227   0.233  16.841  0.1295 -0.3616 -0.2393
 2935TIP3    H130296   5.232   0.264  16.751 -0.4978  1.1912  0.2372
 2935TIP3    H230297   5.318   0.226  16.869  0.2923  1.3353 -0.2815
 2936TIP3   OH230298   1.782   5.242  13.205 -0.3529  1.1401  0.2851
 2936TIP3    H130299   1.785   5.314  13.143 -0.1479  0.9252  0.0386
 2936TIP3    H230300   1.726   5.176  13.164 -1.1695  1.4664  0.8530
 2937TIP3   OH230301   3.235   3.574  14.159 -0.0743 -0.1133 -0.4953
 2937TIP3    H130302   3.325   3.583  14.191 -0.0965  2.2386 -0.9575
 2937TIP3    H230303   3.210   3.485  14.185  1.8831 -0.3365  0.8749
 2938TIP3   OH230304   5.554   1.151   1.228 -0.3427  0.5259  0.4896
 2938TIP3    H130305   5.645   1.161   1.198 -0.2521 -3.5788 -1.3021
 2938TIP3    H230306   5.559   1.086   1.298 -1.9752 -1.3662 -1.0289
 2939TIP3   OH230307   6.737   4.116   5.669 -0.0015  0.0974 -0.1907
 2939TIP3    H130308   6.825   4.086   5.691  0.1852  1.4876  1.1578
 2939TIP3    H230309   6.680   4.077   5.735 -0.2946 -0.2326 -0.6345
 2940TIP3   OH230310   6.602   5.879  12.131  0.4723  0.0968  0.1187
 2940TIP3    H130311   6.534   5.945  12.118  0.7452  0.5739  1.0428
 2940TIP3    H230312   6.558   5.807  12.174  0.4676  0.2514  0.3737
 2941TIP3   OH230313   0.422   5.957  13.883 -0.1403 -0.3085  0.4248
 2941TIP3    H130314   0.424   6.051  13.863 -0.9295 -0.4731 -0.5134
 2941TIP3    H230315   0.366   5.920  13.815  1.1755 -1.6530  0.0353
 2942TIP3   OH230316   1.283   1.814  10.977 -0.2767  0.0202 -0.3184
 2942TIP3    H130317   1.356   1.861  11.019 -0.2232  0.2304 -0.6426
 2942TIP3    H230318   1.225   1.884  10.946 -0.4306 -0.1398 -0.3906
 2943TIP3   OH230319   4.510   3.836   1.217 -0.5077  0.0890 -0.6115
 2943TIP3    H130320   4.461   3.798   1.289 -1.3488  0.4430 -0.9854
 2943TIP3    H230321   4.581   3.774   1.201  1.0360  1.0220  1.9204
 2944TIP3   OH230322   6.543   5.915  15.085  0.4304 -0.0243 -0.5956
 2944TIP3    H130323   6.607   5.857  15.043 -0.0531 -0.8142 -0.2494
 2944TIP3    H230324   6.471   5.858  15.110 -1.0204  1.0275 -2.1385
 2945TIP3   OH230325   2.093   0.467  12.361  0.0665  0.1405  0.4680
 2945TIP3    H130326   2.138   0.435  12.283 -0.4008  1.8343 -0.5314
 2945TIP3    H230327   2.094   0.562  12.353 -2.9663  0.2933  0.8149
 2946TIP3   OH230328   2.348   3.254   6.266  0.0320  0.0136  0.2488
 2946TIP3    H130329   2.274   3.313   6.280  0.3608  0.2888  0.8453
 2946TIP3    H230330   2.355   3.204   6.347  1.0685  0.6366  0.5571
 2947TIP3   OH230331   3.050   0.139  17.010  0.4749 -0.6470  0.0633
 2947TIP3    H130332   3.026   0.217  16.961  2.5746 -0.2481 -0.4504
 2947TIP3    H230333   2.967   0.102  17.041 -0.5517  1.8850  0.5228
 2948TIP3   OH230334   4.039   6.696  13.520 -0.1455  0.0615 -0.5335
 2948TIP3    H130335   4.082   6.673  13.603 -0.1922 -0.0301 -0.5349
 2948TIP3    H230336   4.110   6.730  13.465 -0.2297  0.7443 -0.2252
 2949TIP3   OH230337   2.649   2.025  13.309  0.3592 -0.0850 -0.0492
 2949TIP3    H130338   2.601   2.040  13.390  0.6817 -0.1262  0.1520
 2949TIP3    H230339   2.585   1.985  13.250 -0.1507  0.8314 -0.1500
 2950TIP3   OH230340   2.669   1.424   1.356  0.3514 -0.0854  0.5223
 2950TIP3    H130341   2.691   1.436   1.263 -2.1594  0.3734 -0.0820
 2950TIP3    H230342   2.608   1.495   1.375  0.0847 -0.7463  2.2834
 2951TIP3   OH230343   4.889   5.898   0.814 -0.0134  0.0971 -0.6667
 2951TIP3    H130344   4.894   5.927   0.905  0.6933  1.0577 -0.9912
 2951TIP3    H230345   4.809   5.939   0.780  0.3510  0.7234 -0.7925
 2952TIP3   OH230346   2.547   5.408  12.737  0.3021  0.1321  0.2708
 2952TIP3    H130347   2.609   5.471  12.774  0.1272 -0.2563  1.2588
 2952TIP3    H230348   2.517   5.449  12.656  0.5863  1.0832  0.6295
 2953TIP3   OH230349   3.850   0.409  11.387 -0.3440 -0.3875 -0.4844
 2953TIP3    H130350   3.834   0.435  11.296  1.3145 -0.3074 -0.7949
 2953TIP3    H230351   3.907   0.478  11.421  0.5602 -1.3523  0.0297
 2954TIP3   OH230352   6.568   6.758   3.762 -0.3702  0.6301 -0.3831
 2954TIP3    H130353   6.498   6.774   3.825  0.4622 -0.4106  0.8533
 2954TIP3    H230354   6.631   6.828   3.777 -0.2521  0.4795 -0.1740
 2955TIP3   OH230355   1.249   4.624   2.819 -0.3093  0.2403 -0.2877
 2955TIP3    H130356   1.197   4.611   2.898  0.4806  0.9283  0.3625
 2955TIP3    H230357   1.266   4.536   2.785 -1.5324 -0.0116 -0.2880
 2956TIP3   OH230358   0.094   4.254  11.931  0.2122  0.2438 -0.0179
 2956TIP3    H130359   0.090   4.162  11.902  1.6385  0.3978 -0.7757
 2956TIP3    H230360   0.151   4.252  12.008  0.6781  0.5674 -0.3557
 2957TIP3   OH230361   2.693   3.254   2.665  0.6037  0.4878  0.2847
 2957TIP3    H130362   2.599   3.264   2.684  0.7551 -0.7031  1.8591
 2957TIP3    H230363   2.732   3.336   2.695  0.0580  1.0400 -0.4936
 2958TIP3   OH230364   0.474   5.785  11.954 -0.0110 -0.1018  0.5580
 2958TIP3    H130365   0.541   5.839  11.911  0.4173 -0.0482  1.2832
 2958TIP3    H230366   0.501   5.695  11.936 -0.2421 -0.0812  0.0926
 2959TIP3   OH230367   4.544   3.297   0.372  0.3382  0.7897  0.6696
 2959TIP3    H130368   4.473   3.357   0.394  0.5647  1.5398 -0.5783
 2959TIP3    H230369   4.624   3.341   0.400  0.5543  1.3620 -0.7818
 2960TIP3   OH230370   4.530   1.656  14.311 -0.0683  0.6110  0.1701
 2960TIP3    H130371   4.560   1.747  14.315  1.8245  0.0158  0.2377
 2960TIP3    H230372   4.510   1.641  14.219 -2.8646  1.7964  0.4838
 2961TIP3   OH230373   5.384   0.803  14.724  0.1074  0.4143 -0.0763
 2961TIP3    H130374   5.344   0.874  14.775 -0.3932 -0.0710  0.2100
 2961TIP3    H230375   5.415   0.846  14.644  0.5640  1.1194  0.4579
 2962TIP3   OH230376   1.043   2.669   2.695 -0.4192 -0.0911  0.0927
 2962TIP3    H130377   1.138   2.680   2.697 -0.4776  0.7540 -0.7750
 2962TIP3    H230378   1.030   2.578   2.669  0.2287  0.6056 -3.1216
 2963TIP3   OH230379   6.460   4.473  13.718  0.4467  0.0351 -0.1117
 2963TIP3    H130380   6.448   4.472  13.623 -0.0993 -1.7601 -0.0629
 2963TIP3    H230381   6.443   4.564  13.744  0.0327  0.4244 -1.6514
 2964TIP3   OH230382   0.500   1.882  13.094 -0.0940 -0.3823  0.3725
 2964TIP3    H130383   0.425   1.929  13.130  0.4270  0.7086  0.0743
 2964TIP3    H230384   0.543   1.946  13.038 -0.5674 -1.8557 -1.7836
 2965TIP3   OH230385   1.039   2.600   3.172  0.4176 -0.0248  0.3863
 2965TIP3    H130386   1.103   2.561   3.113 -0.0653  1.1382 -0.9706
 2965TIP3    H230387   1.082   2.680   3.204 -0.8087  1.5256 -1.6461
 2966TIP3   OH230388   3.911   1.308  14.361  0.1218  0.5965  0.3175
 2966TIP3    H130389   3.994   1.344  14.391  0.2764  0.8822 -0.4505
 2966TIP3    H230390   3.846   1.350  14.418  0.5750 -0.4687  1.6631
 2967TIP3   OH230391   6.129   4.965  11.984 -0.1899  0.1650 -0.6082
 2967TIP3    H130392   6.066   5.009  12.041 -0.0399 -0.9973  0.5138
 2967TIP3    H230393   6.208   4.957  12.038  0.2214 -0.2694 -1.2592
 2968TIP3   OH230394   6.517   2.084  15.538  0.1880  0.5337 -0.3583
 2968TIP3    H130395   6.425   2.067  15.559 -0.4513 -2.7052 -4.5301
 2968TIP3    H230396   6.514   2.158  15.477  0.5233  1.1868  0.4042
 2969TIP3   OH230397   5.579   1.636   0.239  0.4957 -0.1056  0.4503
 2969TIP3    H130398   5.571   1.541   0.246 -0.8882 -0.2065 -1.6281
 2969TIP3    H230399   5.553   1.656   0.149 -0.5325  2.3725  1.2079
 2970TIP3   OH230400   6.713   5.886   2.573 -0.0544 -0.3987 -0.2533
 2970TIP3    H130401   6.773   5.880   2.648 -0.9304 -0.9103  0.4232
 2970TIP3    H230402   6.771   5.885   2.497  0.9797  1.8728  0.4041
 2971TIP3   OH230403   1.913   4.435  15.727 -0.4585  0.0629  0.5597
 2971TIP3    H130404   2.006   4.457  15.734 -0.7845  2.0619 -0.6400
 2971TIP3    H230405   1.904   4.394  15.641 -0.8163  0.7005  0.2869
 2972TIP3   OH230406   1.018   4.848   1.288 -0.0816 -0.1158  0.1359
 2972TIP3    H130407   0.934   4.892   1.279  0.7612  1.4374 -0.4912
 2972TIP3    H230408   1.082   4.911   1.255  1.2751 -1.4849  0.0302
 2973TIP3   OH230409   2.602   0.365   1.316 -0.5825  0.2471 -0.1957
 2973TIP3    H130410   2.584   0.333   1.404 -0.1303  0.9371  0.1670
 2973TIP3    H230411   2.591   0.289   1.259  1.1865 -0.7496  0.7124
 2974TIP3   OH230412   3.413   2.783   1.767  0.1963 -0.2306  0.2523
 2974TIP3    H130413   3.387   2.853   1.827 -1.8104 -0.1003 -0.6698
 2974TIP3    H230414   3.371   2.705   1.802  2.0912 -0.9551  1.0498
 2975TIP3   OH230415   4.492   2.583  12.579 -0.6188 -0.2579 -0.6454
 2975TIP3    H130416   4.426   2.546  12.520 -0.5793  0.4124 -1.1173
 2975TIP3    H230417   4.521   2.663  12.536  0.8026 -0.7385 -0.6424
 2976TIP3   OH230418   0.224   4.944   1.811  0.4987  0.1025  0.6827
 2976TIP3    H130419   0.287   5.014   1.796  1.1220 -0.6433 -0.3120
 2976TIP3    H230420   0.141   4.979   1.777  0.4025  0.9909  1.7781
 2977TIP3   OH230421   1.711   0.840  10.961 -0.4422  0.4745  0.0893
 2977TIP3    H130422   1.797   0.800  10.975 -0.1101  1.5044  1.1827
 2977TIP3    H230423   1.731   0.932  10.939 -1.2461  0.5334 -0.4414
 2978TIP3   OH230424   0.960   1.270   1.298 -0.0720 -0.1819 -0.2887
 2978TIP3    H130425   1.004   1.349   1.263  0.5163 -0.3258  0.1086
 2978TIP3    H230426   0.868   1.282   1.275  0.1958  0.0582 -1.2833
 2979TIP3   OH230427   3.674   2.553   1.092 -0.0759 -0.2791 -0.2717
 2979TIP3    H130428   3.716   2.492   1.151  2.2074  0.9224 -0.5333
 2979TIP3    H230429   3.739   2.569   1.023 -0.9759  1.6065 -0.7738
 2980TIP3   OH230430   2.060   2.812  14.672 -0.0624  0.1308  0.7027
 2980TIP3    H130431   2.089   2.777  14.588  0.4684  0.8908  0.5687
 2980TIP3    H230432   1.979   2.763  14.691 -0.4051  0.2287 -0.4340
 2981TIP3   OH230433   0.187   2.154   2.100 -0.5313  0.4196 -0.1791
 2981TIP3    H130434   0.107   2.181   2.055  1.2234  0.5717 -3.5326
 2981TIP3    H230435   0.254   2.215   2.069  1.0559 -0.0782  2.0113
 2982TIP3   OH230436   3.407   6.001  15.374 -0.5910 -0.5508 -0.2082
 2982TIP3    H130437   3.453   6.045  15.302 -0.0780 -1.5222 -0.5054
 2982TIP3    H230438   3.472   5.939  15.409 -1.2910 -1.0890  0.1637
 2983TIP3   OH230439   1.115   1.409   2.846 -0.2604  0.8145  0.2758
 2983TIP3    H130440   1.073   1.434   2.928  0.8175 -0.1799  1.1721
 2983TIP3    H230441   1.178   1.479   2.829  0.6108  0.2811  1.1613
 2984TIP3   OH230442   6.586   1.627   2.156 -0.0672  0.0141  0.8399
 2984TIP3    H130443   6.518   1.560   2.157  0.7261 -0.8161  0.6248
 2984TIP3    H230444   6.642   1.606   2.230  2.0106 -1.5398 -1.0260
 2985TIP3   OH230445   4.267   1.812  11.704 -0.3644  0.2545 -0.1358
 2985TIP3    H130446   4.320   1.875  11.654 -0.5695 -1.3322 -2.4877
 2985TIP3    H230447   4.181   1.854  11.710 -0.5329  0.2091 -1.7731
 2986TIP3   OH230448   1.179   3.931  12.256  0.1609  0.3100  0.1730
 2986TIP3    H130449   1.190   4.004  12.316  0.2572 -0.4773  1.1494
 2986TIP3    H230450   1.096   3.890  12.283  0.9613 -0.9732  0.8299
 2987TIP3   OH230451   6.104   3.394   0.410  0.1943  0.6124  0.0220
 2987TIP3    H130452   6.127   3.433   0.494  2.1524 -0.7580  0.1897
 2987TIP3    H230453   6.131   3.459   0.345 -2.2310  2.1197  0.3743
 2988TIP3   OH230454   6.242   0.496  15.057 -0.0027 -0.2967 -0.1967
 2988TIP3    H130455   6.319   0.546  15.033 -0.8421  1.4291  0.5401
 2988TIP3    H230456   6.191   0.555  15.113 -3.1470 -0.3553 -2.7193
 2989TIP3   OH230457   1.290   3.406   0.828 -0.3712 -0.0366 -0.0407
 2989TIP3    H130458   1.276   3.323   0.782  1.1110  0.3502 -1.3014
 2989TIP3    H230459   1.323   3.380   0.914 -1.4581 -0.7612  0.1770
 2990TIP3   OH230460   1.169   5.608   5.776  0.5850 -0.1179  0.1786
 2990TIP3    H130461   1.154   5.664   5.700  1.5243 -4.0141 -3.2089
 2990TIP3    H230462   1.087   5.611   5.824 -1.5951 -0.4179 -3.2020
 2991TIP3   OH230463   0.616   0.522  13.696  0.6839  0.1058 -0.8171
 2991TIP3    H130464   0.554   0.486  13.760  1.8662 -2.0819 -0.8085
 2991TIP3    H230465   0.670   0.583  13.746 -0.4540  0.8697 -0.4870
 2992TIP3   OH230466   6.545   5.295   6.136 -0.3349 -0.1734  0.6479
 2992TIP3    H130467   6.463   5.304   6.185 -0.2331  2.6947  0.4650
 2992TIP3    H230468   6.517   5.285   6.045 -0.5033  0.5441  0.6160
 2993TIP3   OH230469   1.797   2.838   6.240  0.3816 -0.4890 -0.1168
 2993TIP3    H130470   1.830   2.928   6.237 -1.2227  0.1309 -0.3546
 2993TIP3    H230471   1.709   2.846   6.275  0.9906 -2.2589  2.0479
 2994TIP3   OH230472   5.616   0.006   5.849  0.3281 -0.3325  0.5516
 2994TIP3    H130473   5.641   0.043   5.764  0.3640  0.2159  0.7917
 2994TIP3    H230474   5.522  -0.011   5.841  0.4850 -1.0346  0.1357
 2995TIP3   OH230475   2.881   0.589  12.501  0.3382  0.2970 -0.2781
 2995TIP3    H130476   2.967   0.632  12.495 -0.3211  1.4670 -2.4014
 2995TIP3    H230477   2.840   0.627  12.578  1.5597 -0.0252  0.5680
 2996TIP3   OH230478   6.653   4.472   0.793 -0.2045 -0.1778  0.6634
 2996TIP3    H130479   6.625   4.563   0.807  1.4313  0.1629  2.1816
 2996TIP3    H230480   6.616   4.424   0.868  1.4786 -0.1024  1.5918
 2997TIP3   OH230481   4.401   1.654   6.066  0.2807  0.1691  0.1557
 2997TIP3    H130482   4.466   1.633   5.998 -0.6736 -0.8129 -0.4916
 2997TIP3    H230483   4.454   1.681   6.141  1.3667  1.4525 -1.0013
 2998TIP3   OH230484   4.969   2.511  15.029 -0.4825  0.4991  0.0889
 2998TIP3    H130485   4.878   2.516  15.001 -1.0352 -0.4902  1.5772
 2998TIP3    H230486   4.985   2.595  15.072 -0.9837  0.3294  0.6147
 2999TIP3   OH230487   2.413   1.660  16.579  0.2475 -0.1882 -0.0042
 2999TIP3    H130488   2.496   1.658  16.530  0.6847  0.3596  0.7030
 2999TIP3    H230489   2.379   1.748  16.563  0.8388  0.3147  1.3854
 3000TIP3   OH230490   4.123   1.130  12.192 -0.0708 -0.3208  0.2970
 3000TIP3    H130491   4.196   1.191  12.198 -0.0846 -0.2217 -0.4483
 3000TIP3    H230492   4.046   1.182  12.215 -0.3065  0.4098 -1.9137
 3001TIP3   OH230493   5.088   0.262  16.288 -0.7081  0.1654  0.1470
 3001TIP3    H130494   5.176   0.264  16.325 -0.6162 -0.3744 -0.0313
 3001TIP3    H230495   5.100   0.282  16.195 -0.3755 -2.8658 -0.5616
 3002TIP3   OH230496   5.069   2.771   6.137  0.1860 -0.3842  0.1152
 3002TIP3    H130497   4.986   2.797   6.177  0.8597  1.5985  0.3487
 3002TIP3    H230498   5.065   2.810   6.049  0.0689 -1.9586 -0.6016
 3003TIP3   OH230499   6.243   0.604  13.123  0.2484 -0.3983 -0.0891
 3003TIP3    H130500   6.172   0.563  13.073 -1.5669  0.5731  1.5632
 3003TIP3    H230501   6.310   0.536  13.128  0.3302 -0.7312 -3.2908
 3004TIP3   OH230502   3.076   5.579  12.672 -0.0162 -0.4334  0.0317
 3004TIP3    H130503   3.137   5.508  12.654  0.5742  0.1704 -0.4121
 3004TIP3    H230504   3.128   5.643  12.720  0.0509  0.6174 -1.3696
 3005TIP3   OH230505   4.276   0.767   4.355 -0.0144 -0.3171  0.0289
 3005TIP3    H130506   4.309   0.721   4.278  0.6406 -0.7073  0.5334
 3005TIP3    H230507   4.258   0.698   4.419 -1.8981 -0.1269 -0.2372
 3006TIP3   OH230508   5.852   6.624  12.535 -0.2894 -0.1169 -0.3528
 3006TIP3    H130509   5.795   6.682  12.586 -0.3503 -0.7060  0.2575
 3006TIP3    H230510   5.885   6.680  12.464  0.2456  0.8753  0.6474
 3007TIP3   OH230511   2.332   1.169  12.044 -0.2397  0.1965 -0.0539
 3007TIP3    H130512   2.378   1.147  12.125  0.1085  1.7953  0.2161
 3007TIP3    H230513   2.278   1.244  12.067 -2.4549 -1.1338 -0.5685
 3008TIP3   OH230514   4.296   6.095  14.829  0.1795  0.0384 -0.0894
 3008TIP3    H130515   4.215   6.045  14.840  1.3678 -1.7914  0.8431
 3008TIP3    H230516   4.301   6.149  14.907 -0.2357  0.3042 -0.2435
 3009TIP3   OH230517   2.175   0.306  14.081 -0.3127  0.0710 -0.4239
 3009TIP3    H130518   2.084   0.333  14.079  0.1545  1.7193 -0.9854
 3009TIP3    H230519   2.175   0.218  14.044 -1.7857 -0.3969  0.5954
 3010TIP3   OH230520   1.007   1.543   3.504 -0.3243  0.6817  0.0458
 3010TIP3    H130521   0.945   1.524   3.575 -0.4530 -1.8633 -0.6392
 3010TIP3    H230522   1.091   1.510   3.536  0.3607  2.5406  0.2705
 3011TIP3   OH230523   0.662   0.991   0.962  1.0924 -0.0558  0.5904
 3011TIP3    H130524   0.640   0.969   1.052 -0.6483 -2.4805 -0.3011
 3011TIP3    H230525   0.588   1.044   0.931 -0.0202 -2.0085 -0.2857
 3012TIP3   OH230526   1.463   2.538  13.526  0.1114  0.3369 -0.3415
 3012TIP3    H130527   1.435   2.556  13.616 -1.1640  0.7706 -0.7930
 3012TIP3    H230528   1.383   2.546  13.474  0.6717 -0.6653 -1.4255
 3013TIP3   OH230529   1.760   6.778   3.957 -0.2342 -0.0956  0.6725
 3013TIP3    H130530   1.717   6.693   3.954  0.6588 -0.5253 -1.1050
 3013TIP3    H230531   1.834   6.770   3.897  0.7612  1.4707  1.6173
 3014TIP3   OH230532   2.604   1.977   2.037  0.4369 -0.1752  0.1977
 3014TIP3    H130533   2.571   1.897   2.077 -1.7804  0.9415  0.7812
 3014TIP3    H230534   2.570   2.047   2.093  2.5600  1.1954 -0.1012
 3015TIP3   OH230535   4.595   3.890   4.122  0.1291 -0.1765 -0.7678
 3015TIP3    H130536   4.681   3.852   4.140 -0.6688 -1.7295 -0.0208
 3015TIP3    H230537   4.535   3.837   4.174 -1.4235  0.0606 -2.2555
 3016TIP3   OH230538   6.557   3.433  10.887  0.1498  0.1554 -0.4680
 3016TIP3    H130539   6.649   3.447  10.861 -0.1855 -0.2394 -1.9711
 3016TIP3    H230540   6.523   3.372  10.822 -0.6670 -1.2572  1.1903
 3017TIP3   OH230541   1.658   1.671   6.115 -0.2331  0.2882 -0.6201
 3017TIP3    H130542   1.568   1.653   6.140 -0.1149 -0.4136 -0.6860
 3017TIP3    H230543   1.711   1.617   6.173  0.0782 -0.5738 -1.6732
 3018TIP3   OH230544   3.017   5.040   6.269  0.0567 -0.9159 -0.4945
 3018TIP3    H130545   2.940   4.988   6.293 -0.2265  0.6006  2.2381
 3018TIP3    H230546   3.091   4.989   6.301 -0.0448 -0.7668 -0.0259
 3019TIP3   OH230547   5.615   4.043  15.102  0.2072 -0.2352  0.0371
 3019TIP3    H130548   5.688   4.019  15.160  0.3924  1.2542  0.4589
 3019TIP3    H230549   5.657   4.087  15.029  0.1183 -3.3072 -2.0515
 3020TIP3   OH230550   4.335   0.366  11.460  0.0418 -0.7168  0.3409
 3020TIP3    H130551   4.400   0.371  11.530  0.9896  1.8972 -0.6076
 3020TIP3    H230552   4.364   0.431  11.396 -2.5173 -0.7776 -0.9857
 3021TIP3   OH230553   1.860   0.167   2.817  0.1702 -0.6448 -0.2015
 3021TIP3    H130554   1.782   0.171   2.873 -0.8897  0.4412 -1.6694
 3021TIP3    H230555   1.915   0.239   2.848  0.5674 -1.3439  0.7649
 3022TIP3   OH230556   2.048   2.419  15.373  0.2791 -0.5514  0.0141
 3022TIP3    H130557   2.040   2.325  15.387 -1.6998 -0.1625  1.9696
 3022TIP3    H230558   1.964   2.444  15.334  1.9014  0.0378 -3.5814
 3023TIP3   OH230559   6.637   2.836  15.274 -0.1836 -0.3802 -0.0230
 3023TIP3    H130560   6.542   2.822  15.281 -0.1332 -0.6802  0.1064
 3023TIP3    H230561   6.675   2.771  15.335  0.1204 -0.5344 -0.3711
 3024TIP3   OH230562   6.703   5.474   3.606 -0.4366  0.4984 -0.3475
 3024TIP3    H130563   6.786   5.432   3.626 -1.2575 -1.1383 -0.2763
 3024TIP3    H230564   6.703   5.481   3.510  0.1361  1.3135 -0.3042
 3025TIP3   OH230565   2.950   3.012  13.341 -0.3440  1.0883 -0.1856
 3025TIP3    H130566   2.943   3.100  13.376  1.5040  0.6765  1.3282
 3025TIP3    H230567   2.902   2.957  13.403  0.0567  0.7850 -0.1429
 3026TIP3   OH230568   5.756   0.883  14.801  0.5547 -0.1647 -0.1271
 3026TIP3    H130569   5.718   0.894  14.714  0.9188 -1.4032 -0.4717
 3026TIP3    H230570   5.727   0.797  14.829  1.1793 -0.1503  0.5958
 3027TIP3   OH230571   5.963   3.430   1.157 -0.2482 -0.4270  0.4140
 3027TIP3    H130572   6.039   3.408   1.212  0.5959 -0.1735 -0.6246
 3027TIP3    H230573   6.000   3.447   1.071 -1.6226 -1.4862 -0.4283
 3028TIP3   OH230574   1.851   1.692  11.327 -0.2564 -0.0142 -0.1085
 3028TIP3    H130575   1.881   1.630  11.261  2.5599 -1.1055  2.0172
 3028TIP3    H230576   1.923   1.754  11.336 -0.6999  0.2913  1.6595
 3029TIP3   OH230577   0.182   0.715  13.598  0.0122 -0.1019  0.5573
 3029TIP3    H130578   0.100   0.681  13.635  0.0924  1.7184  2.6237
 3029TIP3    H230579   0.171   0.811  13.599  1.7057  0.1418 -0.2625
 3030TIP3   OH230580   5.585   3.651  14.748 -0.6593 -0.1895 -0.2797
 3030TIP3    H130581   5.661   3.605  14.712  1.3769  0.6445  2.5136
 3030TIP3    H230582   5.547   3.589  14.810 -1.7839 -0.2742 -1.0236
 3031TIP3   OH230583   1.481   4.232  14.791 -0.2525  0.3919  0.0395
 3031TIP3    H130584   1.561   4.183  14.806 -0.2163  0.0246 -1.2122
 3031TIP3    H230585   1.415   4.165  14.771 -0.6276  0.7402  0.0939
 3032TIP3   OH230586   3.719   1.795  16.631 -0.0506  0.3473  0.4398
 3032TIP3    H130587   3.681   1.716  16.671 -1.1918 -0.0353 -1.2749
 3032TIP3    H230588   3.813   1.787  16.645 -0.2194 -0.9717  0.9182
 3033TIP3   OH230589   0.023   3.084   0.739 -0.1107  0.4963 -0.5954
 3033TIP3    H130590   0.088   3.018   0.715  0.0032  0.2202  0.4032
 3033TIP3    H230591  -0.062   3.041   0.724 -0.0462  0.4325 -0.7721
 3034TIP3   OH230592   4.459   6.217   0.836  0.4328  0.0900  0.0203
 3034TIP3    H130593   4.468   6.211   0.931 -3.7663 -0.6134  0.5750
 3034TIP3    H230594   4.438   6.309   0.819 -3.2343 -0.5027  0.5258
 3035TIP3   OH230595   6.508   1.432   0.172 -0.4257 -0.3017 -0.1864
 3035TIP3    H130596   6.470   1.519   0.157 -1.8736 -0.9150 -0.2692
 3035TIP3    H230597   6.474   1.406   0.258  0.7598 -0.4135  0.2639
 3036TIP3   OH230598   1.153   4.165   3.954  0.1654 -0.2643  0.1143
 3036TIP3    H130599   1.079   4.136   4.007 -0.3920  1.3452  0.2590
 3036TIP3    H230600   1.118   4.172   3.865  1.1416 -3.1455 -0.6223
 3037TIP3   OH230601   6.414   0.197  14.826 -0.2298  0.0542 -0.3210
 3037TIP3    H130602   6.459   0.280  14.846  1.1184 -0.9367  0.9398
 3037TIP3    H230603   6.326   0.224  14.798 -0.6886  1.8415  2.4679
 3038TIP3   OH230604   0.325   5.811  13.641  0.2275 -0.6964  0.2536
 3038TIP3    H130605   0.407   5.786  13.598 -0.3904  0.2194 -1.5992
 3038TIP3    H230606   0.268   5.840  13.569 -0.9377  0.8174  1.6849
 3039TIP3   OH230607   5.032   6.506  11.632  0.4731 -0.4893 -0.4629
 3039TIP3    H130608   5.107   6.564  11.625  0.9374 -1.0446 -0.1650
 3039TIP3    H230609   5.015   6.500  11.727 -0.7013  0.5800 -0.5733
 3040TIP3   OH230610   3.154   3.948  10.813 -0.0665  0.0802  0.6709
 3040TIP3    H130611   3.201   3.950  10.897 -0.0480 -0.9882  0.7016
 3040TIP3    H230612   3.213   3.991  10.752  1.1671 -1.5823  0.6249
 3041TIP3   OH230613   2.565   0.622   3.282 -0.2157  0.4713 -0.3223
 3041TIP3    H130614   2.588   0.647   3.371 -0.2529  0.8177 -0.4082
 3041TIP3    H230615   2.477   0.658   3.269  0.1118  1.1188 -0.7732
 3042TIP3   OH230616   0.693   1.582   1.185  0.2582 -0.2023  0.2893
 3042TIP3    H130617   0.710   1.676   1.174 -0.5315 -0.0740  0.0800
 3042TIP3    H230618   0.622   1.579   1.249  1.5714 -0.7450  1.7788
 3043TIP3   OH230619   2.660   4.943  14.689  0.1976  0.0956  0.6765
 3043TIP3    H130620   2.597   4.932  14.618 -0.3291  0.9827  0.9953
 3043TIP3    H230621   2.666   4.856  14.728  1.0874 -0.6009 -0.9172
 3044TIP3   OH230622   2.609   2.792  16.663 -0.1619 -0.1081 -0.6315
 3044TIP3    H130623   2.563   2.766  16.583  0.2641  0.2926 -1.0100
 3044TIP3    H230624   2.699   2.809  16.636  0.1277 -0.5121  0.0399
 3045TIP3   OH230625   5.499   4.817   4.048  0.0478  0.2579 -0.0977
 3045TIP3    H130626   5.410   4.839   4.075 -0.0110  0.0729 -0.1353
 3045TIP3    H230627   5.501   4.721   4.051 -0.1878  0.1930 -1.4750
 3046TIP3   OH230628   3.797   2.988  11.031 -0.0195 -0.0253  0.4116
 3046TIP3    H130629   3.826   3.061  10.976 -0.2201 -1.1053 -1.1663
 3046TIP3    H230630   3.738   2.938  10.976  0.0104 -1.3296  1.5200
 3047TIP3   OH230631   5.134   0.637   5.902  0.3246  0.3999 -0.4578
 3047TIP3    H130632   5.134   0.728   5.930 -1.5475  1.3050 -3.0278
 3047TIP3    H230633   5.045   0.607   5.918  0.6364 -0.6558 -0.6098
 3048TIP3   OH230634   5.874   6.131   5.910 -0.5067  0.2133 -0.2903
 3048TIP3    H130635   5.911   6.043   5.917 -1.6736 -0.3818 -1.1798
 3048TIP3    H230636   5.799   6.130   5.970  1.5220  1.8216  2.5107
 3049TIP3   OH230637   5.353   4.670   0.459 -0.5172 -0.3961  0.4229
 3049TIP3    H130638   5.411   4.595   0.458 -1.1728 -0.9161 -0.8231
 3049TIP3    H230639   5.347   4.698   0.367 -3.2802 -1.2181  0.2556
 3050TIP3   OH230640   6.804   1.429  13.940  0.2174 -0.4769 -0.6419
 3050TIP3    H130641   6.872   1.442  13.874  2.7038 -1.9136  1.4130
 3050TIP3    H230642   6.746   1.504  13.931  3.0728  1.8138 -1.4433
 3051TIP3   OH230643   2.908   4.850   1.477 -0.1904  0.3229  0.2496
 3051TIP3    H130644   2.922   4.879   1.387  1.0876  0.4888  0.4864
 3051TIP3    H230645   2.936   4.759   1.478 -0.1539  0.3365  0.4890
 3052TIP3   OH230646   3.028   1.700  12.572 -0.1647 -0.2407 -0.2488
 3052TIP3    H130647   2.940   1.736  12.569 -0.2022 -0.2482  0.5479
 3052TIP3    H230648   3.073   1.752  12.639 -0.4081 -2.0299  1.4011
 3053TIP3   OH230649   4.493   1.222  13.432  0.6412  0.1855 -0.4507
 3053TIP3    H130650   4.489   1.133  13.398  1.3287  0.4462 -1.2146
 3053TIP3    H230651   4.496   1.278  13.355 -0.0770  0.8970  0.0179
 3054TIP3   OH230652   2.693   6.728   5.247  0.2101 -0.2687  0.3668
 3054TIP3    H130653   2.785   6.748   5.230  1.1020 -2.5939  1.9475
 3054TIP3    H230654   2.666   6.675   5.171  0.2974  0.0752  0.0936
 3055TIP3   OH230655   5.893   3.202  11.679  0.4595  0.1594  0.1736
 3055TIP3    H130656   5.860   3.280  11.634 -0.3362  0.1311  0.6906
 3055TIP3    H230657   5.971   3.233  11.725 -0.9540  1.1879  2.0124
 3056TIP3   OH230658   1.297   5.778  13.486 -0.1692  0.5565  0.2671
 3056TIP3    H130659   1.377   5.760  13.436  0.4450  2.0846  0.6554
 3056TIP3    H230660   1.299   5.872  13.503 -1.2089  0.3598  1.7305
 3057TIP3   OH230661   6.762   4.192   2.149  0.2205  0.2287  0.1100
 3057TIP3    H130662   6.848   4.207   2.187 -0.0402  1.2811  0.3321
 3057TIP3    H230663   6.703   4.247   2.201 -0.3363  0.7230 -1.0058
 3058TIP3   OH230664   1.310   0.519   2.290 -0.0520 -0.1475 -0.9481
 3058TIP3    H130665   1.253   0.571   2.345 -0.5892 -0.5698 -1.1020
 3058TIP3    H230666   1.397   0.556   2.304  0.5498 -2.5542  3.1249
 3059TIP3   OH230667   3.366   4.720   1.667 -0.0106  0.1017 -0.1828
 3059TIP3    H130668   3.279   4.699   1.635 -0.2831  1.2082 -0.2255
 3059TIP3    H230669   3.405   4.636   1.690 -0.5003 -0.5473 -1.6395
 3060TIP3   OH230670   0.974   6.549  11.877  0.3230  0.3537  0.2165
 3060TIP3    H130671   0.982   6.453  11.875 -1.6461  0.1233  0.7600
 3060TIP3    H230672   0.947   6.572  11.788 -1.4846  0.0907  0.6498
 3061TIP3   OH230673   3.668   3.791  11.433  0.0392  0.4919 -0.5291
 3061TIP3    H130674   3.685   3.885  11.432 -0.0873  0.5522  0.8214
 3061TIP3    H230675   3.595   3.778  11.372 -0.6221  1.4171  0.0448
 3062TIP3   OH230676   2.100   0.485  15.619 -0.1536 -0.6089 -0.0129
 3062TIP3    H130677   2.083   0.530  15.536 -2.1892  1.0527  1.1976
 3062TIP3    H230678   2.014   0.480  15.661  1.0355  0.1374  2.7296
 3063TIP3   OH230679   1.875   1.050  14.325  0.1304 -0.3209 -0.1124
 3063TIP3    H130680   1.808   0.989  14.354 -2.4512  1.3135 -2.1809
 3063TIP3    H230681   1.910   1.087  14.406 -2.0010 -0.7205  1.0721
 3064TIP3   OH230682   6.493   6.656   1.319  0.0622 -0.3802 -0.1929
 3064TIP3    H130683   6.454   6.578   1.358 -0.5502 -0.2639 -0.5606
 3064TIP3    H230684   6.422   6.720   1.316  0.2821 -0.1577 -0.8492
 3065TIP3   OH230685   1.783   3.408  12.809 -0.6590 -0.1552 -0.1725
 3065TIP3    H130686   1.785   3.465  12.733  0.0748 -0.0357 -0.0695
 3065TIP3    H230687   1.840   3.450  12.874 -1.1730 -0.3157  0.3993
 3066TIP3   OH230688   2.101   3.653  13.663 -0.1284 -0.1276 -0.2399
 3066TIP3    H130689   2.169   3.594  13.695  0.8869  0.9579 -0.3093
 3066TIP3    H230690   2.135   3.686  13.580 -1.1998 -0.3240 -0.7690
 3067TIP3   OH230691   3.533   4.446  12.773  0.2707  0.1316 -0.2917
 3067TIP3    H130692   3.614   4.395  12.780 -0.7580 -1.4778  0.9061
 3067TIP3    H230693   3.557   4.525  12.725  2.3012 -0.7903 -0.8825
 3068TIP3   OH230694   1.608   5.111   6.034 -0.7568 -0.2096 -0.0709
 3068TIP3    H130695   1.578   5.062   6.111 -0.8734  0.4769  0.3379
 3068TIP3    H230696   1.630   5.198   6.069 -1.2708  0.2619 -0.8883
 3069TIP3   OH230697   4.992   6.365   0.958  0.6564 -0.0165  0.1343
 3069TIP3    H130698   4.929   6.412   0.904 -0.7753 -3.1712 -1.1341
 3069TIP3    H230699   5.077   6.386   0.919 -0.0033  0.8002 -0.9134
 3070TIP3   OH230700   5.458   4.019  14.073  0.2372 -0.0379  0.4161
 3070TIP3    H130701   5.390   3.959  14.103 -0.3250  0.7165  0.6726
 3070TIP3    H230702   5.524   4.017  14.142  0.9940 -1.5369 -0.2827
 3071TIP3   OH230703   5.414   6.314   0.590 -0.5426  0.3806  0.3355
 3071TIP3    H130704   5.350   6.349   0.527 -1.6163  1.2978  1.8623
 3071TIP3    H230705   5.385   6.224   0.606  0.9619 -0.6120 -1.9734
 3072TIP3   OH230706   3.043   2.832   2.789  0.4245 -0.1292 -0.0556
 3072TIP3    H130707   3.015   2.918   2.757 -0.7249 -0.0433  1.0599
 3072TIP3    H230708   2.974   2.807   2.851  0.8716 -1.7495 -0.1810
 3073TIP3   OH230709   0.577   4.541  11.353 -0.0362  0.5812  0.6704
 3073TIP3    H130710   0.589   4.454  11.391  0.5297 -0.0752 -0.9171
 3073TIP3    H230711   0.643   4.596  11.396 -0.1669  0.1564  1.4343
 3074TIP3   OH230712   5.347   5.160   0.478  0.1824 -0.2023  0.6560
 3074TIP3    H130713   5.267   5.178   0.430  0.3419  0.3431  0.5954
 3074TIP3    H230714   5.319   5.149   0.569 -0.0878 -1.0025  0.4829
 3075TIP3   OH230715   1.689   5.732   4.213  0.3610 -0.1068 -0.2954
 3075TIP3    H130716   1.778   5.699   4.226  0.7771 -0.4443 -3.2508
 3075TIP3    H230717   1.699   5.828   4.212  0.4467 -0.1011  0.7170
 3076TIP3   OH230718   4.913   3.893   3.491 -0.4540 -0.2233  0.1630
 3076TIP3    H130719   4.944   3.971   3.446 -1.1237  1.6600  2.7454
 3076TIP3    H230720   4.868   3.842   3.423  0.5468  1.2756 -1.7270
 3077TIP3   OH230721   3.832   4.537   4.536  0.4960  0.6821  0.1294
 3077TIP3    H130722   3.779   4.474   4.585 -1.9260  2.2543 -0.3202
 3077TIP3    H230723   3.838   4.613   4.594 -0.2451  1.6038 -0.9632
 3078TIP3   OH230724   1.758   0.316   1.488 -0.0476  0.4355 -0.3434
 3078TIP3    H130725   1.689   0.252   1.471  0.6032 -0.2913 -0.2526
 3078TIP3    H230726   1.722   0.399   1.454 -1.3086  0.2444  0.4539
 3079TIP3   OH230727   1.014   6.461   3.417  0.3215 -0.5739  0.4330
 3079TIP3    H130728   1.063   6.522   3.361 -1.6079  2.0278  1.3674
 3079TIP3    H230729   0.995   6.511   3.496  1.4012 -3.5453  2.7901
 3080TIP3   OH230730   6.638   1.603  17.006 -0.4349 -0.5874  0.3430
 3080TIP3    H130731   6.564   1.548  16.981 -0.5494 -0.6000  0.7026
 3080TIP3    H230732   6.715   1.547  16.992 -0.1743  0.4269 -3.0540
 3081TIP3   OH230733   3.373   6.359  12.236 -0.1416 -0.0975 -0.5205
 3081TIP3    H130734   3.430   6.434  12.250  1.2773 -1.3412  0.6748
 3081TIP3    H230735   3.290   6.384  12.278  0.0334  1.0844 -0.8372
 3082TIP3   OH230736   4.274   6.165   5.145  0.2151 -0.5936 -0.1145
 3082TIP3    H130737   4.224   6.180   5.225 -0.2481 -1.1445 -0.2884
 3082TIP3    H230738   4.237   6.226   5.081  0.3982 -0.3483  0.0135
 3083TIP3   OH230739   3.050   0.190  14.549  0.0839 -0.3171 -0.4220
 3083TIP3    H130740   3.121   0.222  14.605 -0.3158  0.1976 -0.2087
 3083TIP3    H230741   3.070   0.097  14.536  0.4459 -0.3239  0.1656
 3084TIP3   OH230742   0.496   3.572   5.653 -0.9471 -0.3121  0.2763
 3084TIP3    H130743   0.556   3.556   5.726  1.2646  0.4678 -1.2828
 3084TIP3    H230744   0.537   3.642   5.603 -2.5492 -0.6217 -1.5822
 3085TIP3   OH230745   5.571   6.792  14.373  0.0775 -0.4668 -0.4791
 3085TIP3    H130746   5.485   6.752  14.365  0.2729 -0.9588 -0.1744
 3085TIP3    H230747   5.564   6.847  14.451  0.1573 -0.8203 -0.2197
 3086TIP3   OH230748   1.215   1.326   2.141  0.1010 -0.6753  0.2030
 3086TIP3    H130749   1.275   1.290   2.076  0.2768 -0.3445  0.1812
 3086TIP3    H230750   1.157   1.383   2.091  1.1651  0.7632  0.5254
 3087TIP3   OH230751   0.783   2.727   4.614  0.0310 -0.3073 -0.6069
 3087TIP3    H130752   0.722   2.798   4.636  0.1859 -1.0165  2.5498
 3087TIP3    H230753   0.869   2.763   4.635  0.0138 -1.7806  2.6958
 3088TIP3   OH230754   6.052   0.947   2.954 -0.2959  0.2748 -0.2216
 3088TIP3    H130755   6.004   0.983   3.029 -0.8796 -1.4520  0.2954
 3088TIP3    H230756   6.080   0.860   2.983  0.6511  0.0999 -1.5461
 3089TIP3   OH230757   2.097   4.654   4.161  0.5013 -0.5811  0.3036
 3089TIP3    H130758   2.141   4.669   4.245 -0.0165  0.8083  0.3564
 3089TIP3    H230759   2.005   4.644   4.184  0.1377  1.2561 -0.1811
 3090TIP3   OH230760   6.727   6.804   0.766  0.1341  0.4533 -0.1496
 3090TIP3    H130761   6.741   6.827   0.674 -0.2018 -0.4033 -0.4216
 3090TIP3    H230762   6.700   6.712   0.764 -0.4060  0.5800  0.7630
 3091TIP3   OH230763   1.511   5.576  15.090  0.2533 -0.2123  0.0567
 3091TIP3    H130764   1.451   5.578  15.164  0.6315  1.4459  0.3709
 3091TIP3    H230765   1.455   5.575  15.013 -0.2198  1.4876  0.3432
 3092TIP3   OH230766   0.166   2.289   0.904  0.0728  0.1516  0.6782
 3092TIP3    H130767   0.174   2.316   0.813  0.8616 -0.1910  0.6403
 3092TIP3    H230768   0.084   2.329   0.934  0.4585  1.3291  0.1980
 3093TIP3   OH230769   1.145   5.565  12.272 -0.1933 -0.8582  0.0257
 3093TIP3    H130770   1.188   5.480  12.269 -0.6952 -1.0896 -0.9524
 3093TIP3    H230771   1.199   5.617  12.331 -0.3768 -2.1167  1.3588
 3094TIP3   OH230772   3.181   0.031  12.722  0.2580  0.4797  1.1368
 3094TIP3    H130773   3.123  -0.007  12.787  1.3878 -0.5763  1.5684
 3094TIP3    H230774   3.265   0.040  12.767  0.7476  0.8754  0.1889
 3095TIP3   OH230775   3.620   1.595  16.336 -0.1777 -0.0524  0.1365
 3095TIP3    H130776   3.706   1.629  16.359  0.3809 -1.6502  0.5505
 3095TIP3    H230777   3.638   1.511  16.293 -1.5194 -0.4039  0.2127
 3096TIP3   OH230778   2.933   4.704   4.481 -0.0964 -0.1007 -0.3017
 3096TIP3    H130779   3.013   4.653   4.491 -1.2059 -2.0831 -0.9885
 3096TIP3    H230780   2.938   4.740   4.392  1.9039  3.3687  1.0201
 3097TIP3   OH230781   2.662   0.797   4.006 -0.1096 -0.2491  0.2597
 3097TIP3    H130782   2.642   0.888   4.026  3.9162  1.2082 -1.2415
 3097TIP3    H230783   2.594   0.771   3.944 -1.2092  1.8402  0.4958
 3098TIP3   OH230784   0.723   3.405   4.404  0.1446  0.0611 -0.3227
 3098TIP3    H130785   0.680   3.448   4.478 -0.5773  1.1992 -1.3709
 3098TIP3    H230786   0.761   3.325   4.442  0.4562  0.9812  1.4246
 3099TIP3   OH230787   6.324   4.338  10.669 -0.0124  0.4541 -0.5458
 3099TIP3    H130788   6.415   4.310  10.675  0.2906  1.4600 -0.3753
 3099TIP3    H230789   6.327   4.420  10.620 -0.9330  0.0233 -1.3678
 3100TIP3   OH230790   2.634   2.590   0.033  0.1896  0.5721  0.1810
 3100TIP3    H130791   2.546   2.568   0.063  0.3877 -0.7183 -0.1268
 3100TIP3    H230792   2.690   2.577   0.110  0.5947 -2.0530 -0.4760
 3101TIP3   OH230793   6.437   5.091  14.505  0.2102  0.4438 -0.1119
 3101TIP3    H130794   6.350   5.131  14.501 -0.4243 -0.6298  1.8572
 3101TIP3    H230795   6.424   5.001  14.475  0.0044 -0.5687  2.7286
 3102TIP3   OH230796   3.533   5.932   4.301  0.0167 -0.0607  0.9925
 3102TIP3    H130797   3.616   5.904   4.261 -1.7036 -2.5065 -1.1846
 3102TIP3    H230798   3.473   5.860   4.284 -3.3534  2.7172  0.0773
 3103TIP3   OH230799   1.228   4.953   4.974  0.3768  0.6575 -0.1437
 3103TIP3    H130800   1.308   5.004   4.963  1.2207 -0.5629  0.1553
 3103TIP3    H230801   1.232   4.920   5.064  0.0888 -0.3101 -0.4691
 3104TIP3   OH230802   1.174   5.408   4.820  0.2918  0.5134  0.0511
 3104TIP3    H130803   1.120   5.370   4.889  1.8333  2.0553  2.2419
 3104TIP3    H230804   1.239   5.340   4.800  1.4109  0.9274  2.0335
 3105TIP3   OH230805   2.514   1.183  16.596  0.1926  0.5227  0.0892
 3105TIP3    H130806   2.549   1.155  16.511  0.1986 -2.2714  0.9217
 3105TIP3    H230807   2.590   1.181  16.655 -0.2283  0.2394  0.6289
 3106TIP3   OH230808   1.769   3.632  13.250  0.9695 -0.0847 -0.3934
 3106TIP3    H130809   1.788   3.726  13.244  0.3970  0.0458 -0.3023
 3106TIP3    H230810   1.826   3.600  13.319  0.2742  0.4569  0.4617
 3107TIP3   OH230811   1.322   6.195   2.882 -0.2617  0.1735  1.1390
 3107TIP3    H130812   1.356   6.123   2.830 -1.2424  0.5612 -0.0746
 3107TIP3    H230813   1.366   6.186   2.967  0.8563 -0.8626  0.4766
 3108TIP3   OH230814   0.155   6.203  13.601  0.8114  0.3850  0.3485
 3108TIP3    H130815   0.088   6.236  13.542  0.1983 -1.2438  0.1062
 3108TIP3    H230816   0.230   6.262  13.586 -0.2621  1.7414  0.0635
 3109TIP3   OH230817   4.303   3.633  12.660 -0.0392  0.2390 -0.1562
 3109TIP3    H130818   4.359   3.596  12.729 -0.7371 -0.4415  0.0537
 3109TIP3    H230819   4.218   3.590  12.672  0.1936 -0.9382 -2.2899
 3110TIP3   OH230820   3.272   5.391  11.039  0.4369 -0.0633 -0.3978
 3110TIP3    H130821   3.356   5.434  11.056  2.3268 -3.0256 -1.4402
 3110TIP3    H230822   3.272   5.374  10.945 -1.5883  0.2344 -0.5016
 3111TIP3   OH230823   2.475   3.164   4.607  0.7482  0.3443 -0.3991
 3111TIP3    H130824   2.420   3.124   4.674  1.8030 -1.2411 -0.4125
 3111TIP3    H230825   2.549   3.104   4.598 -0.3269 -0.7344 -4.4775
 3112TIP3   OH230826   4.810   1.620  11.117 -0.3373  0.3880 -0.1493
 3112TIP3    H130827   4.852   1.675  11.183  1.1883 -1.0347  0.1494
 3112TIP3    H230828   4.717   1.631  11.132 -0.0296  0.7005  1.7658
 3113TIP3   OH230829   6.589   6.403   2.381 -0.0132  0.3329  0.3257
 3113TIP3    H130830   6.533   6.338   2.339  1.2920 -0.4858 -0.2217
 3113TIP3    H230831   6.677   6.365   2.377  0.1858  0.0061  4.2477
 3114TIP3   OH230832   1.724   2.067   5.106  0.0654 -0.1925 -0.2945
 3114TIP3    H130833   1.814   2.077   5.136  0.3601  0.7664 -1.4447
 3114TIP3    H230834   1.688   2.156   5.104 -1.3981 -0.6693  1.5043
 3115TIP3   OH230835   5.294   2.877  10.798 -0.1505 -0.1533 -0.0459
 3115TIP3    H130836   5.317   2.872  10.706  0.5227  1.9981 -0.0472
 3115TIP3    H230837   5.272   2.787  10.823  1.9347 -1.1810 -1.6939
 3116TIP3   OH230838   0.372   6.381   3.194 -0.3719 -0.5263  0.0478
 3116TIP3    H130839   0.383   6.465   3.238 -0.7673  0.6678 -1.9913
 3116TIP3    H230840   0.388   6.315   3.262  0.3693  1.1804  1.5955
 3117TIP3   OH230841   0.874   2.860  15.811 -0.1211 -0.0732  0.1158
 3117TIP3    H130842   0.947   2.922  15.799 -2.0181  1.9240 -2.3282
 3117TIP3    H230843   0.804   2.913  15.848 -1.5295 -0.9268 -1.2038
 3118TIP3   OH230844   6.605   4.945  13.654  0.2754  0.5633  0.0161
 3118TIP3    H130845   6.699   4.965  13.649  0.3585  0.3634  0.6931
 3118TIP3    H230846   6.576   4.987  13.735 -0.1169  0.2248  0.0535
 3119TIP3   OH230847   4.115   2.405   5.062 -0.3562  0.0473  0.2161
 3119TIP3    H130848   4.032   2.362   5.085 -0.2138  0.4735  1.6584
 3119TIP3    H230849   4.105   2.430   4.971 -1.1416 -1.4416 -0.1375
 3120TIP3   OH230850   2.319   2.207  12.621  0.1745 -0.1454  0.4554
 3120TIP3    H130851   2.384   2.162  12.567 -0.1879  0.9487 -0.9738
 3120TIP3    H230852   2.263   2.138  12.655 -0.7714 -0.8069 -2.2161
 3121TIP3   OH230853   1.756   6.395  11.618 -0.4920 -0.5418 -0.1115
 3121TIP3    H130854   1.681   6.336  11.623  0.6413 -1.9435  1.0425
 3121TIP3    H230855   1.792   6.380  11.530 -0.9603 -0.6156 -0.2942
 3122TIP3   OH230856   0.758   2.525  15.587  0.3156 -0.1283 -0.2197
 3122TIP3    H130857   0.788   2.441  15.621  1.9347  0.7617  0.6789
 3122TIP3    H230858   0.664   2.526  15.604  0.3066 -1.6546 -0.0545
 3123TIP3   OH230859   6.000   3.738  14.070 -0.6600  0.4167 -0.4898
 3123TIP3    H130860   5.914   3.713  14.104 -0.7915  0.8332 -0.5074
 3123TIP3    H230861   5.984   3.818  14.020 -0.1000  1.0967  0.3736
 3124TIP3   OH230862   6.449   0.446   2.206 -0.2388  0.3999  0.0174
 3124TIP3    H130863   6.528   0.454   2.153  0.5747 -0.5549  1.0295
 3124TIP3    H230864   6.383   0.495   2.158  0.1977 -1.1656 -2.3627
 3125TIP3   OH230865   2.754   5.338  14.397 -0.1751  0.0008  0.4223
 3125TIP3    H130866   2.736   5.279  14.469 -0.6160  1.3479  1.4533
 3125TIP3    H230867   2.801   5.412  14.437 -0.2126  0.6660 -0.7034
 3126TIP3   OH230868   3.261   3.392   2.640 -0.0687  0.1019  0.0324
 3126TIP3    H130869   3.308   3.388   2.556  0.0403  1.5417  0.0120
 3126TIP3    H230870   3.184   3.337   2.626 -0.2393  0.6080 -1.1492
 3127TIP3   OH230871   5.903   4.121   0.484 -0.1391 -0.0443 -0.0838
 3127TIP3    H130872   5.975   4.064   0.512 -1.0839 -1.3785 -0.2813
 3127TIP3    H230873   5.945   4.205   0.465  1.3774 -0.8084 -0.2610
 3128TIP3   OH230874   5.474   1.191  14.330  0.2706 -0.3881  0.7808
 3128TIP3    H130875   5.567   1.201  14.351  0.7633  0.7624 -1.5756
 3128TIP3    H230876   5.444   1.279  14.308 -0.6936 -1.0985 -0.9557
 3129TIP3   OH230877   5.057   5.372  12.899 -0.0449 -0.3250  0.0418
 3129TIP3    H130878   4.973   5.339  12.868  0.2804  1.3961 -3.0945
 3129TIP3    H230879   5.057   5.464  12.875  2.0743  0.1652  1.5830
 3130TIP3   OH230880   6.510   5.906  13.458 -0.2919  0.3412  0.3762
 3130TIP3    H130881   6.526   5.814  13.480  0.0414  0.5340  0.9540
 3130TIP3    H230882   6.452   5.903  13.382 -0.8507 -0.3401  0.8235
 3131TIP3   OH230883   6.487   6.201   4.974 -0.5873 -0.2264 -0.4539
 3131TIP3    H130884   6.429   6.277   4.989  0.7441  0.4641  1.6670
 3131TIP3    H230885   6.449   6.132   5.028 -0.2773 -0.2192 -0.2247
 3132TIP3   OH230886   3.344   4.083  13.321 -0.3972  0.9545  0.2186
 3132TIP3    H130887   3.393   4.023  13.377  0.4440  1.1281 -0.3138
 3132TIP3    H230888   3.259   4.092  13.364 -0.1861  0.1589  0.8280
 3133TIP3   OH230889   6.677   3.726   0.328 -0.0115 -0.6528  0.1277
 3133TIP3    H130890   6.606   3.742   0.266 -0.8764  1.0815  1.4605
 3133TIP3    H230891   6.660   3.637   0.360 -3.3027  0.5685  2.3389
 3134TIP3   OH230892   1.829   2.764   3.064 -0.1165  0.0159 -0.9677
 3134TIP3    H130893   1.826   2.838   3.125  0.5612  0.7797 -1.8403
 3134TIP3    H230894   1.759   2.706   3.094 -0.4815  0.8754 -0.0971
 3135TIP3   OH230895   4.107   0.830  16.457 -0.5630  0.5006  0.4790
 3135TIP3    H130896   4.073   0.872  16.377  1.4746  0.1656 -0.6488
 3135TIP3    H230897   4.035   0.775  16.488 -2.5083  2.9624  0.6876
 3136TIP3   OH230898   6.194   4.856  11.144  0.7806  0.4143 -0.0055
 3136TIP3    H130899   6.194   4.779  11.087  1.5571  0.2766  0.1594
 3136TIP3    H230900   6.274   4.903  11.120  0.5974  0.8753  0.2819
 3137TIP3   OH230901   5.195   6.092   0.929 -0.6430 -0.2464  0.9833
 3137TIP3    H130902   5.159   6.013   0.968 -1.3214 -1.1501 -1.2927
 3137TIP3    H230903   5.290   6.079   0.931 -0.7396 -1.0072  0.8975
 3138TIP3   OH230904   5.314   4.497   5.467 -0.3469  0.5548  0.6852
 3138TIP3    H130905   5.328   4.411   5.508 -1.5322 -0.4142 -0.8371
 3138TIP3    H230906   5.394   4.545   5.485  0.1007 -0.6277  2.1177
 3139TIP3   OH230907   0.145   4.391  12.718 -0.2803 -0.8700 -0.1124
 3139TIP3    H130908   0.091   4.412  12.794 -2.0533 -3.0217 -0.6829
 3139TIP3    H230909   0.083   4.380  12.646  0.9246 -2.7074 -0.9548
 3140TIP3   OH230910   2.368   0.290  10.413 -0.5655 -0.4501  0.4916
 3140TIP3    H130911   2.436   0.357  10.405 -1.6371  0.6147 -0.1217
 3140TIP3    H230912   2.292   0.328  10.368 -1.9803 -1.0436  2.2901
 3141TIP3   OH230913   2.646   4.117  13.875 -0.0536 -0.6366 -0.9176
 3141TIP3    H130914   2.602   4.127  13.960  0.5978  0.3982 -0.6913
 3141TIP3    H230915   2.611   4.035  13.840 -1.9701 -0.0110 -0.6195
 3142TIP3   OH230916   4.264   6.365   2.357 -0.0585 -0.4357 -0.6228
 3142TIP3    H130917   4.312   6.327   2.430 -0.6313  0.2985  0.1572
 3142TIP3    H230918   4.174   6.373   2.388 -0.1649  0.5803 -1.1259
 3143TIP3   OH230919   4.047   2.344   4.578  0.0631 -0.0767  0.1006
 3143TIP3    H130920   4.021   2.253   4.565 -2.5331  0.6534 -0.3050
 3143TIP3    H230921   3.965   2.392   4.584  1.3521  2.4387 -1.0205
 3144TIP3   OH230922   0.111   4.341   1.924 -0.1826 -0.2255  0.6365
 3144TIP3    H130923   0.064   4.261   1.948 -1.2368  0.1542 -0.0829
 3144TIP3    H230924   0.042   4.405   1.906  0.6328  0.9054  1.3455
 3145TIP3   OH230925   3.655   1.367   2.316 -0.4129  0.0698 -0.3224
 3145TIP3    H130926   3.703   1.314   2.381 -0.2076  0.0328 -0.5012
 3145TIP3    H230927   3.710   1.444   2.303 -1.1348  0.7588  0.5845
 3146TIP3   OH230928   4.546   3.416   2.951  0.3852  0.7374 -0.5257
 3146TIP3    H130929   4.613   3.403   2.884  0.0654 -2.5003 -0.4079
 3146TIP3    H230930   4.475   3.461   2.906  0.1282 -1.4408 -2.4861
 3147TIP3   OH230931   5.563   4.091  15.925  0.2448 -0.4979 -0.1938
 3147TIP3    H130932   5.635   4.089  15.989  0.5792  2.0046 -0.4055
 3147TIP3    H230933   5.485   4.107  15.978  0.1427 -1.0700 -0.1693
 3148TIP3   OH230934   5.070   2.640  13.439 -0.3594  0.1223  0.1878
 3148TIP3    H130935   5.152   2.644  13.489 -0.7838 -0.6875  0.9768
 3148TIP3    H230936   5.085   2.697  13.364  0.4488  1.0262  1.0137
 3149TIP3   OH230937   1.323   4.489   4.968 -0.0755  0.2482  0.7289
 3149TIP3    H130938   1.239   4.515   5.005  0.1239 -1.3005  2.4266
 3149TIP3    H230939   1.304   4.467   4.877 -1.6600 -0.6142  1.2290
 3150TIP3   OH230940   6.145   3.383  12.685  0.3119  0.4953 -0.0599
 3150TIP3    H130941   6.066   3.329  12.681  0.3439  0.4974 -0.7282
 3150TIP3    H230942   6.184   3.376  12.598  1.2792  0.1494  0.3824
 3151TIP3   OH230943   0.710   3.865   3.113 -0.5600  0.4988 -0.7272
 3151TIP3    H130944   0.713   3.867   3.209  1.5267  0.1643 -0.7378
 3151TIP3    H230945   0.617   3.856   3.093 -0.9186 -1.5585  1.3417
 3152TIP3   OH230946   0.969   0.881   1.130  0.0679  0.0070  0.0352
 3152TIP3    H130947   0.940   0.790   1.122 -0.1923  0.2578 -2.5629
 3152TIP3    H230948   0.903   0.922   1.185  1.4844 -1.8256  3.4353
 3153TIP3   OH230949   6.250   1.909   3.973 -0.0251 -0.3368 -0.2156
 3153TIP3    H130950   6.299   1.849   4.029 -1.0443 -0.4920  0.5433
 3153TIP3    H230951   6.275   1.996   4.004  0.2775 -0.3963 -0.2877
 3154TIP3   OH230952   1.494   6.406  15.174  0.0551  0.3571  0.0793
 3154TIP3    H130953   1.564   6.464  15.204  0.7081 -0.8271  0.9484
 3154TIP3    H230954   1.462   6.365  15.255  0.4996 -1.4559 -0.6366
 3155TIP3   OH230955   0.103   0.808   2.490  0.6601  0.2401 -0.0354
 3155TIP3    H130956   0.124   0.902   2.490  0.6109  0.3710 -3.3356
 3155TIP3    H230957   0.168   0.769   2.432  0.7375 -1.8452  1.3667
 3156TIP3   OH230958   4.252   0.208   1.664 -0.3429 -0.4400 -0.2157
 3156TIP3    H130959   4.243   0.263   1.742 -0.7289 -1.8434  0.7588
 3156TIP3    H230960   4.269   0.270   1.593 -0.9459  0.9445  0.8083
 3157TIP3   OH230961   1.702   0.228   5.024  0.9269 -0.1986 -0.4148
 3157TIP3    H130962   1.779   0.200   5.074  0.5011 -1.1959 -0.2956
 3157TIP3    H230963   1.635   0.244   5.090  1.1876  1.2673 -0.4695
 3158TIP3   OH230964   0.022   1.253  16.183 -0.3836 -0.1760 -0.2375
 3158TIP3    H130965   0.102   1.208  16.210  1.0353  0.8353 -2.5057
 3158TIP3    H230966   0.010   1.321  16.249 -1.7065 -2.6959  2.3783
 3159TIP3   OH230967   2.662   0.359  11.082 -0.6506 -0.1729  0.5063
 3159TIP3    H130968   2.604   0.401  11.145  0.0308 -0.6745  1.4833
 3159TIP3    H230969   2.729   0.317  11.135  0.7231  0.5443 -0.5897
 3160TIP3   OH230970   4.395   4.270  16.500 -0.2548 -0.0039  0.2046
 3160TIP3    H130971   4.372   4.262  16.593 -0.1863 -0.6665  0.1660
 3160TIP3    H230972   4.479   4.226  16.493 -1.4202 -2.2361 -0.6433
 3161TIP3   OH230973   4.673   4.627   5.143  0.0775  0.1962 -0.0358
 3161TIP3    H130974   4.742   4.605   5.204  1.1579 -2.7501 -2.0784
 3161TIP3    H230975   4.592   4.608   5.190  0.5781  2.4843  1.9522
 3162TIP3   OH230976   3.531   5.127  14.483  0.4250  0.1929  0.4052
 3162TIP3    H130977   3.501   5.206  14.439 -0.0313 -0.3588 -0.2982
 3162TIP3    H230978   3.468   5.113  14.553  1.2771  1.1967  1.4250
 3163TIP3   OH230979   3.011   3.640   2.832 -0.1752  0.2159 -0.0705
 3163TIP3    H130980   3.060   3.647   2.750 -0.2802 -1.5839 -0.3276
 3163TIP3    H230981   2.964   3.723   2.839  1.5630  1.2896 -0.6902
 3164TIP3   OH230982   0.227   3.172   6.497  0.0802  0.0853 -0.0558
 3164TIP3    H130983   0.274   3.244   6.539  2.7678 -0.3242 -2.0697
 3164TIP3    H230984   0.263   3.093   6.537 -0.9922 -0.2194  0.3447
 3165TIP3   OH230985   5.195   3.388  13.583 -0.1288  0.2526 -0.0833
 3165TIP3    H130986   5.126   3.349  13.528  1.1745  0.5934 -2.0813
 3165TIP3    H230987   5.193   3.337  13.664 -0.1331 -2.4183 -1.6290
 3166TIP3   OH230988   6.754   6.325  14.230  1.2453  0.3831  0.4671
 3166TIP3    H130989   6.821   6.312  14.163  0.5617  0.4191 -0.2452
 3166TIP3    H230990   6.684   6.372  14.185  1.3997  1.7860  1.6120
 3167TIP3   OH230991   3.198   1.160  16.720  0.6882 -0.5033 -0.9891
 3167TIP3    H130992   3.154   1.186  16.801 -0.7062 -1.5867 -1.3487
 3167TIP3    H230993   3.170   1.225  16.656 -2.1193 -2.2095 -1.6867
 3168TIP3   OH230994   6.358   3.883  10.439 -1.0922  0.2722 -0.5297
 3168TIP3    H130995   6.305   3.957  10.409 -0.6250  0.7190 -0.2713
 3168TIP3    H230996   6.308   3.844  10.510  0.0284  2.2114  1.4280
 3169TIP3   OH230997   5.748   3.504   4.865  0.5956 -0.0504 -0.4354
 3169TIP3    H130998   5.843   3.503   4.876  0.5005  1.5830  1.0155
 3169TIP3    H230999   5.728   3.593   4.837 -0.8114  1.2742  3.8975
 3170TIP3   OH231000   6.087   4.819  15.831 -0.5460  0.4924  0.0123
 3170TIP3    H131001   6.173   4.847  15.862  0.7384 -2.3443 -0.6086
 3170TIP3    H231002   6.090   4.835  15.736  0.0590 -1.1876 -0.2892
 3171TIP3   OH231003   0.230   5.382   0.881 -0.8253 -0.4778 -0.3346
 3171TIP3    H131004   0.139   5.351   0.881 -0.8895 -0.3705 -1.7468
 3171TIP3    H231005   0.240   5.424   0.795  0.1122  0.8707  0.3977
 3172TIP3   OH231006   5.005   5.452  16.686 -0.2442 -0.4255  0.5972
 3172TIP3    H131007   5.062   5.520  16.722  0.8845 -1.2303  0.3605
 3172TIP3    H231008   4.935   5.501  16.642  1.4810  0.6605 -1.1108
 3173TIP3   OH231009   1.425   4.728  15.700 -0.0788 -0.0781  0.3411
 3173TIP3    H131010   1.397   4.807  15.655  4.1538  0.8469 -1.0642
 3173TIP3    H231011   1.406   4.657  15.638  0.3263  0.4392 -0.3828
 3174TIP3   OH231012   4.355   0.879   1.682 -0.0879 -0.5472 -0.7072
 3174TIP3    H131013   4.284   0.887   1.747  1.2512 -2.2558  1.0861
 3174TIP3    H231014   4.320   0.817   1.617 -0.5641 -0.6845 -0.3297
 3175TIP3   OH231015   2.703   3.620   0.341  0.3926 -0.3721  0.0566
 3175TIP3    H131016   2.714   3.542   0.287  0.9827 -0.1938 -0.0936
 3175TIP3    H231017   2.711   3.587   0.431 -1.6309 -0.8336  0.1028
 3176TIP3   OH231018   3.335   6.034  15.685  0.5105 -0.5243  0.1783
 3176TIP3    H131019   3.330   6.127  15.704  1.7557 -0.7448  1.8967
 3176TIP3    H231020   3.421   6.022  15.646 -0.2858 -0.7543 -1.5846
 3177TIP3   OH231021   2.906   2.062   3.486  0.3136 -0.2580  0.4648
 3177TIP3    H131022   2.885   2.104   3.570 -1.1688  0.1808 -0.0946
 3177TIP3    H231023   2.931   2.134   3.429  1.8140 -0.6087  0.6393
 3178TIP3   OH231024   3.524   4.095   1.315 -0.0253  0.3061  0.0518
 3178TIP3    H131025   3.474   4.101   1.234  0.1777 -0.3353 -0.1312
 3178TIP3    H231026   3.596   4.036   1.294 -1.1369 -1.5942  1.2540
 3179TIP3   OH231027   5.877   4.943   2.864  0.3322 -0.6337  0.4489
 3179TIP3    H131028   5.905   4.997   2.790 -2.4263  0.7841  0.3347
 3179TIP3    H231029   5.900   4.854   2.839  1.0583  0.0043 -1.3105
 3180TIP3   OH231030   0.348   0.334   3.242  0.0211 -0.4357  0.9231
 3180TIP3    H131031   0.341   0.396   3.315  0.0055  1.2864 -0.4806
 3180TIP3    H231032   0.268   0.283   3.245  0.2569 -0.7597  2.4104
 3181TIP3   OH231033   4.817   2.338  13.657  0.1611  0.3514 -0.3925
 3181TIP3    H131034   4.746   2.290  13.614  1.5360 -2.1869 -0.0210
 3181TIP3    H231035   4.779   2.368  13.739 -0.6907 -0.4148 -0.4890
 3182TIP3   OH231036   3.700   5.303   0.647 -0.3043 -0.0623 -0.0899
 3182TIP3    H131037   3.646   5.228   0.621 -0.0744 -0.3682  0.3172
 3182TIP3    H231038   3.773   5.302   0.585 -0.4902  0.0396 -0.3111
 3183TIP3   OH231039   0.390   0.985  12.124 -0.3452 -0.9534  0.6459
 3183TIP3    H131040   0.365   1.077  12.114 -0.5446 -0.8590  1.7912
 3183TIP3    H231041   0.341   0.956  12.202 -0.6447 -2.1586  0.0364
 3184TIP3   OH231042   6.118   1.110  16.538 -0.5813  0.0820 -0.2356
 3184TIP3    H131043   6.150   1.200  16.542 -0.0395 -0.1333  0.5907
 3184TIP3    H231044   6.060   1.102  16.614 -0.0861 -0.4490  0.1061
 3185TIP3   OH231045   6.777   4.769  12.522  0.2710 -0.0687  0.1939
 3185TIP3    H131046   6.839   4.818  12.468  0.1082 -1.4658 -1.3480
 3185TIP3    H231047   6.758   4.690  12.471 -2.0361 -0.1439  1.0437
 3186TIP3   OH231048   6.454   1.030  15.990  0.3415 -0.0751 -0.2202
 3186TIP3    H131049   6.550   1.038  15.990  0.4093  0.8920  2.9785
 3186TIP3    H231050   6.423   1.111  15.949  1.0281  1.7133  2.5007
 3187TIP3   OH231051   1.780   0.720   1.436 -0.2365 -0.2583  0.4244
 3187TIP3    H131052   1.869   0.751   1.450  0.7182 -2.1310 -1.1033
 3187TIP3    H231053   1.778   0.633   1.477  0.2147 -2.3454 -3.4924
 3188TIP3   OH231054   1.264   3.645  14.066  0.2839  0.3418 -0.7146
 3188TIP3    H131055   1.210   3.689  14.132 -2.4842 -0.8306 -2.0387
 3188TIP3    H231056   1.329   3.597  14.117 -2.4764 -1.4934  1.3589
 3189TIP3   OH231057   1.969   2.342   3.430  0.0630  0.2923 -0.2526
 3189TIP3    H131058   2.057   2.372   3.409  1.3284 -2.4042  0.7398
 3189TIP3    H231059   1.915   2.371   3.356  1.4282  3.1943 -0.2307
 3190TIP3   OH231060   1.602   0.282   1.831  0.0917  0.1836 -0.0247
 3190TIP3    H131061   1.533   0.245   1.775 -0.2415 -1.4780  1.4045
 3190TIP3    H231062   1.563   0.361   1.868  0.7995  2.1664 -3.1165
 3191TIP3   OH231063   6.762   1.074   3.532  0.3615 -0.2196 -0.0374
 3191TIP3    H131064   6.792   0.989   3.566 -0.2549 -0.6235 -0.4954
 3191TIP3    H231065   6.692   1.053   3.470 -0.4067  0.6693  0.4948
 3192TIP3   OH231066   5.657   5.711  12.664 -0.2838 -0.3133 -0.1210
 3192TIP3    H131067   5.708   5.784  12.630 -0.6116  0.1169  0.3047
 3192TIP3    H231068   5.690   5.635  12.616  1.2399 -0.1586  0.6364
 3193TIP3   OH231069   1.701   1.674  17.187 -0.1365 -0.1829 -0.6306
 3193TIP3    H131070   1.703   1.613  17.261  1.2825 -1.4695 -1.6899
 3193TIP3    H231071   1.663   1.754  17.224  0.0138 -0.9623  1.3442
 3194TIP3   OH231072   2.095   0.352   2.995  0.3730  0.0461 -0.3446
 3194TIP3    H131073   2.012   0.375   3.037  0.8425 -1.6372  1.7395
 3194TIP3    H231074   2.147   0.432   2.999  0.4955 -0.0429  2.7926
 3195TIP3   OH231075   4.256   0.290  11.012 -0.2878 -0.5462 -0.2050
 3195TIP3    H131076   4.262   0.378  10.976 -0.2254 -0.2882  0.4161
 3195TIP3    H231077   4.291   0.233  10.944  2.1241  0.1510  0.3572
 3196TIP3   OH231078   1.917   1.648  16.511  0.1814  0.1178 -0.2013
 3196TIP3    H131079   1.919   1.698  16.430  1.7607 -0.7743 -0.7635
 3196TIP3    H231080   1.842   1.590  16.502 -0.2682  0.7460 -0.5612
 3197TIP3   OH231081   0.470   2.321   0.502 -0.6376  0.1108 -0.3468
 3197TIP3    H131082   0.463   2.248   0.441  1.0712  0.0171 -0.4839
 3197TIP3    H231083   0.468   2.399   0.446  1.6505  0.0038 -0.6585
 3198TIP3   OH231084   2.862   1.385  16.586  0.4577 -0.7711 -0.4861
 3198TIP3    H131085   2.928   1.425  16.643  0.2876 -3.1204  1.4975
 3198TIP3    H231086   2.780   1.430  16.609  0.7423 -0.3239 -0.3378
 3199TIP3   OH231087   4.475   1.566   0.764 -0.3793 -0.0961 -0.1313
 3199TIP3    H131088   4.450   1.506   0.694  1.4426 -0.0069 -0.9133
 3199TIP3    H231089   4.397   1.620   0.778 -1.0625 -0.6617 -1.5162
 3200TIP3   OH231090   4.905   2.954  11.791  0.4240  0.3132 -0.4063
 3200TIP3    H131091   4.942   2.948  11.703  1.1174  0.9688 -0.1771
 3200TIP3    H231092   4.979   2.941  11.849  0.2255  1.1697  0.0682
 3201TIP3   OH231093   3.517   6.478  11.740 -0.2415  0.2614 -0.5612
 3201TIP3    H131094   3.447   6.432  11.786  0.0633 -0.1759 -0.5157
 3201TIP3    H231095   3.578   6.504  11.809  0.2397 -0.4361 -0.7083
 3202TIP3   OH231096   2.157   6.213  11.252  0.0727 -0.2100  0.1113
 3202TIP3    H131097   2.188   6.137  11.203 -1.0545 -0.4791 -0.2116
 3202TIP3    H231098   2.191   6.288  11.203 -1.4553 -0.4589 -1.4506
 3203TIP3   OH231099   0.365   4.722  15.369 -0.1501 -0.3140 -0.9939
 3203TIP3    H131100   0.301   4.739  15.300  0.0362 -1.0430 -1.3546
 3203TIP3    H231101   0.425   4.658  15.331  0.9921  0.5894 -0.7920
 3204TIP3   OH231102   3.601   3.477  11.122  0.1611  0.2611 -0.2038
 3204TIP3    H131103   3.622   3.476  11.029 -0.0253 -0.1664 -0.2461
 3204TIP3    H231104   3.559   3.562  11.136 -1.3038 -0.3097 -0.8622
 3205TIP3   OH231105   2.558   1.812   3.208 -0.0477  0.6466  0.1931
 3205TIP3    H131106   2.563   1.828   3.302 -1.6239  0.5737  0.3166
 3205TIP3    H231107   2.464   1.804   3.190  0.3010 -0.8095 -1.1485
 3206TIP3   OH231108   1.838   4.251   0.377  0.1210 -0.1610  0.3663
 3206TIP3    H131109   1.763   4.259   0.317  1.0890  3.1683 -0.5817
 3206TIP3    H231110   1.914   4.268   0.323  1.3121 -0.2031  1.9661
 3207TIP3   OH231111   5.009   2.763   6.764 -0.0931  0.4272 -0.0332
 3207TIP3    H131112   5.044   2.726   6.845  1.4713 -0.2595 -0.9663
 3207TIP3    H231113   4.950   2.833   6.793 -0.4008 -0.4936  1.6967
 3208TIP3   OH231114   6.228   0.582  12.570  0.0142  0.4162  0.3410
 3208TIP3    H131115   6.226   0.504  12.514 -3.4393 -0.3174  1.2157
 3208TIP3    H231116   6.208   0.549  12.657 -4.8328  2.3201  0.2699
 3209TIP3   OH231117   0.822   6.355  13.604 -0.1801  0.0664  0.2271
 3209TIP3    H131118   0.875   6.310  13.538 -0.6453 -0.9319  0.5092
 3209TIP3    H231119   0.841   6.309  13.686 -0.3151  0.6888  0.6145
 3210TIP3   OH231120   4.968   2.759  16.954 -1.0273  0.4294 -0.1991
 3210TIP3    H131121   4.979   2.770  17.049  2.0779 -0.1879 -0.3771
 3210TIP3    H231122   4.960   2.849  16.921  2.1355  1.0293  0.3522
 3211TIP3   OH231123   0.716   1.266   3.879  0.0968 -0.2929 -0.2288
 3211TIP3    H131124   0.668   1.193   3.918  0.5254 -0.1535  0.5762
 3211TIP3    H231125   0.761   1.307   3.952  0.4021  0.3744 -0.7773
 3212TIP3   OH231126   2.533   1.399   3.849 -0.3653  0.3490  0.0174
 3212TIP3    H131127   2.464   1.334   3.835 -0.1405  0.3645 -1.2364
 3212TIP3    H231128   2.544   1.442   3.765  0.3394  1.1889  0.5168
 3213TIP3   OH231129   0.997   5.822  14.229 -0.6428 -0.0737  0.0283
 3213TIP3    H131130   0.909   5.856  14.241 -1.3032 -0.7240 -2.3968
 3213TIP3    H231131   1.001   5.744  14.284 -2.0171 -0.6658 -0.6577
 3214TIP3   OH231132   1.442   3.666  11.408  0.0087 -0.1004 -0.0234
 3214TIP3    H131133   1.536   3.654  11.415 -0.2636 -3.1533 -0.3389
 3214TIP3    H231134   1.428   3.699  11.320  0.7602  0.0181 -0.1000
 3215TIP3   OH231135   5.173   1.217  14.045  0.0963 -0.4130  0.1121
 3215TIP3    H131136   5.199   1.209  13.953  1.3937  3.2218  0.0145
 3215TIP3    H231137   5.116   1.294  14.047 -0.2585 -0.6672  2.3271
 3216TIP3   OH231138   3.890   6.762  13.057 -0.9331 -0.2836 -0.6294
 3216TIP3    H131139   3.970   6.738  13.105 -1.2671 -0.1894 -0.0072
 3216TIP3    H231140   3.922   6.811  12.981 -0.4195  0.4183  0.0171
 3217TIP3   OH231141   5.836   0.726  12.711 -0.2511 -0.5880  0.2466
 3217TIP3    H131142   5.772   0.783  12.668  0.5483 -0.9128 -1.4765
 3217TIP3    H231143   5.797   0.704  12.796 -0.6971  2.3011  0.8769
 3218TIP3   OH231144   1.423   5.529  16.654  0.3116 -0.0914 -0.5097
 3218TIP3    H131145   1.420   5.531  16.559 -0.3696 -1.5383 -0.5523
 3218TIP3    H231146   1.387   5.443  16.677  0.6630  0.1440  1.0407
 3219TIP3   OH231147   5.859   3.010  11.379 -0.0474  0.8718  0.2732
 3219TIP3    H131148   5.798   3.006  11.452 -0.2809  0.0235  0.0401
 3219TIP3    H231149   5.806   2.991  11.302  0.4115  0.6350  0.0115
 3220TIP3   OH231150   4.555   3.049   0.982 -0.3455 -0.3231 -0.1306
 3220TIP3    H131151   4.631   3.062   1.039 -0.3150  1.2515 -0.4925
 3220TIP3    H231152   4.566   2.961   0.947  0.8145 -0.4686  0.5693
 3221TIP3   OH231153   6.470   0.746   2.031  0.7401 -0.2956 -0.4628
 3221TIP3    H131154   6.503   0.664   1.995 -0.7931 -1.1281 -0.0416
 3221TIP3    H231155   6.405   0.775   1.968 -0.1311 -0.4379  0.3516
 3222TIP3   OH231156   0.861   3.761  13.534 -1.2474  0.0534 -0.2213
 3222TIP3    H131157   0.836   3.674  13.501  1.7710 -0.6491 -0.9491
 3222TIP3    H231158   0.900   3.743  13.620  0.7065  0.4407 -0.9858
 3223TIP3   OH231159   0.787   0.494   3.908 -0.1277 -0.8674 -0.2122
 3223TIP3    H131160   0.768   0.406   3.942 -0.9183  0.1297  2.2142
 3223TIP3    H231161   0.882   0.497   3.900 -0.1601 -2.3054 -1.4837
 3224TIP3   OH231162   5.663   3.979  16.710 -0.2009  0.0904  0.2732
 3224TIP3    H131163   5.587   3.929  16.680 -0.1282  0.7806 -1.1480
 3224TIP3    H231164   5.729   3.966  16.641 -0.4526  2.7268 -0.5905
 3225TIP3   OH231165   3.284   1.614  16.870  0.1287  0.5494 -0.1476
 3225TIP3    H131166   3.283   1.692  16.925  2.0974  0.8622 -0.5014
 3225TIP3    H231167   3.314   1.644  16.784  1.5787 -0.6466 -0.1168
 3226TIP3   OH231168   3.455   3.239   3.188  0.0497  0.3538 -0.6787
 3226TIP3    H131169   3.422   3.284   3.110 -1.2546  1.1165  0.2714
 3226TIP3    H231170   3.513   3.303   3.230  0.3560  0.1248 -0.7418
 3227TIP3   OH231171   6.097   3.681   1.639  0.4862 -0.0426 -0.0007
 3227TIP3    H131172   6.146   3.600   1.651 -1.0064 -0.7868  1.4559
 3227TIP3    H231173   6.107   3.702   1.546  0.7295 -1.9994 -0.4568
 3228TIP3   OH231174   4.550   6.638  12.970 -0.1765  0.1518  0.3368
 3228TIP3    H131175   4.456   6.645  12.988 -0.5473  2.5607 -1.9143
 3228TIP3    H231176   4.560   6.554  12.925 -1.6613  0.7402 -1.2211
 3229TIP3   OH231177   0.631   4.220   3.397  0.1135 -0.8204 -0.3435
 3229TIP3    H131178   0.613   4.197   3.488  1.1245 -0.1359  0.0439
 3229TIP3    H231179   0.591   4.306   3.386  0.8435 -0.4690 -0.2543
 3230TIP3   OH231180   2.914   2.854   4.688 -0.3228 -1.1168 -0.6072
 3230TIP3    H131181   2.914   2.808   4.772 -0.9442 -0.2589 -0.1231
 3230TIP3    H231182   2.995   2.906   4.690 -0.3476 -1.0805 -0.5273
 3231TIP3   OH231183   1.057   6.099  11.471 -0.6306 -0.0270 -0.0733
 3231TIP3    H131184   1.064   6.010  11.438 -0.0792 -1.3551  3.2392
 3231TIP3    H231185   0.967   6.125  11.453 -0.9613 -1.4843 -0.6073
 3232TIP3   OH231186   0.967   3.951   4.235 -0.1627 -0.3171  0.6719
 3232TIP3    H131187   0.952   4.030   4.287  2.3076 -0.2575  1.4580
 3232TIP3    H231188   0.907   3.886   4.270  0.3056  0.1964  2.5159
 3233TIP3   OH231189   3.183   1.562   4.709  0.5991  0.6026  0.6571
 3233TIP3    H131190   3.194   1.514   4.791 -1.8271  1.0779  1.3401
 3233TIP3    H231191   3.092   1.547   4.684  1.4314 -0.1542 -2.4186
 3234TIP3   OH231192   1.632   0.340   0.702  0.2781 -0.3888 -0.4536
 3234TIP3    H131193   1.691   0.385   0.642 -1.2807  2.0467 -0.2950
 3234TIP3    H231194   1.687   0.321   0.779  2.2296 -3.3480 -2.3517
 3235TIP3   OH231195   6.403   5.374   0.508 -0.4283  0.1636 -0.2227
 3235TIP3    H131196   6.363   5.308   0.452 -1.3079 -1.9342  2.6714
 3235TIP3    H231197   6.335   5.439   0.522 -0.8702 -0.3366 -0.0246
 3236TIP3   OH231198   3.548   0.257  13.892 -0.1596 -0.7985 -0.1595
 3236TIP3    H131199   3.587   0.218  13.971  1.5584 -0.7815 -0.9638
 3236TIP3    H231200   3.566   0.193  13.823  2.0075  0.9492 -1.3494
 3237TIP3   OH231201   2.227   3.402  12.784  0.7856  0.0888  0.2336
 3237TIP3    H131202   2.168   3.417  12.710  0.9945 -0.5721 -0.0759
 3237TIP3    H231203   2.314   3.396  12.744  0.7394 -1.7652  0.3299
 3238TIP3   OH231204   4.484   2.935   6.489  0.2732  0.3396 -0.1605
 3238TIP3    H131205   4.408   2.918   6.433  1.1517  0.4925 -1.4537
 3238TIP3    H231206   4.528   3.009   6.447  0.5269  0.9859  1.2128
 3239TIP3   OH231207   5.182   1.822   2.194 -0.0750  0.4754 -0.5075
 3239TIP3    H131208   5.249   1.888   2.179  0.3139  0.3122  0.4077
 3239TIP3    H231209   5.209   1.747   2.141  0.1451  0.6150 -0.5918
 3240TIP3   OH231210   3.423   3.683  12.446 -0.1159  0.1364 -0.4127
 3240TIP3    H131211   3.329   3.670  12.430 -0.4449  1.4299  0.3391
 3240TIP3    H231212   3.466   3.640  12.372 -1.1311 -3.4464  0.8632
 3241TIP3   OH231213   2.363   6.551   5.155  0.2875  0.2303  0.2730
 3241TIP3    H131214   2.406   6.570   5.071  1.1792  0.5871  0.7906
 3241TIP3    H231215   2.304   6.625   5.168 -0.8342 -0.4698 -0.6444
 3242TIP3   OH231216   2.089   4.603  12.845 -0.2471  0.1236  0.1116
 3242TIP3    H131217   2.031   4.679  12.853 -1.4437 -0.6779 -0.5826
 3242TIP3    H231218   2.137   4.600  12.927 -3.1209 -0.7064  1.8998
 3243TIP3   OH231219   1.492   1.201  12.135  0.5433  0.4362  0.3971
 3243TIP3    H131220   1.448   1.123  12.102  1.6614 -0.1230  0.1842
 3243TIP3    H231221   1.423   1.251  12.180 -0.3541 -0.2547 -0.1935
 3244TIP3   OH231222   2.860   6.022  16.268  0.0619 -0.0321 -0.4630
 3244TIP3    H131223   2.782   6.063  16.306  0.4629  1.6984 -1.3741
 3244TIP3    H231224   2.885   6.080  16.197  1.8510 -0.8570 -0.5705
 3245TIP3   OH231225   4.571   0.422  10.888 -0.1154  0.3031  0.0439
 3245TIP3    H131226   4.562   0.346  10.831  0.1904  0.0718  0.3004
 3245TIP3    H231227   4.656   0.409  10.932 -0.2056  0.6334  0.3202
 3246TIP3   OH231228   5.683   4.635  13.831 -0.2146  0.4866 -0.1758
 3246TIP3    H131229   5.696   4.563  13.769  1.5610  0.9997 -0.4516
 3246TIP3    H231230   5.712   4.713  13.784 -0.4753  1.1414  0.7203
 3247TIP3   OH231231   6.549   0.082  11.750 -0.2354  0.2538 -0.5960
 3247TIP3    H131232   6.546   0.176  11.734 -0.5769  0.0615 -1.7315
 3247TIP3    H231233   6.574   0.044  11.666  0.2725 -0.6526 -0.0566
 3248TIP3   OH231234   4.389   0.999  11.053 -0.2432 -0.2121  0.2720
 3248TIP3    H131235   4.390   0.948  11.134  0.8526 -3.0958 -1.4073
 3248TIP3    H231236   4.325   1.068  11.069  0.9761  0.2669  4.0628
 3249TIP3   OH231237   0.250   0.715   3.704  0.6902 -0.3475 -0.4136
 3249TIP3    H131238   0.334   0.730   3.747  0.9445  0.0829 -1.0464
 3249TIP3    H231239   0.237   0.621   3.708  2.0905 -0.6437 -1.9243
 3250TIP3   OH231240   6.294   6.499   0.939 -0.0382  0.2765  0.0214
 3250TIP3    H131241   6.378   6.532   0.970 -0.0627  0.2236  0.1444
 3250TIP3    H231242   6.254   6.574   0.895 -0.5617  0.7434  1.2448
 3251TIP3   OH231243   6.139   0.475  12.309  0.7204  0.5080 -0.4928
 3251TIP3    H131244   6.124   0.413  12.381 -0.6664  2.0278  0.6013
 3251TIP3    H231245   6.174   0.421  12.238 -1.1121 -1.6799  0.1362
 3252TIP3   OH231246   1.825   6.780  13.542 -1.0000  0.2518 -0.0492
 3252TIP3    H131247   1.754   6.845  13.544 -1.4307 -0.2209  1.6428
 3252TIP3    H231248   1.800   6.715  13.608  0.0357 -0.9939 -0.8328
 3253TIP3   OH231249   0.593   5.505  13.764 -0.0054 -0.4775 -0.3786
 3253TIP3    H131250   0.641   5.530  13.843  0.5310 -1.7690 -0.2810
 3253TIP3    H231251   0.589   5.586  13.712 -0.0898  0.3079  0.8108
 3254TIP3   OH231252   4.850   0.844  10.600  0.1581  0.0237  0.0954
 3254TIP3    H131253   4.909   0.888  10.662  0.2383  0.9467 -0.6203
 3254TIP3    H231254   4.889   0.861  10.514 -2.1325  2.3089 -0.6046
 3255TIP3   OH231255   1.863   0.063   4.272 -0.2317 -0.1365 -0.0767
 3255TIP3    H131256   1.904   0.025   4.194 -0.2838 -0.0725 -0.1351
 3255TIP3    H231257   1.895   0.009   4.344 -2.1000 -1.7592 -0.3734
 3256TIP3   OH231258   6.178   1.161  11.751  0.1164 -0.0660 -0.2398
 3256TIP3    H131259   6.188   1.136  11.659 -0.3058  1.7846 -0.8273
 3256TIP3    H231260   6.162   1.256  11.748  1.6553  0.3167  1.8222
 3257TIP3   OH231261   0.831   5.740  12.133  0.0818  0.1103 -0.2853
 3257TIP3    H131262   0.844   5.647  12.118  0.1757  0.0010  0.4117
 3257TIP3    H231263   0.765   5.743  12.203  0.1963  0.5620 -0.1954
 3258TIP3   OH231264   5.375   5.949  13.376 -0.1166  0.2540  0.1745
 3258TIP3    H131265   5.352   5.942  13.283  0.5734  2.1989 -0.1885
 3258TIP3    H231266   5.459   5.904  13.384 -0.7419 -0.9523  0.1189
 3259TIP3   OH231267   0.142   1.506   3.221 -0.4327 -0.2089  1.0331
 3259TIP3    H131268   0.055   1.485   3.188 -1.0381  0.5686  2.0923
 3259TIP3    H231269   0.185   1.552   3.149 -0.9106 -0.5634  0.5199
 3260TIP3   OH231270   0.497   2.077   1.139  0.8278 -0.1721  0.6310
 3260TIP3    H131271   0.576   2.112   1.180 -0.2489  1.0634  1.7444
 3260TIP3    H231272   0.465   2.148   1.083  0.9181 -0.9442 -0.4266
 3261TIP3   OH231273   0.482   5.844  13.106  0.1621  0.0108 -0.9216
 3261TIP3    H131274   0.515   5.754  13.109  2.5612  0.6783 -3.3344
 3261TIP3    H231275   0.391   5.835  13.075 -0.3452 -1.6324  0.8778
 3262TIP3   OH231276   6.615   3.413   5.049 -0.7899  0.3574 -0.0067
 3262TIP3    H131277   6.645   3.464   4.974  0.1366  1.4868  1.0895
 3262TIP3    H231278   6.539   3.365   5.016 -0.1884  0.5202 -1.7644
 3263TIP3   OH231279   3.270   3.793  15.716  0.2568 -0.4711  0.3307
 3263TIP3    H131280   3.229   3.878  15.705  1.6241  0.2574  0.6300
 3263TIP3    H231281   3.217   3.748  15.781  0.2889  0.6771  1.1693
 3264TIP3   OH231282   6.155   1.137   2.750  0.1043  0.0628  0.5633
 3264TIP3    H131283   6.113   1.120   2.834  0.6733 -0.0295  0.8295
 3264TIP3    H231284   6.191   1.226   2.758 -0.0718  0.1594  0.3184
 3265TIP3   OH231285   1.954   3.233   4.590 -0.3983  0.2007 -0.5117
 3265TIP3    H131286   1.934   3.220   4.497  2.7754  0.4012 -1.3250
 3265TIP3    H231287   1.907   3.313   4.613 -0.6467  0.5691 -2.1513
 3266TIP3   OH231288   3.690   6.738   4.130  0.1038  0.0139 -0.3504
 3266TIP3    H131289   3.752   6.731   4.058  0.3093  1.7135 -0.3923
 3266TIP3    H231290   3.718   6.672   4.194  0.6300 -0.6936 -1.2995
 3267TIP3   OH231291   4.583   6.186  11.734 -0.0578 -0.6715 -0.4229
 3267TIP3    H131292   4.614   6.103  11.770 -0.5583 -1.5264 -1.8707
 3267TIP3    H231293   4.586   6.173  11.639  1.3757  1.5253 -0.7517
 3268TIP3   OH231294   1.277   2.803  12.727  0.5481  0.0191  0.6230
 3268TIP3    H131295   1.299   2.791  12.635 -1.6519  0.4793 -0.0265
 3268TIP3    H231296   1.273   2.714  12.763 -0.6803 -0.3199 -0.2918
 3269TIP3   OH231297   6.063   3.253   3.537 -0.5326 -0.6703 -0.0039
 3269TIP3    H131298   6.078   3.306   3.459 -0.8612 -1.2029 -0.4349
 3269TIP3    H231299   5.971   3.226   3.531 -1.0193  0.5270  1.3444
 3270TIP3   OH231300   1.385   6.505   4.799  0.0125 -0.5838  0.1792
 3270TIP3    H131301   1.423   6.442   4.861 -0.0045 -0.6738  0.0999
 3270TIP3    H231302   1.297   6.521   4.831  0.3082  0.0708  0.6912
 3271TIP3   OH231303   6.610   1.262  16.786  0.6352  0.1711  0.1299
 3271TIP3    H131304   6.702   1.277  16.767  0.5094 -1.0792 -1.7522
 3271TIP3    H231305   6.590   1.178  16.744 -2.0338  1.7527 -2.1954
 3272TIP3   OH231306   0.206   4.166  15.407  0.6485 -0.1623 -0.2761
 3272TIP3    H131307   0.207   4.112  15.328  1.8635 -1.0033  0.2847
 3272TIP3    H231308   0.171   4.109  15.475  1.0085  0.0655  0.1072
 3273TIP3   OH231309   0.089   1.105  13.813 -0.4447  0.0241 -0.1919
 3273TIP3    H131310  -0.006   1.117  13.809 -0.6759 -1.6310 -0.4106
 3273TIP3    H231311   0.125   1.194  13.808 -1.9838  0.7140  0.4753
 3274TIP3   OH231312   4.328   0.875   0.979 -0.2559  0.7990 -0.4681
 3274TIP3    H131313   4.289   0.885   0.892 -0.4907 -0.0583 -0.4619
 3274TIP3    H231314   4.276   0.932   1.036 -0.6461  0.6992 -0.7235
 3275TIP3   OH231315   6.578   1.390  14.790 -0.1427  0.1097 -0.1431
 3275TIP3    H131316   6.527   1.335  14.850 -0.0794  0.6369  0.4007
 3275TIP3    H231317   6.656   1.338  14.769 -0.9394 -0.7552 -1.0768
 3276TIP3   OH231318   4.546   3.823   0.297 -0.2048 -0.2195 -0.3009
 3276TIP3    H131319   4.544   3.762   0.224 -1.8162 -0.5565  0.0015
 3276TIP3    H231320   4.466   3.806   0.346  1.4710 -1.0373  2.3976
 3277TIP3   OH231321   2.404   2.996  11.809  0.5099 -0.2882  0.1873
 3277TIP3    H131322   2.437   2.910  11.783 -1.9266 -1.5901  1.0731
 3277TIP3    H231323   2.379   3.038  11.727  0.2481 -1.0988 -0.1588
 3278TIP3   OH231324   6.633   1.102  16.268 -0.2008 -0.3215  0.1533
 3278TIP3    H131325   6.711   1.070  16.315 -0.3160  0.0191  0.5833
 3278TIP3    H231326   6.651   1.195  16.253 -1.3119  0.2461  1.9448
 3279TIP3   OH231327   3.977   6.129   4.968  0.0013  0.1395  0.0416
 3279TIP3    H131328   4.012   6.204   5.015  1.2635 -0.4856  0.1332
 3279TIP3    H231329   4.048   6.101   4.910 -0.6752 -0.5891 -0.4727
 3280TIP3   OH231330   2.845   0.650   4.116  0.7407  0.0360  0.3464
 3280TIP3    H131331   2.885   0.712   4.177  1.4482  0.9080 -0.9683
 3280TIP3    H231332   2.781   0.703   4.067  1.3146 -0.2664 -0.7573
 3281TIP3   OH231333   3.208   6.745  12.977 -0.4631  0.1747 -0.4245
 3281TIP3    H131334   3.300   6.737  12.952 -0.7739 -0.2501 -1.4735
 3281TIP3    H231335   3.174   6.656  12.974 -0.5973  0.1174  1.3211
 3282TIP3   OH231336   3.457   5.903   3.573  0.3907  0.2764 -0.2944
 3282TIP3    H131337   3.492   5.840   3.510 -1.2023 -0.2320 -0.7171
 3282TIP3    H231338   3.398   5.852   3.629  3.2149  0.2398  3.0357
 3283TIP3   OH231339   2.297   3.014   2.822 -0.2237  0.4522  0.3773
 3283TIP3    H131340   2.245   2.978   2.893 -1.2064  0.5451 -0.2716
 3283TIP3    H231341   2.376   2.961   2.820 -1.9970 -2.3606 -1.1302
 3284TIP3   OH231342   2.585   5.155   0.080  0.2386 -0.1053 -0.1080
 3284TIP3    H131343   2.586   5.169   0.175 -4.0397  1.3014 -0.0994
 3284TIP3    H231344   2.625   5.234   0.043 -0.5148  0.5709  0.4961
 3285TIP3   OH231345   2.749   1.810  16.043  0.0579 -0.3807 -0.1959
 3285TIP3    H131346   2.829   1.824  16.095  0.3853 -0.2675 -0.7306
 3285TIP3    H231347   2.763   1.726  16.001 -0.1149 -0.3723 -0.2672
 3286TIP3   OH231348   3.108   6.687  16.644 -0.0252 -0.5447  0.3500
 3286TIP3    H131349   3.155   6.660  16.722  0.9757 -0.2919 -0.1412
 3286TIP3    H231350   3.042   6.619  16.630  1.7794 -2.2749 -0.3133
 3287TIP3   OH231351   2.041   1.192  11.653 -0.3077 -0.3089 -0.7555
 3287TIP3    H131352   2.039   1.106  11.610 -0.2923 -1.0235  0.6363
 3287TIP3    H231353   2.073   1.174  11.741 -1.2855  0.9770 -0.1050
 3288TIP3   OH231354   0.539   4.649  16.410  0.1463  0.4635  0.5596
 3288TIP3    H131355   0.486   4.726  16.390  0.3102  0.1902 -1.1225
 3288TIP3    H231356   0.584   4.671  16.491 -2.4653  0.7060  2.0413
 3289TIP3   OH231357   4.856   5.476  12.031 -0.6415 -0.0343  0.0214
 3289TIP3    H131358   4.888   5.394  12.068 -0.7283  0.0565  0.3011
 3289TIP3    H231359   4.807   5.517  12.102  0.4486  0.8392  0.2961
 3290TIP3   OH231360   4.690   2.651   5.684  0.0952 -0.0989  0.0710
 3290TIP3    H131361   4.628   2.616   5.620  0.0393  1.3074 -0.6873
 3290TIP3    H231362   4.772   2.604   5.666 -0.3613 -0.9101  0.0923
 3291TIP3   OH231363   0.095   5.414   6.204 -0.5602  0.5070  0.0122
 3291TIP3    H131364   0.023   5.466   6.168 -1.7739 -1.1809 -0.1271
 3291TIP3    H231365   0.108   5.343   6.141  1.2716  0.7790  0.0248
 3292TIP3   OH231366   0.995   0.560  17.151 -0.1276  0.0612  0.2755
 3292TIP3    H131367   0.988   0.639  17.203 -1.2255 -0.1875  0.5293
 3292TIP3    H231368   0.905   0.543  17.120 -0.1767 -1.8004  1.3069
 3293TIP3   OH231369   3.618   6.112  15.248  0.0636  0.0572  0.1779
 3293TIP3    H131370   3.682   6.125  15.178 -0.0387  0.1820  0.1080
 3293TIP3    H231371   3.596   6.200  15.279  0.0735  0.0048  0.3353
 3294TIP3   OH231372   4.175   0.002  12.011 -0.2840  0.0708  0.0895
 3294TIP3    H131373   4.113   0.042  11.949  0.9945  2.6498  0.3431
 3294TIP3    H231374   4.261   0.021  11.974  0.4369 -1.2849  1.0115
 3295TIP3   OH231375   4.154   3.623   1.591 -0.6708 -0.1306  0.1190
 3295TIP3    H131376   4.124   3.641   1.680 -0.2423  0.1686  0.2020
 3295TIP3    H231377   4.220   3.554   1.601 -1.8372 -1.3327 -0.1346
 3296TIP3   OH231378   3.022   0.831   0.929  0.5205 -0.1381 -0.0484
 3296TIP3    H131379   2.929   0.815   0.917  0.6160  0.4988 -1.8959
 3296TIP3    H231380   3.065   0.761   0.880  1.0438 -0.6989  1.1723
 3297TIP3   OH231381   6.534   4.346   2.265  0.7704  0.1225 -0.1270
 3297TIP3    H131382   6.567   4.434   2.282 -1.5386  0.6198  2.4521
 3297TIP3    H231383   6.493   4.352   2.179  1.9386  1.1310 -0.6419
 3298TIP3   OH231384   5.177   4.527  16.298 -0.3912 -0.1173  0.3902
 3298TIP3    H131385   5.087   4.559  16.286  0.3484  2.1081  0.2469
 3298TIP3    H231386   5.186   4.517  16.393 -0.5830  0.4032  0.4702
 3299TIP3   OH231387   6.224   4.021   3.525 -0.0979 -0.1585 -0.0506
 3299TIP3    H131388   6.300   4.055   3.477  1.6883 -3.1611  0.3705
 3299TIP3    H231389   6.247   4.032   3.617  1.6022 -4.1038  0.1877
 3300TIP3   OH231390   2.988   1.684  15.713  0.3121  0.2181  0.1861
 3300TIP3    H131391   3.043   1.718  15.784  0.8252 -0.2778  0.0323
 3300TIP3    H231392   2.905   1.661  15.755  0.9025 -0.8612  0.7874
 3301TIP3   OH231393   6.496   3.069   2.195  0.1067  0.3404  0.4734
 3301TIP3    H131394   6.548   2.989   2.197 -2.0068 -1.1770 -1.1388
 3301TIP3    H231395   6.525   3.115   2.117  0.3390  0.4525  0.6247
 3302TIP3   OH231396   1.549   3.515   0.707  0.0198 -0.2926 -0.1346
 3302TIP3    H131397   1.488   3.491   0.777  0.4950  0.2135  0.4592
 3302TIP3    H231398   1.632   3.528   0.752  0.5924 -1.0615 -0.9500
 3303TIP3   OH231399   3.009   6.717   1.337 -0.3499 -0.2314 -0.3089
 3303TIP3    H131400   3.085   6.701   1.391  1.0875  0.7693 -1.9218
 3303TIP3    H231401   2.999   6.813   1.338 -0.3086 -0.1900 -1.7188
 3304TIP3   OH231402   5.535   1.061  16.549  0.1033 -0.5194  0.0591
 3304TIP3    H131403   5.487   1.140  16.572  3.6019  1.6844  0.5095
 3304TIP3    H231404   5.517   1.047  16.456 -0.4957  0.8404 -0.0411
 3305TIP3   OH231405   1.360   6.731   4.475  0.2080 -0.5232  0.3308
 3305TIP3    H131406   1.404   6.805   4.434  0.3670 -0.5988  0.3630
 3305TIP3    H231407   1.335   6.763   4.562 -0.7182 -0.1529 -0.0657
 3306TIP3   OH231408   2.161   3.466   5.970 -0.0362 -0.2148 -0.1354
 3306TIP3    H131409   2.143   3.464   6.064 -2.1077  1.6676 -0.3972
 3306TIP3    H231410   2.080   3.434   5.930  0.6467 -0.5445 -1.2948
 3307TIP3   OH231411   3.330   2.730   3.145 -0.3661  0.3331 -0.1668
 3307TIP3    H131412   3.343   2.814   3.189  1.4151  0.4141 -0.7774
 3307TIP3    H231413   3.377   2.667   3.199  3.0585  0.6427 -2.5124
 3308TIP3   OH231414   5.697   6.198   1.902  0.5395  0.3104 -0.5697
 3308TIP3    H131415   5.607   6.164   1.900  0.7911 -0.4335  0.0882
 3308TIP3    H231416   5.700   6.263   1.832 -0.6984  0.8240 -0.1676
 3309TIP3   OH231417   0.934   5.608   5.985 -0.4568  0.0775  0.3728
 3309TIP3    H131418   0.871   5.565   5.928 -0.4180 -1.4493  1.4199
 3309TIP3    H231419   0.885   5.680   6.025 -0.8747  0.2855 -0.4922
 3310TIP3   OH231420   1.886   6.479   1.486  0.5895  0.6262  0.7602
 3310TIP3    H131421   1.895   6.573   1.503  1.0511  0.5757  0.8230
 3310TIP3    H231422   1.836   6.473   1.405  0.7944  0.9328  0.6107
 3311TIP3   OH231423   1.603   5.397   4.836 -0.4014  0.0036  0.1787
 3311TIP3    H131424   1.548   5.429   4.908 -0.4748 -1.7445  0.9686
 3311TIP3    H231425   1.546   5.336   4.788  0.2184 -0.2544 -0.2474
 3312TIP3   OH231426   0.292   4.935  14.452  0.0630  0.0471  0.2783
 3312TIP3    H131427   0.370   4.914  14.402  0.8489  1.7161  0.7175
 3312TIP3    H231428   0.247   5.002  14.401  0.4061  1.1201  1.3359
 3313TIP3   OH231429   1.403   4.303   3.786  0.4429  0.2046 -0.0654
 3313TIP3    H131430   1.441   4.250   3.857 -0.6427 -1.2814 -0.5245
 3313TIP3    H231431   1.327   4.252   3.757 -1.1347  2.4179 -0.0474
 3314TIP3   OH231432   2.988   1.006   3.979 -0.2895 -0.3707 -0.1591
 3314TIP3    H131433   2.930   1.065   3.930  1.0287  0.6511 -0.5264
 3314TIP3    H231434   2.996   0.928   3.924 -2.7172 -1.3302  0.7033
 3315TIP3   OH231435   6.376   0.176  16.696  0.2459  0.5622 -0.3009
 3315TIP3    H131436   6.307   0.209  16.639  1.5697  1.1235 -1.6395
 3315TIP3    H231437   6.330   0.132  16.767 -1.4752 -0.3066 -1.8782
 3316TIP3   OH231438   4.062   2.983   4.714  0.3139  0.0327  0.5951
 3316TIP3    H131439   4.008   3.015   4.786 -0.6602  0.0608 -0.1336
 3316TIP3    H231440   4.076   3.059   4.658  0.7509 -0.0759  0.5512
 3317TIP3   OH231441   0.286   0.791  13.239 -0.0174 -0.4938 -0.0277
 3317TIP3    H131442   0.362   0.848  13.245 -0.9148  0.5289  2.8092
 3317TIP3    H231443   0.212   0.850  13.227 -0.8160 -1.1184  1.6015
 3318TIP3   OH231444   4.828   1.174   0.615 -0.2143  0.9355 -0.4106
 3318TIP3    H131445   4.906   1.145   0.567 -2.1297 -1.0381 -2.5702
 3318TIP3    H231446   4.818   1.266   0.590  0.8858  0.9491 -0.8723
 3319TIP3   OH231447   1.256   0.114  11.394 -0.0313 -0.0363 -0.4842
 3319TIP3    H131448   1.297   0.028  11.399  1.0224  0.4147 -0.9890
 3319TIP3    H231449   1.206   0.112  11.313  1.8718  0.5719 -1.7474
 3320TIP3   OH231450   1.350   1.628   0.748 -0.0524 -0.6812 -0.7607
 3320TIP3    H131451   1.345   1.723   0.760 -0.4675 -0.9186  1.1991
 3320TIP3    H231452   1.281   1.609   0.684  0.9195  0.4471 -2.2407
 3321TIP3   OH231453   0.821   5.486  12.360  0.6831  0.3713  0.0379
 3321TIP3    H131454   0.910   5.500  12.326  0.8302 -0.0884  0.2310
 3321TIP3    H231455   0.816   5.541  12.438  1.6959 -1.5605  1.5344
 3322TIP3   OH231456   1.301   4.561   1.170  0.6137 -0.4899 -0.0591
 3322TIP3    H131457   1.386   4.592   1.200  0.2978  3.8438 -2.7655
 3322TIP3    H231458   1.243   4.572   1.245  1.6846  0.3379  0.6736
 3323TIP3   OH231459   1.954   1.984  15.825  0.3019 -0.0481  0.2222
 3323TIP3    H131460   1.895   2.030  15.764  1.7962 -0.1870 -1.4082
 3323TIP3    H231461   2.008   2.053  15.862 -0.6466  0.0426  1.4966
 3324TIP3   OH231462   6.039   3.560  13.011  0.1879  0.6492  0.0347
 3324TIP3    H131463   6.095   3.484  13.028  0.9163  1.2145  0.2097
 3324TIP3    H231464   5.990   3.572  13.093 -0.5188 -0.1042 -0.2639
 3325TIP3   OH231465   5.230   5.437   3.190  0.0772  0.3250 -0.1184
 3325TIP3    H131466   5.236   5.515   3.134 -1.1265  2.0791  2.0605
 3325TIP3    H231467   5.305   5.444   3.249 -0.3788  0.1683  0.4844
 3326TIP3   OH231468   0.518   3.168   0.768  0.0752  0.8357  0.4225
 3326TIP3    H131469   0.532   3.263   0.763 -1.3395  1.0596  0.4636
 3326TIP3    H231470   0.520   3.149   0.862 -0.1250  0.8954  0.4380
 3327TIP3   OH231471   4.559   2.672   4.594  0.0254  0.0604  0.0345
 3327TIP3    H131472   4.527   2.732   4.661 -1.8451 -0.7596 -0.0504
 3327TIP3    H231473   4.479   2.640   4.551  1.0728 -1.0092 -1.1967
 3328TIP3   OH231474   1.397   2.793  11.257  0.3314  0.1954  0.5592
 3328TIP3    H131475   1.447   2.825  11.182 -1.8250  0.7808 -0.7046
 3328TIP3    H231476   1.446   2.824  11.333  1.8657  0.7459 -0.5939
 3329TIP3   OH231477   6.425   3.884  12.246  0.2445 -0.4549  0.2061
 3329TIP3    H131478   6.477   3.949  12.293  0.5518 -0.3307 -0.2989
 3329TIP3    H231479   6.488   3.820  12.215  0.2891  0.3266 -1.4522
 3330TIP3   OH231480   1.094   3.895  17.165  0.7840  0.1743  0.0496
 3330TIP3    H131481   1.106   3.983  17.201 -1.7017  0.8125 -0.4667
 3330TIP3    H231482   1.036   3.851  17.227  0.7117 -0.5332 -0.5048
 3331TIP3   OH231483   5.724   6.793   3.326  0.2338 -0.3120  0.0022
 3331TIP3    H131484   5.742   6.703   3.299  1.8626 -0.7107  2.1577
 3331TIP3    H231485   5.750   6.796   3.419 -1.3097  1.9541  0.4396
 3332TIP3   OH231486   3.488   5.045  16.161 -0.1627  0.4225 -0.1466
 3332TIP3    H131487   3.419   5.025  16.224 -2.5347  1.0257 -2.4110
 3332TIP3    H231488   3.547   4.970  16.166 -1.6649 -0.7468  0.9690
 3333TIP3   OH231489   3.823   1.805   0.830  0.1747 -0.5595 -0.4661
 3333TIP3    H131490   3.774   1.876   0.873  0.2077 -1.1848  0.6074
 3333TIP3    H231491   3.884   1.851   0.772 -0.5605  0.2675 -0.6142
 3334TIP3   OH231492   0.066   2.581   3.468  0.8520 -0.2041 -0.3142
 3334TIP3    H131493   0.128   2.555   3.536  1.1117  0.6993 -0.1818
 3334TIP3    H231494  -0.018   2.584   3.512  1.0758  0.7271  0.0766
 3335TIP3   OH231495   4.716   1.011  12.840  0.0745 -0.0770 -0.7198
 3335TIP3    H131496   4.806   1.038  12.860  0.0338 -0.8044  0.5499
 3335TIP3    H231497   4.690   0.957  12.915 -0.9643 -0.9632 -1.6827
 3336TIP3   OH231498   1.606   1.782   5.688 -0.1532  0.2895 -0.5822
 3336TIP3    H131499   1.553   1.736   5.623  0.4280  0.8752 -1.4896
 3336TIP3    H231500   1.676   1.721   5.710 -0.4497  0.0226 -0.3570
 3337TIP3   OH231501   4.672   0.956  12.323  0.1811  0.7494  0.3016
 3337TIP3    H131502   4.738   1.017  12.289 -0.2876  0.9481 -0.2749
 3337TIP3    H231503   4.590   1.005  12.317  0.0848  0.8047  1.7713
 3338TIP3   OH231504   1.398   1.318   3.605  0.5597 -0.4053 -0.2636
 3338TIP3    H131505   1.341   1.247   3.634  1.4799 -0.9178  0.3229
 3338TIP3    H231506   1.478   1.275   3.576  0.7766  0.3249 -0.7794
 3339TIP3   OH231507   3.575   5.623  16.175  0.2658  0.4360 -0.8130
 3339TIP3    H131508   3.619   5.612  16.091 -0.4386 -1.1973 -0.9882
 3339TIP3    H231509   3.630   5.576  16.238 -0.3997 -0.2711 -0.7577
 3340TIP3   OH231510   4.227   0.772  13.469 -0.1955 -0.6551  0.0138
 3340TIP3    H131511   4.271   0.708  13.524  0.1450 -0.0242  0.4858
 3340TIP3    H231512   4.217   0.849  13.525  0.2687  0.0435 -0.8483
 3341TIP3   OH231513   2.837   1.637   2.799  0.0326  0.6126  0.6119
 3341TIP3    H131514   2.871   1.555   2.765 -0.9620 -0.5017  2.1778
 3341TIP3    H231515   2.754   1.650   2.753 -1.5702 -1.1601  2.7847
 3342TIP3   OH231516   2.770   6.402  11.569 -0.2709  0.0490 -0.1700
 3342TIP3    H131517   2.815   6.477  11.607  1.2237 -1.0544  0.3286
 3342TIP3    H231518   2.712   6.370  11.638  0.2014 -0.1437  0.1388
 3343TIP3   OH231519   6.551   5.197  16.272  0.1396 -0.0466 -0.1027
 3343TIP3    H131520   6.555   5.290  16.294  0.2266 -0.1891  0.4874
 3343TIP3    H231521   6.622   5.157  16.322  0.5398 -0.3287 -0.8819
 3344TIP3   OH231522   3.875   6.132  11.894 -0.1947 -0.2768 -0.6336
 3344TIP3    H131523   3.846   6.208  11.845  3.4006  0.6959 -1.5454
 3344TIP3    H231524   3.893   6.065  11.828  3.2121  0.5377 -0.7478
 3345TIP3   OH231525   4.227   3.651  13.830 -0.3435 -0.7158  0.0516
 3345TIP3    H131526   4.244   3.577  13.888  0.9113 -0.7087 -0.2765
 3345TIP3    H231527   4.308   3.703  13.832 -0.6807 -0.1191 -0.8271
 3346TIP3   OH231528   0.673   4.183   3.127  0.3176 -0.5471  0.0488
 3346TIP3    H131529   0.609   4.127   3.083  0.1873 -0.6496  0.3569
 3346TIP3    H231530   0.634   4.199   3.214  0.8749 -0.9054  0.3719
 3347TIP3   OH231531   4.011   1.228  13.262 -0.2629  0.0764 -0.7796
 3347TIP3    H131532   4.090   1.231  13.316 -0.4930  0.2332 -0.4453
 3347TIP3    H231533   4.007   1.138  13.230 -0.5607 -0.2444  0.1332
 3348TIP3   OH231534   5.641   4.857   0.223  0.3151 -0.3708  0.4174
 3348TIP3    H131535   5.635   4.817   0.310 -0.2615  0.7740  0.9298
 3348TIP3    H231536   5.556   4.897   0.209  0.7486  0.3533 -0.2337
 3349TIP3   OH231537   1.668   1.859   3.556  0.6639 -0.0574  0.4048
 3349TIP3    H131538   1.681   1.864   3.650 -2.7561  2.3001  0.9307
 3349TIP3    H231539   1.691   1.946   3.523  0.0278 -0.2485 -0.6164
 3350TIP3   OH231540   4.288   0.663  15.953  0.3572 -0.0957  0.5892
 3350TIP3    H131541   4.283   0.742  16.007 -1.1641  0.6611 -0.6037
 3350TIP3    H231542   4.315   0.695  15.867 -0.8786 -0.7765 -0.0709
 3351TIP3   OH231543   2.237   6.389   4.136 -0.9409 -0.4227 -0.0599
 3351TIP3    H131544   2.307   6.402   4.200 -1.1020 -0.0610  0.0443
 3351TIP3    H231545   2.282   6.352   4.060 -0.3996  0.9733 -0.4615
 3352TIP3   OH231546   6.594   6.191  12.316  0.3619  0.0975  0.0647
 3352TIP3    H131547   6.561   6.106  12.345  0.3097  0.2366  0.4270
 3352TIP3    H231548   6.625   6.177  12.227 -2.3583  0.3903 -1.0079
 3353TIP3   OH231549   1.049   5.948  16.304 -0.1358  0.6571  0.1438
 3353TIP3    H131550   1.079   5.892  16.375 -2.3133 -1.4020 -0.4208
 3353TIP3    H231551   1.125   6.001  16.281  1.7228 -1.2581  1.5053
 3354TIP3   OH231552   3.786   6.020  16.769  0.7387  0.0653 -0.1024
 3354TIP3    H131553   3.720   5.950  16.771  0.4028  0.3936  0.7514
 3354TIP3    H231554   3.866   5.975  16.743 -0.0182 -0.1452 -2.2917
 3355TIP3   OH231555   4.515   2.074  14.581  0.3021  0.0313 -0.2547
 3355TIP3    H131556   4.505   2.006  14.514  3.3726  0.3370 -1.1558
 3355TIP3    H231557   4.572   2.034  14.646 -0.7735  0.5703  1.0616
 3356TIP3   OH231558   0.675   5.946   2.084  0.1244  0.3339 -0.1679
 3356TIP3    H131559   0.760   5.909   2.108  0.3730  0.3440 -1.0032
 3356TIP3    H231560   0.668   5.932   1.990 -0.5621  0.8228 -0.2017
 3357TIP3   OH231561   3.950   3.518  14.796  0.7559 -0.3633 -0.0047
 3357TIP3    H131562   4.019   3.508  14.730  0.9363 -0.6003  0.2128
 3357TIP3    H231563   3.960   3.607  14.829  2.5877 -1.1384  1.7925
 3358TIP3   OH231564   3.640   1.937  13.774 -0.1377  0.2347 -0.2833
 3358TIP3    H131565   3.691   2.009  13.810  2.5048 -1.3761 -0.5346
 3358TIP3    H231566   3.609   1.968  13.689  0.7328  1.1550 -0.2748
 3359TIP3   OH231567   5.773   1.383   6.314  0.2580  0.7557  0.1633
 3359TIP3    H131568   5.799   1.294   6.290 -1.9271  0.6957 -2.5769
 3359TIP3    H231569   5.702   1.371   6.377 -0.0522  0.5282 -0.2216
 3360TIP3   OH231570   1.635   0.374   5.932  0.6427  0.1437  0.4408
 3360TIP3    H131571   1.700   0.333   5.875 -0.2157 -2.1705  1.0238
 3360TIP3    H231572   1.686   0.427   5.992  1.6933  1.1702 -1.2725
 3361TIP3   OH231573   4.512   2.001   3.512  0.3380 -0.3670  0.4059
 3361TIP3    H131574   4.456   2.076   3.491  0.5171 -0.5917 -0.9676
 3361TIP3    H231575   4.530   1.960   3.428 -1.6096 -3.3404  1.3100
 3362TIP3   OH231576   5.599   4.029   3.671 -0.0188  0.3063 -0.0913
 3362TIP3    H131577   5.517   3.990   3.641 -0.0616  0.5684 -0.3257
 3362TIP3    H231578   5.664   4.003   3.605 -0.6628  3.2071 -2.0668
 3363TIP3   OH231579   2.327   4.935  15.481  0.3724 -0.0694 -0.2542
 3363TIP3    H131580   2.267   4.864  15.502 -0.6107  1.0032  0.6808
 3363TIP3    H231581   2.391   4.934  15.553 -0.9666  1.3812  1.0426
 3364TIP3   OH231582   3.025   1.177  14.532  0.2322  0.7765  0.1480
 3364TIP3    H131583   3.106   1.130  14.550 -0.4339 -0.4457  0.1023
 3364TIP3    H231584   3.022   1.184  14.436  0.6322  1.4652  0.1865
 3365TIP3   OH231585   4.313   5.386   5.604  0.1658 -0.4618  0.1546
 3365TIP3    H131586   4.225   5.421   5.609  0.5055  0.2864  1.4485
 3365TIP3    H231587   4.364   5.441   5.663  1.3110 -1.4373  0.1212
 3366TIP3   OH231588   4.286   2.163  14.715 -0.3559 -0.3464 -0.1043
 3366TIP3    H131589   4.222   2.111  14.666  0.0110 -2.3862  1.4404
 3366TIP3    H231590   4.370   2.140  14.676 -0.1540 -1.2609  0.8347
 3367TIP3   OH231591   2.790   3.405  15.290 -0.0360 -0.2718 -0.2746
 3367TIP3    H131592   2.729   3.360  15.232 -0.5160  0.4342 -0.3269
 3367TIP3    H231593   2.735   3.465  15.341  0.4742 -0.3696  0.4042
 3368TIP3   OH231594   6.539   3.648   2.477  0.2543 -0.7788  0.2943
 3368TIP3    H131595   6.618   3.635   2.529 -0.0930  1.5833  1.5770
 3368TIP3    H231596   6.471   3.671   2.542 -0.6491  0.4508 -1.0180
 3369TIP3   OH231597   0.298   3.127   1.545  0.1165 -0.1521  0.5171
 3369TIP3    H131598   0.239   3.052   1.543 -1.7244  1.2316 -0.2978
 3369TIP3    H231599   0.255   3.190   1.602 -1.5266  2.5336 -3.2195
 3370TIP3   OH231600   1.526   2.987  13.935  0.6517  0.4994 -0.4543
 3370TIP3    H131601   1.469   2.920  13.972 -0.5663  2.0691  0.6104
 3370TIP3    H231602   1.483   3.013  13.853  1.7790 -0.8430 -1.5256
 3371TIP3   OH231603   4.211   0.639   1.589 -0.1032  0.4889  0.3648
 3371TIP3    H131604   4.253   0.566   1.544 -0.3961  1.0590 -0.8733
 3371TIP3    H231605   4.158   0.682   1.522 -4.1556 -1.2143  2.1925
 3372TIP3   OH231606   6.552   0.982   3.369  0.0657 -0.5706 -0.3205
 3372TIP3    H131607   6.611   0.913   3.342 -0.4142 -0.6461 -1.2175
 3372TIP3    H231608   6.468   0.938   3.385 -0.2045 -0.2244 -0.7531
 3373TIP3   OH231609   1.191   4.515  14.531 -0.7688  0.3946  0.0738
 3373TIP3    H131610   1.188   4.420  14.536 -1.7604  0.4443  0.5775
 3373TIP3    H231611   1.203   4.543  14.621  0.9882  0.7219 -0.2248
 3374TIP3   OH231612   1.319   5.460  15.281  0.2639  0.3478 -0.7208
 3374TIP3    H131613   1.243   5.508  15.249  0.0446  0.1970 -0.4285
 3374TIP3    H231614   1.292   5.369  15.282  0.0776  0.3980  0.3932
 3375TIP3   OH231615   1.377   2.659  16.363  0.5424 -0.2182  0.5462
 3375TIP3    H131616   1.429   2.727  16.321  0.6310 -0.3283  0.4784
 3375TIP3    H231617   1.435   2.583  16.368  0.0840 -0.6579 -0.4187
 3376TIP3   OH231618   5.748   4.935   0.588  0.0297  0.1697  0.1993
 3376TIP3    H131619   5.776   4.890   0.667 -1.5666  0.1630  0.7798
 3376TIP3    H231620   5.732   4.865   0.524 -1.4688 -0.0630  0.7894
 3377TIP3   OH231621   2.237   6.178   1.862  0.1507 -0.1462  0.3503
 3377TIP3    H131622   2.236   6.088   1.894 -0.8306 -0.8693 -1.5132
 3377TIP3    H231623   2.303   6.178   1.793 -0.9361  0.1133 -0.7266
 3378TIP3   OH231624   4.525   4.370  11.861  0.3803  0.2171  0.1809
 3378TIP3    H131625   4.456   4.435  11.847  1.4123  1.7416  1.6130
 3378TIP3    H231626   4.596   4.399  11.803  0.5315 -0.1545  0.1806
 3379TIP3   OH231627   3.830   6.014   1.791 -0.1793  0.4183 -0.0405
 3379TIP3    H131628   3.848   5.957   1.717  1.3162  2.1007 -1.0669
 3379TIP3    H231629   3.799   6.096   1.752 -1.4318  0.6390  1.3285
 3380TIP3   OH231630   5.399   3.852   1.198  0.5211 -0.1913  0.8882
 3380TIP3    H131631   5.475   3.814   1.243  1.4076  1.4937  0.8956
 3380TIP3    H231632   5.389   3.939   1.237 -1.8085 -0.5715  1.3117
 3381TIP3   OH231633   5.475   3.938   5.281  0.1958  0.1373 -0.1094
 3381TIP3    H131634   5.520   3.956   5.198 -0.6954  2.3957 -0.1945
 3381TIP3    H231635   5.519   3.994   5.344 -0.7636  0.3615  0.3754
 3382TIP3   OH231636   4.490   0.005   3.340 -0.2388  0.0473  0.1326
 3382TIP3    H131637   4.497  -0.088   3.322  0.8943  0.1022  0.2169
 3382TIP3    H231638   4.413   0.033   3.290 -1.1498 -1.0933  0.8480
 3383TIP3   OH231639   6.278   4.143  16.158 -0.5554 -0.7568  0.3866
 3383TIP3    H131640   6.316   4.167  16.073 -1.0415  0.4589  0.4881
 3383TIP3    H231641   6.304   4.052  16.171 -2.1936 -1.6558 -2.0055
 3384TIP3   OH231642   5.982   2.974  12.368  0.3985 -0.2549  0.2517
 3384TIP3    H131643   5.909   2.921  12.335  1.1398 -1.0528 -0.1506
 3384TIP3    H231644   6.007   2.932  12.450  0.9396 -0.4900 -0.0285
 3385TIP3   OH231645   0.287   1.751  16.965 -0.1389  0.2774 -0.5589
 3385TIP3    H131646   0.352   1.691  16.930 -0.8504 -0.4534 -0.6560
 3385TIP3    H231647   0.225   1.695  17.011 -0.2218  1.0482  0.3013
 3386TIP3   OH231648   2.841   0.268  10.847 -0.0978 -0.0876 -0.0498
 3386TIP3    H131649   2.890   0.343  10.879 -1.0096  0.7425 -0.5421
 3386TIP3    H231650   2.866   0.196  10.905  1.2277  0.4429  0.0776
 3387TIP3   OH231651   6.236   1.137   4.277 -0.4639  1.2125 -0.0553
 3387TIP3    H131652   6.148   1.121   4.241  0.1628 -0.8981 -0.7674
 3387TIP3    H231653   6.240   1.081   4.355 -0.1803  2.2830  0.7121
 3388TIP3   OH231654   6.153   1.457   0.417 -0.1736 -0.6122 -0.0572
 3388TIP3    H131655   6.131   1.536   0.367 -0.8725 -0.4562  0.4828
 3388TIP3    H231656   6.247   1.447   0.405 -0.0273  0.4655  0.0989
 3389TIP3   OH231657   1.705   0.486  14.725  0.1700  0.4729  0.0236
 3389TIP3    H131658   1.638   0.468  14.791  0.3829 -1.1646 -0.1749
 3389TIP3    H231659   1.673   0.442  14.646 -1.6329  4.8010 -2.0423
 3390TIP3   OH231660   0.105   0.250   2.884 -0.6638 -0.2887 -0.0869
 3390TIP3    H131661   0.195   0.271   2.861 -0.7102  1.8437  1.4096
 3390TIP3    H231662   0.102   0.154   2.882  2.7324 -0.7519  3.4321
 3391TIP3   OH231663   2.013   4.458   6.310  0.3372  0.2233 -0.4779
 3391TIP3    H131664   2.032   4.496   6.225 -1.7119 -2.8249 -2.4876
 3391TIP3    H231665   2.035   4.366   6.301 -1.2864 -0.4829  1.7963
 3392TIP3   OH231666   6.783   3.799  14.594  0.0971 -0.2578  0.1237
 3392TIP3    H131667   6.721   3.821  14.525  0.1576  0.3232  0.2486
 3392TIP3    H231668   6.753   3.849  14.670  0.4129 -0.3807  0.3329
 3393TIP3   OH231669   3.177   5.205   5.343 -0.2655 -0.6425  0.1834
 3393TIP3    H131670   3.161   5.245   5.428  1.4074 -0.5341  0.4874
 3393TIP3    H231671   3.220   5.273   5.291  1.8679 -1.6765  0.4383
 3394TIP3   OH231672   0.600   1.483  16.702 -0.1232 -0.1868  0.4508
 3394TIP3    H131673   0.572   1.399  16.666 -0.7052 -0.7392  2.1080
 3394TIP3    H231674   0.689   1.495  16.668 -0.3402 -1.0629 -0.4707
 3395TIP3   OH231675   0.836   6.735   3.281 -0.6920  0.2171  0.3351
 3395TIP3    H131676   0.901   6.676   3.240  0.6394  0.3666  2.1252
 3395TIP3    H231677   0.883   6.818   3.292 -1.2023  0.3509  1.5971
 3396TIP3   OH231678   2.405   4.276  11.715  0.2200  0.3336 -0.1020
 3396TIP3    H131679   2.397   4.314  11.628  1.2130  1.5685  0.3070
 3396TIP3    H231680   2.359   4.193  11.710 -2.9963  2.0040 -0.7753
 3397TIP3   OH231681   3.410   2.511   0.987  0.2811  0.5201 -0.0183
 3397TIP3    H131682   3.363   2.450   1.042 -1.1336  0.8969 -0.7675
 3397TIP3    H231683   3.480   2.546   1.043 -0.6506  0.3346  1.2830
 3398TIP3   OH231684   2.242   0.585   2.891  0.1773  0.1485  0.1319
 3398TIP3    H131685   2.182   0.610   2.820  0.4919 -0.7278 -0.4718
 3398TIP3    H231686   2.329   0.605   2.856  0.3132  0.0521  0.4184
 3399TIP3   OH231687   0.022   6.373   5.258 -0.2866  0.1277  0.5973
 3399TIP3    H131688  -0.057   6.322   5.242 -1.0661  1.2030  0.8927
 3399TIP3    H231689   0.001   6.461   5.226  1.2034  0.1704 -0.4052
 3400TIP3   OH231690   4.514   3.293   3.530  0.1515  0.1280  0.2984
 3400TIP3    H131691   4.491   3.280   3.438 -0.4369  0.0189  0.4623
 3400TIP3    H231692   4.546   3.208   3.559  0.6758  0.2513  0.1038
 3401TIP3   OH231693   6.648   1.254   0.909 -0.3781  0.3052 -0.1520
 3401TIP3    H131694   6.559   1.270   0.941  0.4453  1.7641  1.6052
 3401TIP3    H231695   6.696   1.221   0.986  0.6756 -0.1436 -0.9751
 3402TIP3   OH231696   0.739   0.248   4.051  0.3855  0.5082  0.0372
 3402TIP3    H131697   0.672   0.294   4.102 -0.5667  0.1250 -0.8417
 3402TIP3    H231698   0.818   0.255   4.105 -0.3210  1.0621  1.0490
 3403TIP3   OH231699   3.308   1.665   0.545 -0.5348 -0.1106 -0.3153
 3403TIP3    H131700   3.318   1.760   0.532 -0.0277  0.1642  1.7571
 3403TIP3    H231701   3.390   1.628   0.514 -1.9128 -0.3393 -4.2716
 3404TIP3   OH231702   5.073   5.494   3.487 -0.0264  1.0015 -0.5988
 3404TIP3    H131703   5.137   5.565   3.477  0.2982  0.9573  0.9535
 3404TIP3    H231704   5.107   5.441   3.560 -1.5771  0.7003 -0.0702
 3405TIP3   OH231705   5.639   1.782   2.427 -0.2805 -0.6036  0.0944
 3405TIP3    H131706   5.640   1.689   2.407 -2.0925 -0.1795 -2.5255
 3405TIP3    H231707   5.559   1.795   2.479  0.2773 -0.5664  0.9602
 3406TIP3   OH231708   2.962   0.301  13.880 -0.7725  0.1500 -0.9594
 3406TIP3    H131709   2.971   0.361  13.954  0.1747  0.0401 -0.9803
 3406TIP3    H231710   3.036   0.321  13.823 -0.0636 -1.4462 -0.6668
 3407TIP3   OH231711   4.306   0.152  16.455 -0.3446  0.5208 -0.2401
 3407TIP3    H131712   4.343   0.071  16.490 -0.7112  0.1852 -0.6216
 3407TIP3    H231713   4.350   0.221  16.504  0.0132  0.0943  0.0498
 3408TIP3   OH231714   6.016   5.191   2.438 -0.3266 -0.2351  0.4779
 3408TIP3    H131715   6.032   5.114   2.384  1.3894 -0.5489  1.3628
 3408TIP3    H231716   6.020   5.264   2.377 -0.1078 -0.6995 -0.0749
 3409TIP3   OH231717   2.276   4.289   4.737  0.5993  0.3090 -0.0329
 3409TIP3    H131718   2.362   4.249   4.724  1.2880  1.6791  0.1952
 3409TIP3    H231719   2.214   4.221   4.709  1.7883 -0.0866 -1.8763
 3410TIP3   OH231720   6.219   6.090   0.812 -0.0736 -0.4865 -0.1196
 3410TIP3    H131721   6.302   6.042   0.820 -0.1422 -0.4147  1.4054
 3410TIP3    H231722   6.228   6.162   0.875 -0.3266  1.0115 -1.7108
 3411TIP3   OH231723   3.332   6.507   4.231  0.3849 -0.3887  0.0180
 3411TIP3    H131724   3.337   6.573   4.300 -2.1222 -0.6628  0.5556
 3411TIP3    H231725   3.308   6.556   4.152 -0.3763 -0.4879  0.1767
 3412TIP3   OH231726   3.810   3.467   0.553 -0.3767 -0.0564 -0.2654
 3412TIP3    H131727   3.873   3.483   0.483  0.2861 -0.4991  0.2146
 3412TIP3    H231728   3.733   3.519   0.529 -0.3384 -0.5653 -1.5623
 3413TIP3   OH231729   6.017   3.699  12.284 -0.4751  0.2753  0.1576
 3413TIP3    H131730   5.993   3.682  12.376  1.4945 -1.3162  0.4670
 3413TIP3    H231731   6.086   3.766  12.289  0.6298 -0.8015  0.0239
 3414TIP3   OH231732   5.941   6.210   0.330 -0.4540 -0.3788  0.1588
 3414TIP3    H131733   5.943   6.234   0.237 -0.6233  0.9768  0.4749
 3414TIP3    H231734   5.847   6.209   0.351 -0.3823  0.1640  0.5093
 3415TIP3   OH231735   0.124   0.422   4.061  0.4253  0.4870 -0.5756
 3415TIP3    H131736   0.169   0.383   4.136 -0.3205 -1.9745 -1.2892
 3415TIP3    H231737   0.036   0.383   4.064 -0.5094  2.4328 -1.2170
 3416TIP3   OH231738   6.758   0.362  11.876  0.4786 -0.1617 -0.7443
 3416TIP3    H131739   6.761   0.452  11.908 -0.8896 -0.2197 -0.3812
 3416TIP3    H231740   6.827   0.358  11.810  2.5548  0.3101  1.2792
 3417TIP3   OH231741   1.976   5.918  16.401 -0.0687  0.0070 -0.0034
 3417TIP3    H131742   2.006   5.971  16.475 -1.1383 -1.3674  1.4789
 3417TIP3    H231743   1.921   5.978  16.350  0.1100  0.7793  0.6857
 3418TIP3   OH231744   4.739   1.727   4.537 -0.0077 -0.5269 -0.0486
 3418TIP3    H131745   4.807   1.770   4.588 -1.0631 -0.5061  1.4027
 3418TIP3    H231746   4.778   1.715   4.450  1.7674 -0.3594  0.6793
 3419TIP3   OH231747   5.578   2.947   3.055 -0.2161 -0.3259  0.0652
 3419TIP3    H131748   5.506   2.902   3.010 -1.7669  0.0130  2.0426
 3419TIP3    H231749   5.610   3.011   2.991 -1.6383 -0.5243 -0.8970
 3420TIP3   OH231750   3.431   1.089  12.004  0.4153 -0.0328 -0.1454
 3420TIP3    H131751   3.377   1.012  12.020 -0.6077  0.8825  1.0002
 3420TIP3    H231752   3.480   1.101  12.085 -1.0000  1.6935  0.5180
 3421TIP3   OH231753   1.672   4.234  13.141 -0.4992 -0.5317 -0.1912
 3421TIP3    H131754   1.766   4.250  13.150 -0.3764 -1.9792  1.9900
 3421TIP3    H231755   1.632   4.321  13.145  0.7304  0.0911 -0.9812
 3422TIP3   OH231756   3.937   4.198   3.654  0.0472 -0.8588 -0.1728
 3422TIP3    H131757   3.909   4.167   3.567 -1.1675  2.0744 -0.9658
 3422TIP3    H231758   4.021   4.242   3.638  0.3152 -1.1882  0.3317
 3423TIP3   OH231759   4.859   1.972   5.381 -0.2676 -0.1275  0.0864
 3423TIP3    H131760   4.913   1.893   5.379 -1.0742 -0.6950 -1.4747
 3423TIP3    H231761   4.880   2.017   5.299  0.0255  1.1714  0.8640
 3424TIP3   OH231762   2.309   0.668   3.143  0.3814  0.0741  0.0506
 3424TIP3    H131763   2.273   0.645   3.057 -1.1857  1.0378  0.4145
 3424TIP3    H231764   2.297   0.762   3.151  1.8925  0.2464  0.7424
 3425TIP3   OH231765   4.557   3.340   5.722 -0.3381  0.2482 -0.0054
 3425TIP3    H131766   4.585   3.248   5.720 -1.8022 -0.2851  1.4508
 3425TIP3    H231767   4.530   3.358   5.632 -0.7104 -0.9779 -0.1668
 3426TIP3   OH231768   0.975   1.664   5.248  0.1419 -0.4239 -0.1806
 3426TIP3    H131769   0.889   1.702   5.268  0.0868  0.2332 -1.5433
 3426TIP3    H231770   1.035   1.709   5.308 -0.3839 -0.5090  0.4235
 3427TIP3   OH231771   4.946   4.885  13.744  0.7776  0.1815 -0.0305
 3427TIP3    H131772   4.988   4.855  13.824  1.5592  0.7655 -0.2041
 3427TIP3    H231773   4.867   4.832  13.736  0.7628  0.0248  1.0499
 3428TIP3   OH231774   1.827   0.115   1.755  0.7077 -0.4336  0.0890
 3428TIP3    H131775   1.736   0.120   1.787 -0.2928 -0.5255 -2.5436
 3428TIP3    H231776   1.861   0.204   1.765  1.2380 -0.8633  3.2947
 3429TIP3   OH231777   6.127   3.645   0.274  0.3150  0.4475 -0.6364
 3429TIP3    H131778   6.088   3.704   0.338 -0.8835 -0.5339 -0.4146
 3429TIP3    H231779   6.080   3.664   0.193  0.4723  0.3584 -0.7468
 3430TIP3   OH231780   2.602   1.835   3.724  0.4581 -0.8821  0.2168
 3430TIP3    H131781   2.579   1.892   3.798  2.5505  0.9494 -0.4049
 3430TIP3    H231782   2.681   1.790   3.754  0.8023 -0.7992 -0.5465
 3431TIP3   OH231783   5.498   1.892   0.370  0.0510  0.0510 -0.3753
 3431TIP3    H131784   5.422   1.854   0.414 -2.1245  1.1707 -2.8364
 3431TIP3    H231785   5.530   1.822   0.313  2.8120 -1.3701  2.6163
 3432TIP3   OH231786   2.482   4.888  16.617 -0.0595  0.0719  0.2073
 3432TIP3    H131787   2.469   4.940  16.537 -1.5601 -0.6148 -0.0238
 3432TIP3    H231788   2.502   4.952  16.685  1.7308  0.6401 -0.7760
 3433TIP3   OH231789   5.267   4.369  13.524  0.3128 -0.2905  0.0573
 3433TIP3    H131790   5.298   4.379  13.434  0.6675 -0.7414  0.1222
 3433TIP3    H231791   5.281   4.276  13.543 -0.9896 -0.4848  0.1310
 3434TIP3   OH231792   3.439   4.439   5.922 -0.6442 -0.0663 -0.4610
 3434TIP3    H131793   3.423   4.530   5.946 -0.4213 -0.0170 -0.4919
 3434TIP3    H231794   3.534   4.429   5.930 -0.8472 -0.8427  1.4434
 3435TIP3   OH231795   1.775   3.820  16.431 -0.3514  0.1285 -0.3453
 3435TIP3    H131796   1.698   3.814  16.487 -0.3288  1.1882 -0.1864
 3435TIP3    H231797   1.741   3.804  16.343 -0.2567 -2.3742 -0.0002
 3436TIP3   OH231798   5.823   1.419  16.811 -0.1405  0.0087 -0.4674
 3436TIP3    H131799   5.758   1.366  16.857  0.9537 -0.7995  0.1957
 3436TIP3    H231800   5.877   1.457  16.880  1.1645 -0.7360 -1.0354
 3437TIP3   OH231801   2.077   6.017   1.081  0.3550 -0.4669 -0.1560
 3437TIP3    H131802   2.143   6.067   1.032 -0.3536 -0.4434 -1.1051
 3437TIP3    H231803   1.997   6.025   1.029 -1.1020  1.5937  2.2019
 3438TIP3   OH231804   4.294   0.620  14.584  0.2460 -0.4569 -0.0345
 3438TIP3    H131805   4.303   0.702  14.634  3.0809 -0.8865  0.3677
 3438TIP3    H231806   4.244   0.644  14.507 -0.8703  1.1329  1.1125
 3439TIP3   OH231807   5.710   0.111  11.094 -0.3690 -0.3085  0.2174
 3439TIP3    H131808   5.749   0.108  11.181 -0.0282  0.9084  0.1251
 3439TIP3    H231809   5.751   0.039  11.046 -2.6035 -2.8518  1.8313
 3440TIP3   OH231810   2.839   4.984   1.715  0.0226  0.5950  0.3883
 3440TIP3    H131811   2.750   5.019   1.719 -0.5765 -0.9490  1.8091
 3440TIP3    H231812   2.837   4.922   1.642 -0.1859  0.2759  0.6630
 3441TIP3   OH231813   3.199   5.933  16.589 -0.9010 -0.6401 -0.4452
 3441TIP3    H131814   3.132   5.961  16.651  0.4863 -1.5406  1.6161
 3441TIP3    H231815   3.254   6.010  16.577  0.2026 -1.0548  1.4620
 3442TIP3   OH231816   4.546   5.472  15.232 -0.3137  0.0204 -0.6091
 3442TIP3    H131817   4.625   5.450  15.183 -1.2135 -1.8721 -1.3168
 3442TIP3    H231818   4.474   5.451  15.173 -1.3864 -0.7460  0.8913
 3443TIP3   OH231819   2.720   5.228   3.866  0.4730 -0.0782  0.2981
 3443TIP3    H131820   2.738   5.271   3.950  0.6233 -1.1586  0.8311
 3443TIP3    H231821   2.740   5.295   3.801 -0.2690  0.9938  1.1291
 3444TIP3   OH231822   3.149   2.278  11.441 -0.0386  0.0049 -0.3220
 3444TIP3    H131823   3.224   2.272  11.382 -1.5030 -0.4945 -2.2515
 3444TIP3    H231824   3.161   2.361  11.487  0.5264  1.0902 -2.3068
 3445TIP3   OH231825   4.802   4.245  14.605  0.1843  0.3145 -0.4222
 3445TIP3    H131826   4.833   4.336  14.600  0.0901  0.2722 -2.2192
 3445TIP3    H231827   4.780   4.222  14.515  0.9627 -1.7696 -0.1381
 3446TIP3   OH231828   5.341   6.294  16.904 -0.4714 -0.0065  0.2674
 3446TIP3    H131829   5.413   6.338  16.859 -0.1279 -0.6410  0.1916
 3446TIP3    H231830   5.297   6.364  16.951  0.7406  0.2568  1.0525
 3447TIP3   OH231831   5.267   5.232   4.907  0.6592 -0.0896  0.2640
 3447TIP3    H131832   5.211   5.301   4.871 -0.2761 -0.7668  0.3897
 3447TIP3    H231833   5.317   5.276   4.976 -0.2140  0.3820  0.6086
 3448TIP3   OH231834   6.730   2.377   4.436  0.3155  0.4265 -0.8113
 3448TIP3    H131835   6.684   2.295   4.417  0.1883 -0.4591  2.6309
 3448TIP3    H231836   6.661   2.443   4.438 -0.1797 -0.0923 -0.0167
 3449TIP3   OH231837   0.522   3.717   0.886  0.5608 -0.0766 -0.3748
 3449TIP3    H131838   0.541   3.636   0.839 -2.2297 -1.3151  0.4188
 3449TIP3    H231839   0.541   3.698   0.977  0.3083  0.3148 -0.2349
 3450TIP3   OH231840   5.316   5.153  13.631  0.3799  0.1921 -0.6112
 3450TIP3    H131841   5.335   5.089  13.699 -2.4571 -0.3266 -0.1943
 3450TIP3    H231842   5.279   5.228  13.678  2.2922  1.6224 -1.2395
 3451TIP3   OH231843   1.281   3.339   5.833  0.4283 -0.4762  0.5761
 3451TIP3    H131844   1.309   3.422   5.796  0.3733 -0.6099  0.2240
 3451TIP3    H231845   1.328   3.273   5.781  0.3001 -0.6674  0.7010
 3452TIP3   OH231846   4.612   1.204   1.927 -0.0807  1.0565  0.3548
 3452TIP3    H131847   4.571   1.267   1.987 -0.3743  0.5628  0.6753
 3452TIP3    H231848   4.621   1.124   1.978  0.6278  0.9410  0.0600
 3453TIP3   OH231849   4.910   3.997   2.943 -0.5981 -0.2785  0.3885
 3453TIP3    H131850   4.978   3.961   2.887  1.3591 -1.4078  3.2374
 3453TIP3    H231851   4.937   3.974   3.032 -3.9657  0.5239  1.8057
 3454TIP3   OH231852   3.928   0.802  12.681 -0.1495  0.5005 -0.1314
 3454TIP3    H131853   3.971   0.887  12.683 -0.1092  0.4808 -0.1752
 3454TIP3    H231854   3.997   0.740  12.657  0.1114  0.2794  1.1502
 3455TIP3   OH231855   5.077   3.344  12.137 -0.4816  0.3100  0.4466
 3455TIP3    H131856   5.155   3.393  12.164 -0.0629 -0.4843  0.7073
 3455TIP3    H231857   5.045   3.304  12.218  0.5761 -1.8077 -0.0994
 3456TIP3   OH231858   1.882   4.427  16.475 -0.4238 -0.1683 -0.0223
 3456TIP3    H131859   1.901   4.343  16.517 -0.1917  0.8894  2.1155
 3456TIP3    H231860   1.908   4.414  16.384  0.6318 -2.0769  0.4857
 3457TIP3   OH231861   6.010   3.705  10.498 -0.4961 -0.6021  0.1276
 3457TIP3    H131862   5.973   3.776  10.551  0.0321 -0.1718 -0.0732
 3457TIP3    H231863   5.937   3.674  10.445 -0.7734 -0.3178  0.3372
 3458TIP3   OH231864   1.083   4.661   6.475  0.2214 -0.3244  0.3437
 3458TIP3    H131865   1.097   4.700   6.389 -0.1239  0.2168  0.5280
 3458TIP3    H231866   1.001   4.611   6.466  0.1697 -0.2436  0.3697
 3459TIP3   OH231867   3.977   1.057   0.276  0.2912 -0.5076  0.7440
 3459TIP3    H131868   4.070   1.062   0.295  0.0768  1.1489  1.4698
 3459TIP3    H231869   3.970   1.073   0.182  0.6711  0.4580  0.8704
 3460TIP3   OH231870   2.352   3.135  16.003  0.4445  0.1610  0.2380
 3460TIP3    H131871   2.331   3.163  15.914 -1.5554 -0.5757  0.4365
 3460TIP3    H231872   2.276   3.159  16.055  0.7249 -1.2006  1.3526
 3461TIP3   OH231873   2.326   5.594  16.001 -0.2836  0.3254  0.4723
 3461TIP3    H131874   2.271   5.523  16.035 -0.2014  0.1708  0.2920
 3461TIP3    H231875   2.264   5.659  15.968 -0.3600  0.1104  0.1852
 3462TIP3   OH231876   3.767   3.329  14.567  0.2979  0.3118  0.0546
 3462TIP3    H131877   3.821   3.336  14.489  1.5861  0.1810  0.8856
 3462TIP3    H231878   3.775   3.237  14.593  0.4319  0.4978  0.7007
 3463TIP3   OH231879   5.084   6.463  15.660  0.2029  0.4716 -0.5386
 3463TIP3    H131880   5.074   6.554  15.688 -2.6800 -0.3295  1.3833
 3463TIP3    H231881   5.038   6.459  15.576 -0.7510  0.5348 -0.0241
 3464TIP3   OH231882   6.374   1.427   1.204 -0.0256 -0.5240  0.2673
 3464TIP3    H131883   6.372   1.463   1.115  0.2332  0.9340  0.8279
 3464TIP3    H231884   6.309   1.357   1.203 -1.1773  0.5204 -0.6378
 3465TIP3   OH231885   6.370   1.807   2.105 -0.6056  0.0313  0.3030
 3465TIP3    H131886   6.298   1.763   2.151  1.1753 -0.3831  2.9346
 3465TIP3    H231887   6.448   1.758   2.132  0.9496  2.0541 -0.3386
 3466TIP3   OH231888   4.948   4.396  16.547  0.2781 -0.1740 -0.3364
 3466TIP3    H131889   4.915   4.412  16.635  2.0021  1.6064  0.0415
 3466TIP3    H231890   4.932   4.478  16.500  0.0577 -0.8458 -1.4790
 3467TIP3   OH231891   0.347   0.864   3.144 -0.0125  0.1550  0.1494
 3467TIP3    H131892   0.356   0.929   3.074  0.4153  1.8864  1.7139
 3467TIP3    H231893   0.264   0.820   3.126 -0.1878  0.9498 -1.1122
 3468TIP3   OH231894   2.911   1.766   1.878  0.2267 -0.3411 -0.1014
 3468TIP3    H131895   2.863   1.848   1.869  0.2398 -0.4105 -0.8903
 3468TIP3    H231896   2.859   1.714   1.939  0.0517  0.1283  0.1536
 3469TIP3   OH231897   1.464   0.229   4.887  0.0197  0.5478 -0.3215
 3469TIP3    H131898   1.497   0.250   4.800  2.1353  0.6101  0.4361
 3469TIP3    H231899   1.543   0.224   4.942 -1.2008 -0.1053  1.4582
 3470TIP3   OH231900   5.723   5.692   5.652 -0.2575 -0.9206  0.0182
 3470TIP3    H131901   5.676   5.685   5.569  0.5779  0.1210 -0.5876
 3470TIP3    H231902   5.697   5.777   5.687  1.4075 -0.1306 -0.5301
 3471TIP3   OH231903   5.948   6.331  12.437  0.5723  0.1146  0.4945
 3471TIP3    H131904   6.027   6.342  12.383 -0.8045 -2.0532 -2.2187
 3471TIP3    H231905   5.880   6.380  12.391 -0.5188 -1.3194  0.5153
 3472TIP3   OH231906   0.819   2.182  12.290 -0.0239 -0.5636  0.0583
 3472TIP3    H131907   0.737   2.232  12.288 -0.3642 -1.1097 -1.6071
 3472TIP3    H231908   0.887   2.245  12.269 -0.1178 -0.2723  0.6223
 3473TIP3   OH231909   5.702   2.220   6.582  0.5198  0.0794  0.2805
 3473TIP3    H131910   5.666   2.248   6.666  0.4627  0.6464  0.0717
 3473TIP3    H231911   5.718   2.126   6.592 -2.8143 -0.6614 -0.2254
 3474TIP3   OH231912   0.187   4.630   4.758 -0.0236 -0.3148  0.1514
 3474TIP3    H131913   0.186   4.687   4.681  0.4520  1.4722  1.4288
 3474TIP3    H231914   0.106   4.650   4.804 -1.8894 -3.5567 -1.2827
 3475TIP3   OH231915   0.319   3.352   5.142  0.6009 -0.1706 -0.0505
 3475TIP3    H131916   0.313   3.386   5.231 -0.9536 -0.5030  0.0021
 3475TIP3    H231917   0.239   3.383   5.099  0.7349 -1.0377 -0.9607
 3476TIP3   OH231918   4.752   3.419   2.698 -0.4464 -0.1300  0.2838
 3476TIP3    H131919   4.773   3.501   2.742 -0.1710  0.6239 -1.2080
 3476TIP3    H231920   4.822   3.359   2.725 -0.0887  0.4106  0.5875
 3477TIP3   OH231921   3.451   6.221   4.775  0.5271  0.6331 -0.1024
 3477TIP3    H131922   3.538   6.244   4.807 -0.4025  3.0223  0.9671
 3477TIP3    H231923   3.429   6.140   4.822  1.2603  1.2832  1.4146
 3478TIP3   OH231924   6.341   6.428  15.029 -0.2099  0.1329  0.1155
 3478TIP3    H131925   6.380   6.350  15.071 -0.1446 -0.0385 -0.2597
 3478TIP3    H231926   6.327   6.489  15.101  0.3229  0.0129  0.3289
 3479TIP3   OH231927   2.155   5.358   0.250  0.7527 -0.0142 -0.1005
 3479TIP3    H131928   2.243   5.396   0.256  1.0779 -0.6286 -0.9176
 3479TIP3    H231929   2.122   5.387   0.165  0.6117 -0.7415 -0.2930
 3480TIP3   OH231930   4.279   5.639   4.773 -0.0872 -0.0231  0.2111
 3480TIP3    H131931   4.194   5.641   4.730  0.4036 -2.9645 -1.1359
 3480TIP3    H231932   4.263   5.677   4.860 -1.8459  2.9626 -1.2782
 3481TIP3   OH231933   1.945   0.284  12.939  0.2612 -0.1693 -0.7796
 3481TIP3    H131934   1.930   0.351  12.872 -0.4426  1.1787  0.6700
 3481TIP3    H231935   1.859   0.247  12.956  0.1842  0.5200  0.3985
 3482TIP3   OH231936   0.230   4.868  15.174 -0.3645  0.2089 -0.1290
 3482TIP3    H131937   0.181   4.869  15.092  1.7451 -0.2650 -1.4752
 3482TIP3    H231938   0.253   4.959  15.189 -0.8203  0.3073 -0.0110
 3483TIP3   OH231939   0.456   4.695   4.443  0.3221 -0.0954  0.1810
 3483TIP3    H131940   0.548   4.713   4.422  0.5021 -2.5809 -1.6438
 3483TIP3    H231941   0.409   4.772   4.413  1.5951  0.2068 -1.1477
 3484TIP3   OH231942   2.862   4.311   0.801  0.1803 -0.1124  0.0558
 3484TIP3    H131943   2.825   4.243   0.857 -0.7090 -0.6545 -1.1371
 3484TIP3    H231944   2.885   4.265   0.720  1.4068  0.6531 -0.0579
 3485TIP3   OH231945   4.256   5.174  11.792 -0.1442  0.3041 -0.3331
 3485TIP3    H131946   4.300   5.119  11.857  0.6525  0.1054 -1.0070
 3485TIP3    H231947   4.182   5.121  11.763  0.3764 -0.2646 -0.6725
 3486TIP3   OH231948   2.925   6.577  15.097 -0.0124  0.3552 -0.1720
 3486TIP3    H131949   2.905   6.597  15.189  0.2799  1.1565 -0.2699
 3486TIP3    H231950   2.974   6.654  15.067  0.0297  0.0245 -0.9536
 3487TIP3   OH231951   6.235   3.524   3.487  0.1875 -0.2363  0.6444
 3487TIP3    H131952   6.221   3.539   3.580  0.4137  0.1336  0.6178
 3487TIP3    H231953   6.201   3.602   3.444  3.3215  1.2973  0.6426
 3488TIP3   OH231954   4.117   3.125  13.985  0.0153 -0.2319  0.2050
 3488TIP3    H131955   4.174   3.069  13.933  1.3910  0.1905  1.1909
 3488TIP3    H231956   4.103   3.202  13.931 -0.3155 -0.7035 -0.3850
 3489TIP3   OH231957   5.435   4.426   5.759 -0.2084 -0.3779 -0.4049
 3489TIP3    H131958   5.449   4.359   5.692 -2.2328 -1.3165  0.0441
 3489TIP3    H231959   5.505   4.410   5.823  0.6780 -0.5962 -1.3963
 3490TIP3   OH231960   0.755   1.056  16.058  0.3236  0.5653 -0.5822
 3490TIP3    H131961   0.834   1.086  16.103  2.3546  0.0692 -3.5770
 3490TIP3    H231962   0.732   1.128  16.000  0.8153 -0.6888 -2.4009
 3491TIP3   OH231963   2.963   5.646   3.396 -1.1914  0.1708 -0.2254
 3491TIP3    H131964   2.916   5.576   3.350 -2.3201  1.3557 -0.9376
 3491TIP3    H231965   2.963   5.719   3.334 -2.0906  1.5637  1.3556
 3492TIP3   OH231966   6.777   6.038  16.444  0.1330 -0.4274 -0.5160
 3492TIP3    H131967   6.753   5.986  16.366 -1.0706 -0.1908 -0.3301
 3492TIP3    H231968   6.793   6.126  16.410 -1.0734 -0.1570 -0.4355
 3493TIP3   OH231969   4.932   0.445  11.506 -0.1732 -0.1741  0.7987
 3493TIP3    H131970   4.883   0.386  11.448 -0.7865 -0.5231  1.6421
 3493TIP3    H231971   4.985   0.499  11.448 -2.3978  0.9842 -0.2228
 3494TIP3   OH231972   4.172   2.537  12.694  0.0612 -0.4005  0.1192
 3494TIP3    H131973   4.229   2.541  12.771  0.6559  3.5486 -0.3284
 3494TIP3    H231974   4.101   2.597  12.714  1.1127  2.1411 -2.8872
 3495TIP3   OH231975   2.233   0.914  13.658 -0.0293 -0.2064 -0.1192
 3495TIP3    H131976   2.257   0.834  13.705 -0.8228 -0.8806 -0.8078
 3495TIP3    H231977   2.254   0.894  13.566 -0.4340  0.2913 -0.3231
 3496TIP3   OH231978   0.617   4.421   1.409 -0.5324 -0.2180  0.1756
 3496TIP3    H131979   0.581   4.457   1.329 -2.1983  1.0143  1.4119
 3496TIP3    H231980   0.682   4.487   1.437 -0.0195 -0.6015 -0.0920
 3497TIP3   OH231981   1.161   1.577   5.967 -0.3686  0.4770  0.7706
 3497TIP3    H131982   1.200   1.615   6.045 -1.1058  0.8822  0.9408
 3497TIP3    H231983   1.159   1.483   5.984  0.0201  0.5072  0.9863
 3498TIP3   OH231984   3.032   5.830  16.383 -0.0699 -0.2597 -0.8687
 3498TIP3    H131985   2.967   5.892  16.349 -1.4732 -0.4650  1.2819
 3498TIP3    H231986   3.099   5.886  16.424 -0.5478 -0.1227 -0.2726
 3499TIP3   OH231987   2.550   1.190   0.151  0.4517 -0.4510  0.2152
 3499TIP3    H131988   2.563   1.107   0.198  0.1951 -0.6460 -0.0557
 3499TIP3    H231989   2.604   1.253   0.198 -0.3875 -0.4720  1.2297
 3500TIP3   OH231990   0.293   1.025  14.708  0.0030  0.3690 -0.0262
 3500TIP3    H131991   0.241   1.066  14.638  0.1855  2.6748  1.0919
 3500TIP3    H231992   0.231   1.015  14.781  0.3582  0.1029  0.2438
 3501TIP3   OH231993   1.906   4.197  16.224 -0.0371 -0.1055  0.7928
 3501TIP3    H131994   1.882   4.145  16.148 -1.6774 -0.4186  1.4829
 3501TIP3    H231995   1.864   4.282  16.209 -0.0107 -0.0293  1.1353
 3502TIP3   OH231996   0.009   0.639   1.286  0.3253  0.1150  0.3898
 3502TIP3    H131997  -0.028   0.722   1.318 -0.1991  0.8731 -2.0114
 3502TIP3    H231998   0.091   0.665   1.243 -0.9505 -0.2011 -2.4207
 3503TIP3   OH231999   2.084   0.364   4.800  0.2209 -0.0458 -0.4416
 3503TIP3    H132000   2.040   0.378   4.884  0.5758  3.4579 -0.6925
 3503TIP3    H232001   2.013   0.364   4.735  0.1098 -0.6432 -0.3193
 3504TIP3   OH232002   4.220   6.667  13.711  0.3303 -0.5534 -0.0999
 3504TIP3    H132003   4.220   6.591  13.770  3.3406 -1.4376 -1.0490
 3504TIP3    H232004   4.253   6.739  13.765 -1.7963 -0.0101  0.5863
 3505TIP3   OH232005   2.019   2.715  14.987  1.0874  0.0984 -0.9551
 3505TIP3    H132006   2.072   2.788  14.957  0.8937 -0.0555 -1.6889
 3505TIP3    H232007   1.929   2.739  14.963  0.4992  1.2135  1.8728
 3506TIP3   OH232008   2.561   3.320  15.536 -0.0471  0.3568  0.3422
 3506TIP3    H132009   2.548   3.378  15.611  1.5142  0.8542  0.2708
 3506TIP3    H232010   2.634   3.263  15.561  0.4779  0.5053 -0.7679
 3507TIP3   OH232011   6.614   0.042  17.054  0.1980 -0.2082 -0.5246
 3507TIP3    H132012   6.592   0.064  16.964 -0.0758  0.8022 -0.2364
 3507TIP3    H232013   6.682   0.105  17.078  0.2495 -0.4467 -0.0220
 3508TIP3   OH232014   0.713   1.359  13.795  0.3332 -0.6312 -0.3571
 3508TIP3    H132015   0.634   1.342  13.744  0.1304  1.2422 -0.7475
 3508TIP3    H232016   0.690   1.338  13.885 -1.1623  1.4005 -0.2153
 3509TIP3   OH232017   5.701   1.418   1.673 -0.6022 -0.1662 -0.3215
 3509TIP3    H132018   5.706   1.323   1.666 -0.7078 -0.2850  0.9819
 3509TIP3    H232019   5.607   1.436   1.681 -0.6036  0.0844 -0.8196
 3510TIP3   OH232020   1.038   0.008  11.020  0.1341 -0.6995 -0.2607
 3510TIP3    H132021   1.007   0.044  10.938 -1.2200  1.2603  1.0291
 3510TIP3    H232022   1.093   0.077  11.058  0.3922 -1.3858  0.6664
 3511TIP3   OH232023   1.943   5.529  16.711 -0.3268  0.5557 -0.0126
 3511TIP3    H132024   1.980   5.474  16.642  0.8628  0.3326  0.7872
 3511TIP3    H232025   1.874   5.578  16.666  0.1637  0.1444 -1.2829
 3512TIP3   OH232026   4.953   5.091   3.422  0.0687 -0.1309 -0.2949
 3512TIP3    H132027   5.003   5.022   3.465  0.9753  0.9924  0.5031
 3512TIP3    H232028   4.877   5.104   3.478  0.8775  0.8272  0.6130
 3513TIP3   OH232029   6.434   0.662  12.109  0.1602  0.4261  0.4869
 3513TIP3    H132030   6.478   0.578  12.123  0.2626  0.7008  2.0635
 3513TIP3    H232031   6.343   0.645  12.132  0.1665  0.7229  0.7320
 3514TIP3   OH232032   4.831   4.461  11.789  0.0874 -0.4773 -0.0272
 3514TIP3    H132033   4.908   4.417  11.753  1.2852  1.8331 -0.4879
 3514TIP3    H232034   4.821   4.423  11.876  0.7166 -2.0025 -0.5892
 3515TIP3   OH232035   0.620   5.383   2.978  0.4136  0.5677 -0.0189
 3515TIP3    H132036   0.586   5.333   2.904  0.2291  2.2266 -1.1207
 3515TIP3    H232037   0.699   5.336   3.005 -0.8217 -1.4140  0.3322
 3516TIP3   OH232038   4.048   6.809  14.334 -0.0477  0.2460 -0.1051
 3516TIP3    H132039   4.068   6.725  14.375 -0.0219  0.8806  1.2497
 3516TIP3    H232040   4.103   6.811  14.256  0.0542 -0.9327 -0.0820
 3517TIP3   OH232041   1.922   1.523  14.418  0.3598  0.0991  0.1606
 3517TIP3    H132042   1.920   1.603  14.470 -0.0087 -0.0046  0.3097
 3517TIP3    H232043   1.984   1.542  14.347  1.6570 -0.1073  1.1868
 3518TIP3   OH232044   1.799   0.368   5.432 -0.1393  0.3588 -0.4256
 3518TIP3    H132045   1.849   0.448   5.418 -1.1741  1.2164  0.6481
 3518TIP3    H232046   1.866   0.299   5.435  0.6995  1.0520 -2.0934
 3519TIP3   OH232047   2.350   4.905   1.021  0.2760 -0.0370 -0.1268
 3519TIP3    H132048   2.362   4.985   0.971  0.0702 -0.5170 -0.9548
 3519TIP3    H232049   2.289   4.929   1.091 -0.0192  0.4466 -0.5514
 3520TIP3   OH232050   5.781   5.486   0.213 -0.1754  0.2693  0.8725
 3520TIP3    H132051   5.781   5.400   0.170  0.8519 -0.4065  2.1333
 3520TIP3    H232052   5.720   5.539   0.161  0.4475 -0.6977 -0.9400
 3521TIP3   OH232053   4.750   2.409   2.683 -0.0168 -0.0627 -0.4270
 3521TIP3    H132054   4.713   2.406   2.595 -1.6126 -1.0002  0.2435
 3521TIP3    H232055   4.675   2.403   2.742  1.1374 -1.3731  1.0028
 3522TIP3   OH232056   3.065   4.680   0.142  0.1612  0.2241 -0.3504
 3522TIP3    H132057   3.059   4.584   0.140 -0.8142  0.2801 -0.7953
 3522TIP3    H232058   3.147   4.698   0.187  0.5931 -0.8294 -0.6759
 3523TIP3   OH232059   3.234   5.598   5.833 -0.0864 -0.0412  0.0947
 3523TIP3    H132060   3.328   5.600   5.848 -0.4483  1.0830  2.8719
 3523TIP3    H232061   3.211   5.689   5.811 -0.5173 -0.3509 -0.7823
 3524TIP3   OH232062   1.914   2.565  13.456  0.5169  0.0719  0.0854
 3524TIP3    H132063   1.903   2.635  13.391 -1.6441  0.3215  0.6363
 3524TIP3    H232064   1.998   2.525  13.434  1.0058  1.7214 -1.3205
 3525TIP3   OH232065   3.286   3.957  17.013  0.4389  0.4533  0.1468
 3525TIP3    H132066   3.212   3.897  17.022  1.4244 -0.7658  0.4631
 3525TIP3    H232067   3.267   4.006  16.933  1.4393 -3.0705 -2.5210
 3526TIP3   OH232068   0.315   2.378   2.049  0.1822 -0.3568 -0.8710
 3526TIP3    H132069   0.252   2.438   2.088  2.2995  0.5859  1.3860
 3526TIP3    H232070   0.360   2.430   1.982  0.5312 -0.1084 -0.4454
 3527TIP3   OH232071   1.319   3.195   4.184  0.0994 -0.3288  0.2790
 3527TIP3    H132072   1.324   3.126   4.250 -1.4219  0.8073  1.6654
 3527TIP3    H232073   1.343   3.275   4.230 -0.3480  0.4069 -0.7231
 3528TIP3   OH232074   1.370   6.060  15.406 -0.2833 -0.0891 -0.0106
 3528TIP3    H132075   1.440   5.995  15.402 -0.1117  0.1327 -0.5626
 3528TIP3    H232076   1.312   6.028  15.476  0.5223 -0.1080  0.6602
 3529TIP3   OH232077   1.359   2.597  13.788 -0.2403 -0.0298 -0.1882
 3529TIP3    H132078   1.384   2.624  13.876 -0.2118  2.2491 -0.8334
 3529TIP3    H232079   1.264   2.604  13.786 -0.1123  2.2920 -0.9771
 3530TIP3   OH232080   4.876   6.318  14.016  0.0180  0.0907  0.7788
 3530TIP3    H132081   4.843   6.278  14.096 -1.4781  1.1853  0.7562
 3530TIP3    H232082   4.905   6.244  13.962 -2.9335 -1.0617  0.6108
 3531TIP3   OH232083   2.634   6.749  13.052  0.0854  0.5296  0.5484
 3531TIP3    H132084   2.647   6.831  13.099 -1.8370  0.4980  1.2280
 3531TIP3    H232085   2.559   6.766  12.994  0.2433 -0.4730  0.0159
 3532TIP3   OH232086   3.097   4.087  15.038 -0.0927 -0.0048 -0.3058
 3532TIP3    H132087   3.121   4.142  15.112 -0.3653 -1.4921  0.9398
 3532TIP3    H232088   3.019   4.128  15.001 -0.2958  0.4363  0.5959
 3533TIP3   OH232089   4.790   1.027   6.021  0.3356  0.5871 -0.6539
 3533TIP3    H132090   4.753   1.115   6.028 -0.7657  0.0982 -0.2044
 3533TIP3    H232091   4.876   1.034   6.064 -0.5155  1.0092  1.0631
 3534TIP3   OH232092   1.074   5.676   4.407 -0.1224 -0.2449  0.4872
 3534TIP3    H132093   1.083   5.581   4.415  0.4001 -0.1534  1.0359
 3534TIP3    H232094   1.082   5.708   4.497  1.2097  0.4424  0.1476
 3535TIP3   OH232095   1.906   5.468  16.193 -0.4069  0.2243  0.2710
 3535TIP3    H132096   1.906   5.374  16.210  4.3265 -0.0029  0.2536
 3535TIP3    H232097   1.884   5.508  16.277 -0.1798 -0.8908  0.8789
 3536TIP3   OH232098   5.097   0.860  16.877 -0.1561  0.0538 -0.2879
 3536TIP3    H132099   5.156   0.788  16.857  0.4973  0.2986  0.6930
 3536TIP3    H232100   5.027   0.853  16.812  0.8562 -0.3461 -1.3654
 3537TIP3   OH232101   2.631   6.097   1.111  0.3161  0.1468  0.5576
 3537TIP3    H132102   2.593   6.105   1.024 -0.8201 -0.9574  0.9218
 3537TIP3    H232103   2.710   6.151   1.108  1.1007 -0.9970 -1.6136
 3538TIP3   OH232104   0.445   3.244  11.336  0.6947 -0.3096 -0.2386
 3538TIP3    H132105   0.432   3.235  11.430  1.3464 -0.3122 -0.1454
 3538TIP3    H232106   0.359   3.225  11.298 -0.3029  2.3325  0.4900
 3539TIP3   OH232107   1.568   4.229   0.242  0.1068 -0.3126  0.2063
 3539TIP3    H132108   1.540   4.150   0.196 -1.4026  0.2941  0.0360
 3539TIP3    H232109   1.515   4.231   0.321 -0.7219  1.1041 -0.3383
 3540TIP3   OH232110   1.138   2.293  15.484  0.0038 -0.1964  0.0330
 3540TIP3    H132111   1.072   2.224  15.493  2.0125 -2.1729  0.4023
 3540TIP3    H232112   1.162   2.291  15.391 -0.7845  0.9353 -0.2332
 3541TIP3   OH232113   0.975   5.749   0.897  1.0197  0.3718 -0.4230
 3541TIP3    H132114   0.982   5.808   0.972 -0.1871  1.2149 -0.9388
 3541TIP3    H232115   1.020   5.794   0.826 -1.2028  1.4828 -1.2391
 3542TIP3   OH232116   5.231   5.768   3.118  0.0860  0.6724  0.2915
 3542TIP3    H132117   5.148   5.811   3.139  0.2415  0.5685  1.1364
 3542TIP3    H232118   5.298   5.828   3.150  0.3167  0.1468  0.8101
 3543TIP3   OH232119   0.015   5.713   1.263 -0.2247 -0.4892  0.1331
 3543TIP3    H132120  -0.035   5.656   1.205  0.2203  0.6235 -1.3886
 3543TIP3    H232121   0.107   5.697   1.241  0.1034 -1.6732  2.1084
 3544TIP3   OH232122   3.650   1.901  15.848  0.5003  0.0528 -0.2574
 3544TIP3    H132123   3.658   1.872  15.757 -0.9789  1.5717 -0.9168
 3544TIP3    H232124   3.736   1.883  15.887  0.6863 -2.0655 -1.4882
 3545TIP3   OH232125   0.548   4.661   5.621 -0.5293 -0.1466 -0.4936
 3545TIP3    H132126   0.545   4.592   5.687  1.4333  2.1041  2.1332
 3545TIP3    H232127   0.638   4.659   5.587 -0.3012  1.3574 -0.0473
 3546TIP3   OH232128   3.616   2.345   4.254 -0.4333 -0.3352  0.2720
 3546TIP3    H132129   3.681   2.274   4.254  0.8801  0.8153  0.3444
 3546TIP3    H232130   3.556   2.322   4.183  1.6088 -0.1208 -1.6326
 3547TIP3   OH232131   5.291   1.141   0.553  0.9681 -0.1646  0.5021
 3547TIP3    H132132   5.223   1.091   0.598 -0.3674  1.6820  0.6470
 3547TIP3    H232133   5.339   1.184   0.623  0.6815  0.4838  0.3108
 3548TIP3   OH232134   0.158   3.091   6.250  0.1045 -0.3646  0.4697
 3548TIP3    H132135   0.126   3.179   6.229 -0.8687 -0.9321 -0.4716
 3548TIP3    H232136   0.166   3.091   6.346 -0.0829  0.6703  0.4968
 3549TIP3   OH232137   2.490   4.329  15.315  0.1840  0.2850  0.2397
 3549TIP3    H132138   2.561   4.277  15.353  0.0351 -0.1117 -0.0167
 3549TIP3    H232139   2.498   4.415  15.356  0.0921 -0.1014  1.0963
 3550TIP3   OH232140   5.541   2.339  16.265  0.5999 -0.3215  0.2586
 3550TIP3    H132141   5.609   2.324  16.331  1.7935 -1.8898 -1.2510
 3550TIP3    H232142   5.465   2.290  16.297  1.6750 -2.4324 -0.2633
 3551TIP3   OH232143   4.220   5.319  11.536 -0.3373  0.0168  0.2696
 3551TIP3    H132144   4.268   5.295  11.457  1.3529  1.0145  0.9389
 3551TIP3    H232145   4.267   5.273  11.606 -0.7421  0.5145  0.8703
 3552TIP3   OH232146   0.016   2.852  14.820 -0.3845  0.6735  0.2142
 3552TIP3    H132147  -0.021   2.867  14.907 -0.8836  2.1313 -0.2365
 3552TIP3    H232148   0.029   2.757  14.816 -1.2652  0.4768  1.5059
 3553TIP3   OH232149   0.158   2.582  10.572 -0.2074  0.3858  0.0649
 3553TIP3    H132150   0.165   2.630  10.490 -0.6187  0.5769  0.1432
 3553TIP3    H232151   0.248   2.582  10.607  0.2519 -0.8763 -1.0418
 3554TIP3   OH232152   4.181   5.787  11.060  0.4951  0.1587 -0.1953
 3554TIP3    H132153   4.155   5.762  11.149 -1.3003 -0.4454 -0.8457
 3554TIP3    H232154   4.111   5.846  11.031  1.2768  0.6689 -1.0706
 3555TIP3   OH232155   5.665   1.655  11.342 -0.0088  0.3912  0.5667
 3555TIP3    H132156   5.620   1.658  11.258 -0.9242  0.4381  1.0443
 3555TIP3    H232157   5.616   1.592  11.394  1.4821 -0.8448  0.5574
 3556TIP3   OH232158   0.768   2.598  14.374 -0.2542 -0.0835  0.1461
 3556TIP3    H132159   0.856   2.610  14.337 -0.1293 -0.5380  0.2921
 3556TIP3    H232160   0.769   2.650  14.455  0.6577 -1.9128  1.3659
 3557TIP3   OH232161   4.143   2.216  14.462 -0.2977 -0.0491  0.1546
 3557TIP3    H132162   4.094   2.292  14.494  0.8846  0.7463  0.1419
 3557TIP3    H232163   4.076   2.155  14.431 -1.2347  1.5693 -1.1539
 3558TIP3   OH232164   6.218   1.598  11.077  0.0608 -0.0656  0.7778
 3558TIP3    H132165   6.303   1.625  11.040  0.1339  0.7350  1.4828
 3558TIP3    H232166   6.225   1.503  11.085  0.2858 -0.1895 -0.6311
 3559TIP3   OH232167   5.821   3.191   1.204  0.6562 -0.0645 -0.3344
 3559TIP3    H132168   5.823   3.121   1.138  0.8179 -1.0388  0.6825
 3559TIP3    H232169   5.881   3.257   1.170 -2.1916  1.3410 -3.1545
 3560TIP3   OH232170   0.709   4.893   5.695  0.0921  0.0835 -0.1398
 3560TIP3    H132171   0.633   4.845   5.663  0.3017  0.0800 -0.6353
 3560TIP3    H232172   0.784   4.852   5.651  0.4467 -0.3018  0.7797
 3561TIP3   OH232173   2.911   3.982   4.704 -0.1414  0.2070 -0.2329
 3561TIP3    H132174   2.995   3.994   4.748 -0.6766  2.6387  0.2846
 3561TIP3    H232175   2.922   4.025   4.619 -0.7058  0.0433 -0.3967
 3562TIP3   OH232176   6.251   1.134  16.261  0.0253  0.6683  0.0345
 3562TIP3    H132177   6.195   1.060  16.286 -1.6367  1.2276 -1.7646
 3562TIP3    H232178   6.190   1.207  16.251  1.6054  2.3322  1.6854
 3563TIP3   OH232179   2.165   6.733  11.082  0.3299  0.0850  0.9306
 3563TIP3    H132180   2.175   6.827  11.095 -0.4011  0.5226 -1.3242
 3563TIP3    H232181   2.078   6.724  11.044  0.8948 -1.3843 -0.0718
 3564TIP3   OH232182   2.582   4.591  16.938  0.2133 -0.2243  0.5598
 3564TIP3    H132183   2.532   4.578  17.019  0.7466 -0.3683  0.8690
 3564TIP3    H232184   2.515   4.610  16.872 -0.3402 -1.2364  0.7909
 3565TIP3   OH232185   6.559   6.112  13.635  0.2568  0.2721 -0.2980
 3565TIP3    H132186   6.567   6.043  13.570  1.6232 -0.2473  0.3756
 3565TIP3    H232187   6.628   6.175  13.611 -1.5537  1.9250 -1.4565
 3566TIP3   OH232188   3.957   0.889  14.113 -0.5216  0.1002 -0.2725
 3566TIP3    H132189   3.903   0.940  14.173 -0.0198 -0.8020  1.0027
 3566TIP3    H232190   3.899   0.822  14.078 -0.2781 -0.8545  1.0792
 3567TIP3   OH232191   1.459   1.356   5.926  0.3923  0.0661  0.3434
 3567TIP3    H132192   1.427   1.267   5.910 -2.1012  0.7732  0.9307
 3567TIP3    H232193   1.438   1.372   6.019 -1.2058  1.9500 -0.2631
 3568TIP3   OH232194   1.822   4.140   3.431  0.7286 -0.2041  0.2125
 3568TIP3    H132195   1.752   4.193   3.393  1.8113  1.7077  0.7661
 3568TIP3    H232196   1.777   4.082   3.492 -0.4084  0.8546  0.4268
 3569TIP3   OH232197   2.877   1.824  11.871  0.1696 -0.0260  0.3300
 3569TIP3    H132198   2.904   1.757  11.808 -0.9591 -0.1590 -0.0354
 3569TIP3    H232199   2.814   1.779  11.927 -0.4182  0.6584  0.2281
 3570TIP3   OH232200   0.119   4.421   0.605  0.4715 -0.5964  0.1666
 3570TIP3    H132201   0.110   4.336   0.649 -1.5189 -0.3796  0.2473
 3570TIP3    H232202   0.134   4.483   0.677  0.0890 -0.6416  0.2906
 3571TIP3   OH232203   1.184   2.152   0.219 -0.5844  0.2557  0.0312
 3571TIP3    H132204   1.220   2.194   0.140 -1.4385 -1.3590 -1.2830
 3571TIP3    H232205   1.098   2.193   0.230 -1.0347 -0.4398 -0.7172
 3572TIP3   OH232206   4.144   1.484   2.302  0.0804 -0.3609  0.1718
 3572TIP3    H132207   4.127   1.479   2.396  1.5173  1.6224  0.5961
 3572TIP3    H232208   4.237   1.508   2.295  0.4976 -2.2619 -1.8177
 3573TIP3   OH232209   0.048   0.192   2.213  0.6565  0.0515  0.2925
 3573TIP3    H132210   0.018   0.283   2.207 -0.1144 -0.2038  0.1731
 3573TIP3    H232211   0.139   0.198   2.243  0.9297  0.9045 -0.6457
 3574TIP3   OH232212   2.053   4.069  14.597  0.2881 -0.5526  0.3715
 3574TIP3    H132213   2.137   4.088  14.639  1.5667  2.2871 -3.0135
 3574TIP3    H232214   1.998   4.145  14.617 -1.0325 -1.6619  1.2316
 3575TIP3   OH232215   4.753   5.440  15.029 -0.4331 -0.2615  0.2197
 3575TIP3    H132216   4.723   5.471  14.944  0.5144 -0.7923 -0.3311
 3575TIP3    H232217   4.833   5.490  15.045 -0.7316  0.0042  0.9180
 3576TIP3   OH232218   1.367   6.052   4.264 -0.3592  0.0386  0.0047
 3576TIP3    H132219   1.293   6.093   4.308  0.3741  0.8089  0.5483
 3576TIP3    H232220   1.426   6.026   4.335  0.1516 -0.0524 -0.4425
 3577TIP3   OH232221   5.047   6.782  13.057  0.1414 -0.7400 -0.2226
 3577TIP3    H132222   5.102   6.730  13.116  0.7054 -1.9403 -1.7506
 3577TIP3    H232223   4.958   6.754  13.076  0.4778 -2.9772 -1.5940
 3578TIP3   OH232224   4.042   0.146  13.786 -0.0693 -0.0800  0.0491
 3578TIP3    H132225   4.137   0.136  13.779  0.0108  0.1962  0.6168
 3578TIP3    H232226   4.030   0.234  13.824 -0.5122 -0.4017  0.6810
 3579TIP3   OH232227   3.812   4.926  13.298  0.6748 -0.0632 -0.5989
 3579TIP3    H132228   3.763   4.942  13.379  0.4007 -0.3040 -0.7162
 3579TIP3    H232229   3.788   4.997  13.240 -0.9829 -1.1673 -1.3272
 3580TIP3   OH232230   0.564   2.792  11.085 -0.5878 -0.0196  0.1849
 3580TIP3    H132231   0.545   2.857  11.017  1.2797  0.2838 -0.1111
 3580TIP3    H232232   0.616   2.725  11.040  0.2744 -0.0586  1.1942
 3581TIP3   OH232233   6.135   5.215   3.295  0.1661 -0.1496 -0.1025
 3581TIP3    H132234   6.199   5.144   3.286  1.2871  0.7942  0.1027
 3581TIP3    H232235   6.093   5.220   3.210  1.4565  0.1783 -0.7575
 3582TIP3   OH232236   3.213   1.321  12.215 -0.3006 -0.4920  0.2878
 3582TIP3    H132237   3.271   1.307  12.140  0.5736 -1.9326  1.1799
 3582TIP3    H232238   3.272   1.338  12.289 -1.0422 -0.9829  1.0184
 3583TIP3   OH232239   1.419   1.768  14.179 -0.1671 -0.0338  0.1944
 3583TIP3    H132240   1.374   1.781  14.263 -1.3850 -1.4750 -0.1781
 3583TIP3    H232241   1.503   1.729  14.203  0.4352  1.5743  0.8357
 3584TIP3   OH232242   1.678   6.058   5.631  0.0021 -0.2615  0.1222
 3584TIP3    H132243   1.651   6.125   5.693  1.0479  1.5574 -1.2799
 3584TIP3    H232244   1.659   5.975   5.675 -4.6472  0.7871  0.5860
 3585TIP3   OH232245   3.876   0.671   3.492 -0.7520 -0.1759 -0.1714
 3585TIP3    H132246   3.850   0.750   3.540  0.3584 -0.0960  0.3156
 3585TIP3    H232247   3.909   0.612   3.559  0.2081 -0.3141 -0.7550
 3586TIP3   OH232248   1.311   2.739   5.357  0.8946 -0.2016 -0.3088
 3586TIP3    H132249   1.305   2.733   5.452  1.7448 -0.0568 -0.2442
 3586TIP3    H232250   1.313   2.833   5.338  0.1322 -0.2170 -0.5183
 3587TIP3   OH232251   5.701   4.953  14.838  0.0529 -0.5061 -0.2281
 3587TIP3    H132252   5.732   5.023  14.781 -2.0234  2.6275  2.1752
 3587TIP3    H232253   5.741   4.972  14.923  0.2887 -2.9690  0.2887
 3588TIP3   OH232254   3.655   5.308  13.488  0.0975  0.1124  0.2886
 3588TIP3    H132255   3.672   5.330  13.580 -2.1680  1.7992  0.3988
 3588TIP3    H232256   3.563   5.330  13.475  0.3318 -0.1627 -2.3889
 3589TIP3   OH232257   1.118   1.031   1.365  0.7745 -0.3582 -0.1546
 3589TIP3    H132258   1.072   1.101   1.320  4.0812  2.2768  0.1362
 3589TIP3    H232259   1.179   0.996   1.300  1.2894 -0.8480  0.5711
 3590TIP3   OH232260   4.022   2.623  16.586  0.8178 -0.1026  0.0607
 3590TIP3    H132261   3.978   2.707  16.600  1.3639  0.2663 -0.3411
 3590TIP3    H232262   4.107   2.648  16.549  0.4441 -0.8907 -1.3986
 3591TIP3   OH232263   1.353   3.895   5.331  0.7070 -0.4901 -0.0943
 3591TIP3    H132264   1.312   3.809   5.339  1.4574 -1.0529 -1.7187
 3591TIP3    H232265   1.290   3.956   5.368 -1.0100 -1.4732 -1.2972
 3592TIP3   OH232266   1.084   3.241  15.014 -0.3847 -0.1451 -0.3978
 3592TIP3    H132267   1.163   3.198  14.981  0.0824  0.4719 -0.1153
 3592TIP3    H232268   1.105   3.261  15.106  0.1925  2.4062 -1.0044
 3593TIP3   OH232269   3.421   2.159   6.154  0.3630 -0.1134  0.4634
 3593TIP3    H132270   3.431   2.248   6.189 -0.0273  1.0299 -2.0793
 3593TIP3    H232271   3.372   2.112   6.222  0.6725  1.5658  1.9287
 3594TIP3   OH232272   2.152   4.762  12.628  0.3488  0.2738  0.0138
 3594TIP3    H132273   2.242   4.791  12.638  0.0811  1.2746 -0.3677
 3594TIP3    H232274   2.126   4.734  12.716  0.4276  1.8117  0.5581
 3595TIP3   OH232275   3.850   2.841   5.919 -0.6030 -0.7288  0.2311
 3595TIP3    H132276   3.862   2.760   5.869  2.6206 -0.3718  0.2243
 3595TIP3    H232277   3.823   2.812   6.006 -0.0174 -1.8040  0.0686
 3596TIP3   OH232278   4.924   5.995  13.356  0.0444 -0.2225 -0.3278
 3596TIP3    H132279   4.986   6.068  13.356 -2.0257  1.5962 -0.2626
 3596TIP3    H232280   4.887   5.994  13.268  0.3921 -1.5543 -0.4915
 3597TIP3   OH232281   1.318   3.141  11.883  0.6225 -0.8600  0.0307
 3597TIP3    H132282   1.282   3.226  11.857  0.0472 -1.3204 -0.7064
 3597TIP3    H232283   1.412   3.155  11.886  0.5696 -0.3325 -0.6019
 3598TIP3   OH232284   3.361   2.184  14.812 -0.1519 -0.1213  0.1198
 3598TIP3    H132285   3.342   2.177  14.905  2.3007  0.5661  0.7403
 3598TIP3    H232286   3.406   2.268  14.802 -1.7681  0.6235 -2.0079
 3599TIP3   OH232287   0.987   4.541   0.874 -0.3307 -0.0641 -0.1616
 3599TIP3    H132288   1.082   4.545   0.866 -0.2171 -1.0225  0.4910
 3599TIP3    H232289   0.967   4.598   0.949 -0.1789 -0.4646  0.1911
 3600TIP3   OH232290   3.534   1.045  14.459 -0.3517  0.2151 -0.0296
 3600TIP3    H132291   3.616   1.004  14.488 -0.7778 -0.7300 -0.1154
 3600TIP3    H232292   3.536   1.040  14.364 -0.3498  0.5158 -0.0474
 3601TIP3   OH232293   1.775   5.135   4.304  0.2067 -0.2132 -0.1965
 3601TIP3    H132294   1.832   5.166   4.233 -0.4237  0.0608 -0.5933
 3601TIP3    H232295   1.707   5.085   4.259 -1.3683  1.6543 -0.0283
 3602TIP3   OH232296   5.050   0.850   2.687 -0.1191  0.0314 -0.7599
 3602TIP3    H132297   5.120   0.853   2.622  0.0047 -0.1566 -0.6365
 3602TIP3    H232298   5.012   0.762   2.677 -1.1955  0.5806 -1.7235
 3603TIP3   OH232299   0.837   5.460   2.090 -0.0622  0.4586 -0.6737
 3603TIP3    H132300   0.879   5.407   2.022  1.5936 -1.5218  1.7350
 3603TIP3    H232301   0.866   5.550   2.071  1.6375 -0.2672 -1.7065
 3604TIP3   OH232302   1.515   2.988   2.520 -0.4521  0.2387  0.3260
 3604TIP3    H132303   1.605   2.988   2.554 -0.0795  0.6683 -0.6222
 3604TIP3    H232304   1.460   2.970   2.597  0.4608 -0.3635  0.8590
 3605TIP3   OH232305   5.332   5.020  11.092  0.5936  0.3089  0.2662
 3605TIP3    H132306   5.356   5.076  11.019  0.0543 -1.0100 -0.9642
 3605TIP3    H232307   5.245   4.986  11.070  1.5737 -2.3580  0.0708
 3606TIP3   OH232308   1.313   3.338  12.739  0.2755 -0.1113 -0.4451
 3606TIP3    H132309   1.395   3.353  12.787  1.5716 -0.0641 -2.5378
 3606TIP3    H232310   1.287   3.249  12.764  0.3639  0.2755  1.0813
 3607TIP3   OH232311   5.831   4.236   4.258  0.5376 -0.0258  0.0920
 3607TIP3    H132312   5.831   4.228   4.162  0.3029  0.1675  0.0748
 3607TIP3    H232313   5.855   4.148   4.289 -3.0622 -1.2438 -0.0598
 3608TIP3   OH232314   4.178   4.750   0.117 -0.0041  0.2928 -0.2891
 3608TIP3    H132315   4.153   4.796   0.037  0.1556  0.0410 -0.4845
 3608TIP3    H232316   4.266   4.716   0.099 -0.5703 -1.0860 -0.5799
 3609TIP3   OH232317   4.658   1.229   3.855  0.2865  0.3449 -0.0716
 3609TIP3    H132318   4.613   1.313   3.849 -0.2383  0.2849  2.2496
 3609TIP3    H232319   4.588   1.164   3.863  0.7268 -0.0949  0.2981
 3610TIP3   OH232320   3.126   2.124   5.473  0.3556 -0.1540 -0.1662
 3610TIP3    H132321   3.166   2.057   5.529 -0.7188  0.7783  1.8186
 3610TIP3    H232322   3.087   2.186   5.535  2.0937  2.8285 -1.8632
 3611TIP3   OH232323   4.468   6.011   1.682  0.3025 -0.0352  0.4813
 3611TIP3    H132324   4.380   6.043   1.704  0.8395  0.6219  1.8186
 3611TIP3    H232325   4.488   6.050   1.597 -1.3723 -1.6150 -0.7073
 3612TIP3   OH232326   1.480   3.461  14.044  0.5859 -0.0260  0.3863
 3612TIP3    H132327   1.536   3.516  13.988  2.7056 -0.1832  2.2285
 3612TIP3    H232328   1.445   3.396  13.984 -0.8038  2.3458 -1.5847
 3613TIP3   OH232329   3.074   0.177   2.907 -0.3646 -0.0265  0.1969
 3613TIP3    H132330   3.055   0.133   2.990 -0.4121 -0.6625 -0.1439
 3613TIP3    H232331   3.167   0.198   2.912 -0.5575  0.7211  0.7711
 3614TIP3   OH232332   0.841   1.588  11.410 -0.1970  0.4583  0.5863
 3614TIP3    H132333   0.852   1.539  11.329 -2.1888  0.5903  0.1735
 3614TIP3    H232334   0.851   1.680  11.384  1.1551  0.4220  0.9053
 3615TIP3   OH232335   2.577   6.045   5.729  0.0403  0.2358 -0.0193
 3615TIP3    H132336   2.638   6.118   5.740 -0.0764  0.5574 -1.4268
 3615TIP3    H232337   2.622   5.970   5.767  0.5576  0.8301  0.5676
 3616TIP3   OH232338   1.840   4.838  16.994 -0.0169 -0.3103  0.2165
 3616TIP3    H132339   1.886   4.908  17.040 -0.7002  0.6113 -0.4416
 3616TIP3    H232340   1.815   4.776  17.062 -2.6139  1.9005  1.4718
 3617TIP3   OH232341   0.862   0.980   3.997 -0.4704 -0.1069  0.2186
 3617TIP3    H132342   0.775   0.965   4.033 -1.7947 -0.1878 -2.6907
 3617TIP3    H232343   0.919   0.918   4.042 -1.8776 -0.0103  2.2251
 3618TIP3   OH232344   4.658   6.284   4.379 -0.1726  0.4113  0.1557
 3618TIP3    H132345   4.619   6.199   4.358 -1.5607  0.3375  2.6609
 3618TIP3    H232346   4.585   6.336   4.411  0.7463  2.4334 -0.8694
 3619TIP3   OH232347   6.417   0.770   5.423  0.1821 -0.3771 -0.1063
 3619TIP3    H132348   6.400   0.858   5.457  0.0477 -0.5975  0.4068
 3619TIP3    H232349   6.333   0.743   5.385  0.3315 -0.1318 -0.6263
 3620TIP3   OH232350   6.230   3.175  12.041  0.2720  0.4157 -0.2934
 3620TIP3    H132351   6.290   3.194  12.113  0.9817  0.8295 -0.9636
 3620TIP3    H232352   6.283   3.125  11.979 -0.5750 -0.6740 -0.1501
 3621TIP3   OH232353   5.965   1.182  16.749 -0.1455  0.0918 -0.2369
 3621TIP3    H132354   6.027   1.250  16.721 -0.9492  1.6257  1.4735
 3621TIP3    H232355   5.894   1.231  16.791 -1.7252 -1.7198 -0.6654
 3622TIP3   OH232356   2.014   2.224  10.938 -0.6715 -0.1324 -0.2855
 3622TIP3    H132357   1.999   2.317  10.922 -2.3080 -0.1983  0.6768
 3622TIP3    H232358   1.973   2.180  10.864  0.6140 -0.0932 -1.0457
 3623TIP3   OH232359   4.463   0.595  12.217  0.5187  0.9554  0.0047
 3623TIP3    H132360   4.477   0.618  12.308 -0.9780  1.6758  0.0768
 3623TIP3    H232361   4.542   0.545  12.193  0.4642 -0.2037  1.9812
 3624TIP3   OH232362   2.129   4.734  14.821 -0.0227  0.0652  0.0603
 3624TIP3    H132363   2.098   4.811  14.773  0.1365  0.5801  0.7706
 3624TIP3    H232364   2.052   4.701  14.867  0.3725  1.1995  1.6278
 3625TIP3   OH232365   5.810   4.754   1.723 -0.1864 -0.1473 -0.2408
 3625TIP3    H132366   5.729   4.758   1.773 -0.2207 -0.3520 -0.2821
 3625TIP3    H232367   5.872   4.708   1.779  0.2477  0.9988  0.2702
 3626TIP3   OH232368   1.120   5.785   4.647  0.0864  0.2348 -0.2586
 3626TIP3    H132369   1.120   5.858   4.709  0.9629  3.0082 -3.2550
 3626TIP3    H232370   1.213   5.762   4.637 -0.2043 -1.7651  1.0123
 3627TIP3   OH232371   3.501   1.463  15.127 -0.0739 -0.1958  0.2812
 3627TIP3    H132372   3.481   1.539  15.182  0.5728  0.2338 -0.0726
 3627TIP3    H232373   3.418   1.415  15.123 -1.0695  1.5058 -1.1047
 3628TIP3   OH232374   6.524   1.120  12.749  0.1646  0.2043 -0.2412
 3628TIP3    H132375   6.530   1.049  12.813  1.0573  1.1986  0.8305
 3628TIP3    H232376   6.613   1.155  12.745 -0.2953  1.3454 -0.6453
 3629TIP3   OH232377   1.318   6.685   0.986  0.0310 -0.0340 -0.1591
 3629TIP3    H132378   1.351   6.630   1.057  0.5069  1.2214  0.6173
 3629TIP3    H232379   1.314   6.773   1.023 -0.8315  0.4490 -1.3375
 3630TIP3   OH232380   3.346   0.677   4.776  0.3660 -0.3002  0.3164
 3630TIP3    H132381   3.259   0.693   4.813  0.0532  2.2674 -1.3314
 3630TIP3    H232382   3.404   0.734   4.825  0.8656 -0.8700  0.3943
 3631TIP3   OH232383   2.781   6.396  15.808  0.4522 -0.1119  0.3951
 3631TIP3    H132384   2.811   6.471  15.756  1.3817 -0.5833  0.2195
 3631TIP3    H232385   2.707   6.430  15.858 -0.0763  0.5155 -0.7780
 3632TIP3   OH232386   5.956   4.226   5.798 -0.1698  0.3448  0.0180
 3632TIP3    H132387   6.015   4.277   5.855 -1.4436  1.8308  0.0778
 3632TIP3    H232388   5.928   4.152   5.853  0.3847  0.5085  0.5353
 3633TIP3   OH232389   3.713   5.152   4.818 -0.3334 -0.3906  0.2984
 3633TIP3    H132390   3.790   5.126   4.868 -0.0135 -0.9627 -0.4727
 3633TIP3    H232391   3.748   5.194   4.739 -0.8270  1.4099  0.9715
 3634TIP3   OH232392   2.760   3.728  15.975 -0.1266  0.2041 -0.3809
 3634TIP3    H132393   2.813   3.772  15.909 -1.9904  0.4593 -1.7835
 3634TIP3    H232394   2.774   3.635  15.959  1.0530  0.2516  0.2689
 3635TIP3   OH232395   2.591   3.460  12.397  0.4752  0.2331 -0.1264
 3635TIP3    H132396   2.567   3.552  12.406  0.1316  0.3611 -1.9344
 3635TIP3    H232397   2.507   3.414  12.388  0.6616 -0.2045  0.3393
 3636TIP3   OH232398   4.404   2.997   6.967  0.2468 -0.0973 -0.3283
 3636TIP3    H132399   4.355   3.008   6.886 -1.5648  1.6067  0.9350
 3636TIP3    H232400   4.466   3.071   6.968 -0.9343  0.9130  0.6189
 3637TIP3   OH232401   3.081   2.831   4.947  0.1598 -0.1397 -1.0408
 3637TIP3    H132402   3.131   2.875   5.015 -0.8481  1.5126 -1.3094
 3637TIP3    H232403   3.073   2.741   4.977 -1.8544  0.9236  2.0048
 3638TIP3   OH232404   1.992   6.686  15.324  0.0690  0.2885 -0.4403
 3638TIP3    H132405   2.015   6.594  15.309  2.3728  0.7523 -0.0806
 3638TIP3    H232406   1.999   6.696  15.419  2.5499  1.4276 -0.6681
 3639TIP3   OH232407   0.526   4.859  16.977 -0.2492  0.3355 -0.4537
 3639TIP3    H132408   0.599   4.797  16.980  1.0453  1.8105 -0.3052
 3639TIP3    H232409   0.548   4.926  17.041 -2.0620  0.5032  0.0407
 3640TIP3   OH232410   2.841   2.009  15.820 -0.0148 -0.1035  0.7197
 3640TIP3    H132411   2.903   2.001  15.748  0.8139  0.2268  1.3715
 3640TIP3    H232412   2.882   1.963  15.893 -0.7081 -0.1951  1.0633
 3641TIP3   OH232413   4.122   2.635   2.109 -0.1232  0.7548  0.2134
 3641TIP3    H132414   4.197   2.657   2.054  0.3532 -0.7751  0.1981
 3641TIP3    H232415   4.050   2.686   2.071 -0.3211 -1.7345 -3.2847
 3642TIP3   OH232416   1.687   5.797  14.021  0.0037 -0.0892  0.0758
 3642TIP3    H132417   1.641   5.715  14.037  1.5202 -1.2273 -0.9551
 3642TIP3    H232418   1.623   5.853  13.977 -0.6288 -1.3075 -0.6056
 3643TIP3   OH232419   5.869   1.377  17.199  0.0099  0.1018 -0.9653
 3643TIP3    H132420   5.827   1.291  17.189 -1.5276  0.5093  1.2061
 3643TIP3    H232421   5.809   1.438  17.156 -0.4845  0.4135  0.1339
 3644TIP3   OH232422   1.801   4.453  16.177  0.5257 -0.3661  0.3632
 3644TIP3    H132423   1.747   4.453  16.097 -0.9338 -0.8616  1.3130
 3644TIP3    H232424   1.815   4.546  16.196  1.0199 -0.2398 -0.5338
 3645TIP3   OH232425   5.517   0.756  16.619  0.2746 -0.0111 -0.2010
 3645TIP3    H132426   5.587   0.734  16.558  0.8928  0.5435  0.2858
 3645TIP3    H232427   5.530   0.849  16.637  0.4264 -0.2784  1.1696
 3646TIP3   OH232428   3.952   2.981  16.356  0.3735 -0.1979  0.1786
 3646TIP3    H132429   3.953   2.888  16.334 -0.7347  0.0226 -0.9493
 3646TIP3    H232430   3.929   2.984  16.448 -0.8053 -1.0247 -0.0658
 3647TIP3   OH232431   1.954   5.779  14.526 -0.8770 -0.2441  0.7608
 3647TIP3    H132432   1.907   5.723  14.463 -2.3679  1.1911  0.5250
 3647TIP3    H232433   1.996   5.717  14.586 -0.7877 -1.6357 -0.6624
 3648TIP3   OH232434   1.509   3.952   1.307 -0.0411 -0.0129  0.1833
 3648TIP3    H132435   1.450   4.025   1.289 -0.9184 -0.8910 -0.6218
 3648TIP3    H232436   1.547   3.930   1.222 -1.3473 -1.7907  0.0165
 3649TIP3   OH232437   0.435   2.736  16.607 -0.1713  0.0845  0.2010
 3649TIP3    H132438   0.422   2.766  16.697  3.2453 -0.5252  1.0530
 3649TIP3    H232439   0.414   2.643  16.610 -0.9715  0.2518  0.0941
 3650TIP3   OH232440   5.075   0.161   4.538  0.3997 -0.4612  0.0503
 3650TIP3    H132441   5.028   0.114   4.469 -3.5599  2.1476  0.6456
 3650TIP3    H232442   5.044   0.120   4.620 -0.4846  0.9175  0.4371
 3651TIP3   OH232443   2.267   1.754  10.225 -0.2716  0.4593 -0.0131
 3651TIP3    H132444   2.175   1.770  10.204 -0.4869  0.1426  0.6698
 3651TIP3    H232445   2.315   1.796  10.154 -0.9578  0.1275 -0.6960
 3652TIP3   OH232446   0.762   2.047  11.199 -0.2076  0.2962 -0.0887
 3652TIP3    H132447   0.780   2.141  11.196 -1.5257  0.5698 -0.2395
 3652TIP3    H232448   0.723   2.028  11.113  1.2122 -0.6597 -0.5512
 3653TIP3   OH232449   3.148   6.803  15.268  0.1162  0.1937  0.0906
 3653TIP3    H132450   3.221   6.826  15.210  0.7321  0.4855  0.9522
 3653TIP3    H232451   3.070   6.836  15.224  0.3758 -0.9801 -1.3300
 3654TIP3   OH232452   1.045   0.008  16.444  0.0141 -0.7683 -0.1523
 3654TIP3    H132453   1.134   0.038  16.462 -0.2843 -0.7319  1.4488
 3654TIP3    H232454   1.054  -0.085  16.425  0.4365 -0.6568 -0.5404
 3655TIP3   OH232455   3.555   4.793  12.108  0.0214  0.1689  0.2810
 3655TIP3    H132456   3.532   4.868  12.163 -0.8890  0.5260 -0.5602
 3655TIP3    H232457   3.639   4.816  12.069 -0.2487  0.7531  0.0360
 3656TIP3   OH232458   3.199   0.671   2.437 -0.0321  0.1290 -0.4093
 3656TIP3    H132459   3.285   0.678   2.395 -0.1129 -0.0182 -0.5965
 3656TIP3    H232460   3.167   0.761   2.439  0.0587  0.1636 -0.4785
 3657TIP3   OH232461   4.218   4.226   0.896 -0.6248  0.3615 -0.0850
 3657TIP3    H132462   4.136   4.190   0.931 -0.1956 -1.1832 -0.5849
 3657TIP3    H232463   4.263   4.261   0.973 -0.1041 -2.1462  0.8502
 3658TIP3   OH232464   0.421   2.771  14.891 -0.7900  0.3903 -0.1418
 3658TIP3    H132465   0.360   2.721  14.947 -0.0532 -0.2832  0.0823
 3658TIP3    H232466   0.506   2.729  14.905 -0.1740  1.6270 -0.0777
 3659TIP3   OH232467   0.982   0.814  11.716 -0.8453  0.6595  0.1110
 3659TIP3    H132468   0.929   0.802  11.795  2.4318  0.8684  2.5907
 3659TIP3    H232469   1.025   0.898  11.730 -0.6426  0.9993 -2.2733
 3660TIP3   OH232470   5.248   3.858  13.683  0.2461 -0.1646  0.5845
 3660TIP3    H132471   5.310   3.806  13.735 -1.5187 -2.3694  0.6157
 3660TIP3    H232472   5.173   3.871  13.741 -1.0331 -1.1779 -0.7573
 3661TIP3   OH232473   3.361   1.116  11.329 -0.1291  0.0067  0.3731
 3661TIP3    H132474   3.301   1.068  11.385  1.7005  0.1397  2.6093
 3661TIP3    H232475   3.305   1.164  11.268 -2.1967 -0.8882  1.4869
 3662TIP3   OH232476   5.930   2.989  15.941 -0.6905  0.4611  0.7470
 3662TIP3    H132477   5.880   3.021  16.015  0.5821  1.9407  1.0214
 3662TIP3    H232478   5.978   2.913  15.974 -1.0695  0.3661  1.0771
 3663TIP3   OH232479   0.543   6.603  14.071 -0.1990  0.1404 -0.0398
 3663TIP3    H132480   0.601   6.635  14.140 -0.0068  0.4374 -0.3372
 3663TIP3    H232481   0.455   6.613  14.108 -0.0597 -0.4269  0.4570
 3664TIP3   OH232482   5.342   5.672  16.030  0.2404  0.1949 -0.0730
 3664TIP3    H132483   5.385   5.723  15.961 -1.8050  1.6174 -0.3966
 3664TIP3    H232484   5.271   5.728  16.060 -1.1217 -1.8457  0.7303
 3665TIP3   OH232485   0.665   5.539   5.147 -0.6268  0.6594 -0.0990
 3665TIP3    H132486   0.638   5.515   5.236  1.0357  0.7487  0.4547
 3665TIP3    H232487   0.649   5.634   5.143  0.2949  0.8520  0.4923
 3666TIP3   OH232488   4.318   0.872  14.704 -0.5354 -0.2973 -0.9873
 3666TIP3    H132489   4.318   0.923  14.785  0.5900 -0.4027 -0.9048
 3666TIP3    H232490   4.405   0.886  14.667  0.3479 -3.2364 -0.2701
 3667TIP3   OH232491   3.418   0.530   1.850 -0.4068 -0.4674  0.1003
 3667TIP3    H132492   3.333   0.546   1.892  0.3528  0.8130  1.2288
 3667TIP3    H232493   3.398   0.522   1.757 -1.5747  1.6513  0.1089
 3668TIP3   OH232494   6.229   0.206  15.527 -0.0255 -0.7911  0.0949
 3668TIP3    H132495   6.201   0.131  15.474 -0.4508 -1.5532  1.3493
 3668TIP3    H232496   6.313   0.179  15.564  0.4213 -0.1373 -0.4157
 3669TIP3   OH232497   4.907   3.720  11.866  0.3617  0.0640 -0.6009
 3669TIP3    H132498   4.915   3.737  11.960  0.5595  1.8510 -0.9176
 3669TIP3    H232499   4.871   3.631  11.861  2.7006 -1.0631  1.1095
 3670TIP3   OH232500   3.156   0.107   1.763  0.4078 -0.2661  0.5312
 3670TIP3    H132501   3.172   0.085   1.672 -1.8887 -0.8414  0.1946
 3670TIP3    H232502   3.140   0.202   1.763 -0.3002 -0.3791  0.1958
 3671TIP3   OH232503   6.313   0.046   3.279 -0.4061 -0.3014  0.1885
 3671TIP3    H132504   6.387   0.086   3.324 -2.0860  0.6203  2.3393
 3671TIP3    H232505   6.343   0.032   3.190  1.0812  3.8029 -0.1523
 3672TIP3   OH232506   2.834   4.064   3.888 -0.7430 -0.4256 -0.4428
 3672TIP3    H132507   2.748   4.063   3.847 -2.1912  0.4327  2.3381
 3672TIP3    H232508   2.835   3.986   3.943 -1.5348  1.6593  2.7431
 3673TIP3   OH232509   2.984   4.566   4.864 -0.6007 -0.3112 -0.4103
 3673TIP3    H132510   3.037   4.634   4.905  0.4395 -0.4963 -1.4026
 3673TIP3    H232511   2.973   4.595   4.774 -0.3955 -1.2990 -0.7667
 3674TIP3   OH232512   0.543   3.386  11.570 -0.0654  0.2876  0.5453
 3674TIP3    H132513   0.609   3.397  11.638 -0.7441  1.3581  1.0584
 3674TIP3    H232514   0.479   3.325  11.608  0.2321 -0.1533  0.3442
 3675TIP3   OH232515   3.238   4.378  13.573  0.3017 -0.0856 -0.2420
 3675TIP3    H132516   3.285   4.426  13.642  0.3547 -0.4384 -0.0307
 3675TIP3    H232517   3.271   4.288  13.579  0.2604 -0.1339 -0.6884
 3676TIP3   OH232518   1.166   6.516  17.168  0.0132 -0.2489 -0.3312
 3676TIP3    H132519   1.081   6.559  17.176 -0.3125 -0.5828 -1.6250
 3676TIP3    H232520   1.145   6.423  17.159  0.4110 -0.2394 -1.7177
 3677TIP3   OH232521   6.230   3.076  12.674  0.5325 -0.1115 -0.0657
 3677TIP3    H132522   6.143   3.101  12.705  1.6295  3.4593  0.7106
 3677TIP3    H232523   6.269   3.028  12.747 -1.3243 -3.6911 -1.1907
 3678TIP3   OH232524   4.093   2.802   6.144  0.3003  0.5836  0.2867
 3678TIP3    H132525   4.002   2.816   6.171  0.0804 -0.2114 -0.0148
 3678TIP3    H232526   4.092   2.717   6.099  1.3839  0.0985  1.1398
 3679TIP3   OH232527   5.464   4.993  13.790  0.0540  0.5243  0.3188
 3679TIP3    H132528   5.535   5.018  13.849  0.1950 -1.3878  1.0226
 3679TIP3    H232529   5.432   4.909  13.824 -0.5679 -0.1274 -1.7109
 3680TIP3   OH232530   3.346   3.442   1.014 -0.2239 -0.7369  0.4696
 3680TIP3    H132531   3.289   3.501   1.063  1.3956  0.1413  1.4057
 3680TIP3    H232532   3.434   3.474   1.033  0.6314 -2.5941 -0.1680
 3681TIP3   OH232533   0.072   0.807  16.156  0.1100  0.1683 -0.4800
 3681TIP3    H132534   0.107   0.821  16.244  1.1773 -0.1538 -0.8308
 3681TIP3    H232535   0.049   0.714  16.154  0.7956 -0.0002 -0.7721
 3682TIP3   OH232536   6.169   0.259  16.277 -0.1763  0.3299  0.1496
 3682TIP3    H132537   6.133   0.171  16.267 -0.9095  0.6174  0.2042
 3682TIP3    H232538   6.095   0.317  16.261  0.2454  0.9317  0.3541
 3683TIP3   OH232539   3.595   5.089   0.523 -0.1652 -0.4609  0.3752
 3683TIP3    H132540   3.553   5.148   0.461  0.5185 -0.0174  0.3231
 3683TIP3    H232541   3.573   5.001   0.491 -1.7048 -0.2508  0.8126
 3684TIP3   OH232542   1.583   5.238  16.111 -0.3351 -0.2087 -0.0729
 3684TIP3    H132543   1.559   5.241  16.204  0.0909  0.5694  0.0218
 3684TIP3    H232544   1.536   5.161  16.077 -0.8481 -0.2481  0.6803
 3685TIP3   OH232545   6.521   4.627  12.297  0.5465 -0.3082  0.2861
 3685TIP3    H132546   6.465   4.684  12.245  0.0782  1.6601  2.7701
 3685TIP3    H232547   6.610   4.657  12.279  0.3848  0.3901  0.6251
 3686TIP3   OH232548   1.470   5.934  15.044 -0.3653  0.1601  0.0444
 3686TIP3    H132549   1.526   6.011  15.052  1.0098 -0.7878 -0.1998
 3686TIP3    H232550   1.471   5.895  15.132 -3.2835  1.8426  0.9595
 3687TIP3   OH232551   0.423   2.164  13.677  0.4370  0.1915  0.5356
 3687TIP3    H132552   0.493   2.119  13.723  1.8015  1.8337  0.1587
 3687TIP3    H232553   0.400   2.237  13.735 -1.1487 -0.4240  0.7524
 3688TIP3   OH232554   1.891   1.007   1.498  1.0976 -0.2387 -0.3258
 3688TIP3    H132555   1.798   1.000   1.475  0.7038 -2.5692  1.6102
 3688TIP3    H232556   1.938   0.984   1.418 -0.0365 -0.7972 -0.8479
 3689TIP3   OH232557   5.446   2.108  14.840  0.0604 -0.4474  0.5046
 3689TIP3    H132558   5.495   2.147  14.913  0.5393  0.0883 -0.0869
 3689TIP3    H232559   5.409   2.184  14.794  0.1266 -0.7604 -0.0604
 3690TIP3   OH232560   6.749   4.487  11.124 -0.5378  0.1357  0.2793
 3690TIP3    H132561   6.696   4.529  11.192 -2.3415  1.4312 -1.8229
 3690TIP3    H232562   6.707   4.402  11.110  0.7830 -0.8343  1.7864
 3691TIP3   OH232563   6.400   5.420   3.042  0.1417 -0.1692  0.4342
 3691TIP3    H132564   6.427   5.417   2.950 -0.7849  1.8694  0.0379
 3691TIP3    H232565   6.306   5.438   3.039  0.1992  0.4540  1.7703
 3692TIP3   OH232566   0.788   2.361  10.856 -0.2282 -0.0713  0.4322
 3692TIP3    H132567   0.833   2.350  10.939 -2.1132  0.4339  1.5791
 3692TIP3    H232568   0.858   2.380  10.793  1.2756 -0.9116  1.7865
 3693TIP3   OH232569   4.227   4.356   4.690 -0.2464 -0.2989 -0.4138
 3693TIP3    H132570   4.151   4.367   4.632  0.4753 -2.7396 -1.9646
 3693TIP3    H232571   4.228   4.262   4.711  1.3176  0.0045  1.0784
 3694TIP3   OH232572   1.925   1.262  14.903  0.1682 -0.0469 -0.9856
 3694TIP3    H132573   1.960   1.253  14.991 -0.6281 -0.5882 -0.7116
 3694TIP3    H232574   1.849   1.320  14.913  1.4917  1.9398 -1.7267
 3695TIP3   OH232575   4.318   2.115  11.863  0.8604  0.1126 -0.7498
 3695TIP3    H132576   4.229   2.116  11.827  0.5470  0.6558  0.0080
 3695TIP3    H232577   4.369   2.062  11.801  0.4829  1.5066 -2.3217
 3696TIP3   OH232578   6.385   0.369  14.497  0.2972 -0.1763 -0.0604
 3696TIP3    H132579   6.465   0.319  14.514  0.8374  0.6411 -0.1365
 3696TIP3    H232580   6.328   0.347  14.570  0.8166 -0.3210  0.3132
 3697TIP3   OH232581   3.561   1.205  12.221  0.1532  0.6998  0.4431
 3697TIP3    H132582   3.565   1.301  12.229  1.6249  0.5724  1.4991
 3697TIP3    H232583   3.510   1.177  12.297 -0.8004  0.6543 -0.1892
 3698TIP3   OH232584   0.668   2.951  12.327  0.4931 -0.0836  0.4221
 3698TIP3    H132585   0.639   3.041  12.313  1.5833  0.0922 -0.9659
 3698TIP3    H232586   0.758   2.950  12.293  0.5386 -1.6658  0.5256
 3699TIP3   OH232587   3.346   3.278   2.147 -0.5813 -0.3511 -0.4232
 3699TIP3    H132588   3.311   3.351   2.096  0.3663  1.6498  1.6460
 3699TIP3    H232589   3.269   3.241   2.192 -0.7176  1.1404  0.6163
 3700TIP3   OH232590   1.713   2.107   5.447 -0.2225 -0.0809 -0.1296
 3700TIP3    H132591   1.642   2.171   5.436 -1.1745 -0.8971  1.0676
 3700TIP3    H232592   1.789   2.160   5.470 -0.8218  0.6898  0.1192
 3701TIP3   OH232593   6.640   5.487   5.685 -0.4960  0.0894  1.0839
 3701TIP3    H132594   6.714   5.429   5.670 -0.6010 -0.0593  1.1360
 3701TIP3    H232595   6.608   5.509   5.598 -2.5828 -2.6584  1.0267
 3702TIP3   OH232596   4.526   2.156   3.172 -0.1112  0.1215 -0.1704
 3702TIP3    H132597   4.546   2.073   3.216 -0.3404  0.0306 -0.2352
 3702TIP3    H232598   4.446   2.187   3.213  1.0879  1.3793  1.3178
 3703TIP3   OH232599   3.180   5.307   6.427 -0.3330  0.0323 -0.2242
 3703TIP3    H132600   3.108   5.255   6.462  0.5641 -0.2918  1.2435
 3703TIP3    H232601   3.222   5.250   6.362 -1.3683  0.2230 -1.0812
 3704TIP3   OH232602   6.794   2.088   4.858 -0.0475  0.4302  0.2654
 3704TIP3    H132603   6.824   2.177   4.839 -0.6775  0.7811  0.8983
 3704TIP3    H232604   6.721   2.073   4.798 -0.5506  0.6918  0.8060
 3705TIP3   OH232605   6.054   2.905   0.189  0.0570  0.4114  0.5423
 3705TIP3    H132606   6.038   2.967   0.260 -1.1360 -0.0685  0.7164
 3705TIP3    H232607   6.089   2.827   0.233  0.1310  0.4272  0.5098
 3706TIP3   OH232608   6.005   2.754  17.178 -0.1679 -0.1609  0.7379
 3706TIP3    H132609   6.014   2.814  17.251 -0.4532 -1.0879  1.5611
 3706TIP3    H232610   6.094   2.727  17.157  0.1163  1.5791 -0.5794
 3707TIP3   OH232611   3.154   5.214   3.046  0.1014 -0.1232 -0.0932
 3707TIP3    H132612   3.182   5.201   2.955  1.6278 -0.7470  0.4320
 3707TIP3    H232613   3.226   5.179   3.098 -0.4324  0.8811  1.3768
 3708TIP3   OH232614   6.125   0.150   1.059  0.0750 -0.1062  0.4102
 3708TIP3    H132615   6.133   0.112   1.147 -1.3630 -0.7138  0.3083
 3708TIP3    H232616   6.161   0.083   1.001  0.1923 -0.0992  0.4760
 3709TIP3   OH232617   3.327   4.866  12.885 -0.2671 -0.2519 -0.1158
 3709TIP3    H132618   3.303   4.951  12.921  0.2509  0.1210 -0.6418
 3709TIP3    H232619   3.245   4.816  12.884 -0.7083  0.4737 -0.4387
 3710TIP3   OH232620   0.684   3.368   1.141 -0.1509 -0.1094 -0.2919
 3710TIP3    H132621   0.772   3.394   1.171  0.1516 -0.6885 -0.6629
 3710TIP3    H232622   0.700   3.324   1.057 -0.6058 -1.9368  0.5561
 3711TIP3   OH232623   5.920   0.838  16.703 -0.3697  0.5268  0.0855
 3711TIP3    H132624   5.965   0.780  16.642  1.1576  1.4569  0.2895
 3711TIP3    H232625   5.948   0.809  16.790  0.5664  1.6583  0.1852
 3712TIP3   OH232626   1.471   4.639  15.286 -0.1259 -0.4027  0.3778
 3712TIP3    H132627   1.542   4.658  15.224  1.0271  0.9828  1.9999
 3712TIP3    H232628   1.513   4.586  15.353 -1.3480 -1.8532  0.0334
 3713TIP3   OH232629   0.229   0.774   2.250 -0.4547 -1.0571 -0.5429
 3713TIP3    H132630   0.309   0.806   2.293 -0.6036  1.5077 -1.9337
 3713TIP3    H232631   0.260   0.734   2.169 -0.5370  0.7597 -1.5334
 3714TIP3   OH232632   3.361   1.804   1.712 -0.2245  0.5018 -0.7734
 3714TIP3    H132633   3.428   1.873   1.714  0.9566 -0.5049  3.1917
 3714TIP3    H232634   3.281   1.848   1.741 -1.0774  1.3125 -3.8837
 3715TIP3   OH232635   0.986   4.533  10.452 -0.1019  0.2386  0.2451
 3715TIP3    H132636   0.921   4.554  10.385  1.5362  1.5095 -1.0189
 3715TIP3    H232637   0.962   4.446  10.482 -0.1622 -0.9831 -2.9635
 3716TIP3   OH232638   6.672   1.028   1.961 -0.1241  0.3330  0.4246
 3716TIP3    H132639   6.640   1.115   1.937 -0.4454  0.1023 -0.0112
 3716TIP3    H232640   6.749   1.044   2.015  1.2201  0.9011 -1.5327
 3717TIP3   OH232641   1.350   5.201   4.401  0.3352 -0.5328  0.4640
 3717TIP3    H132642   1.384   5.206   4.311  1.4343  1.3596  0.9354
 3717TIP3    H232643   1.378   5.115   4.431  1.4999 -0.5085 -0.4411
 3718TIP3   OH232644   5.638   1.902   1.311  0.0561 -0.1754 -0.5025
 3718TIP3    H132645   5.583   1.827   1.289 -0.6506 -0.4039  1.7397
 3718TIP3    H232646   5.663   1.888   1.403  2.1715  0.9849 -0.8301
 3719TIP3   OH232647   0.477   4.268  14.517 -0.1045  0.2323  0.1409
 3719TIP3    H132648   0.556   4.297  14.472 -0.0219 -2.9274 -2.0479
 3719TIP3    H232649   0.508   4.222  14.594  0.0595  0.6364  0.3192
 3720TIP3   OH232650   0.820   3.729  12.436 -0.5721  0.0019  0.0722
 3720TIP3    H132651   0.876   3.805  12.421 -0.5158  0.4258  2.1118
 3720TIP3    H232652   0.731   3.763  12.429 -0.5591  0.5942  2.2099
 3721TIP3   OH232653   2.420   4.398   1.361 -0.4740  0.2716  0.4071
 3721TIP3    H132654   2.346   4.416   1.418 -1.6335 -1.5098 -0.4223
 3721TIP3    H232655   2.385   4.408   1.272  0.9758  1.8296 -0.0356
 3722TIP3   OH232656   1.934   5.677  13.472 -0.4324  0.5610  0.0287
 3722TIP3    H132657   1.925   5.739  13.544 -0.7152 -1.0987  1.4906
 3722TIP3    H232658   1.937   5.732  13.393 -1.2885  2.3733  1.1927
 3723TIP3   OH232659   3.375   5.669  11.602 -0.5131 -0.0663 -0.0699
 3723TIP3    H132660   3.414   5.711  11.526 -0.0840  0.5054  0.4506
 3723TIP3    H232661   3.303   5.617  11.567  0.2955 -0.6048 -0.9749
 3724TIP3   OH232662   2.129   6.263  13.566  0.5946  0.2651  0.1983
 3724TIP3    H132663   2.158   6.259  13.657 -0.7498 -0.0174  0.6375
 3724TIP3    H232664   2.054   6.323  13.567  1.0831  0.9390 -0.8891
 3725TIP3   OH232665   1.192   3.010  15.777 -0.0945 -0.2263 -0.4467
 3725TIP3    H132666   1.199   3.094  15.820 -0.6350 -0.2197 -0.3638
 3725TIP3    H232667   1.160   3.031  15.689  1.6930 -0.1722 -1.1180
 3726TIP3   OH232668   6.068   0.936  12.129  0.2049 -0.4021  0.4499
 3726TIP3    H132669   6.128   0.986  12.073 -1.0888  0.6255 -0.0855
 3726TIP3    H232670   6.103   0.847  12.129  1.8737  0.2218  0.4041
 3727TIP3   OH232671   3.218   5.871  13.915  0.6590  0.4063  0.1186
 3727TIP3    H132672   3.299   5.850  13.962  0.3415  1.3798  1.1637
 3727TIP3    H232673   3.156   5.803  13.943  1.0868 -0.3284 -0.6671
 3728TIP3   OH232674   0.799   4.540   4.480 -0.0153 -0.2599  0.2824
 3728TIP3    H132675   0.866   4.580   4.424 -0.0521  0.6629  0.8712
 3728TIP3    H232676   0.738   4.499   4.418  0.4041 -0.0003 -0.3146
 3729TIP3   OH232677   0.487   4.459   4.593  0.1611 -0.4488 -0.3230
 3729TIP3    H132678   0.512   4.544   4.557  1.5003 -0.5313  0.3548
 3729TIP3    H232679   0.391   4.460   4.590  0.0647  1.6316  0.8389
 3730TIP3   OH232680   5.250   3.622   3.591  0.3832 -0.2677  0.3858
 3730TIP3    H132681   5.336   3.594   3.561 -0.5970 -0.5436 -2.4919
 3730TIP3    H232682   5.230   3.564   3.664  3.1894  0.8084  2.1750
 3731TIP3   OH232683   5.827   3.209  13.419  0.5097  0.2650  0.5528
 3731TIP3    H132684   5.749   3.175  13.464 -0.0785  0.6078 -0.1946
 3731TIP3    H232685   5.888   3.229  13.490 -0.1799  0.2297  1.1708
 3732TIP3   OH232686   0.727   6.621  15.820  0.4055  0.1073  0.2637
 3732TIP3    H132687   0.709   6.568  15.743  0.5026 -0.1443  0.4096
 3732TIP3    H232688   0.711   6.711  15.793 -0.8999 -0.0791  0.3408
 3733TIP3   OH232689   1.548   3.909  11.158 -0.4607  0.0931 -0.4170
 3733TIP3    H132690   1.514   3.941  11.242  1.1892 -0.3340  0.4480
 3733TIP3    H232691   1.616   3.847  11.182  0.8819  0.8544 -2.0705
 3734TIP3   OH232692   1.481   1.781  16.319  0.1005 -0.2188 -0.1258
 3734TIP3    H132693   1.515   1.858  16.273  0.0160 -1.1266 -1.7624
 3734TIP3    H232694   1.476   1.809  16.410 -1.2980  2.2067 -0.8575
 3735TIP3   OH232695   5.611   1.855  11.552 -0.0196  1.3054  0.4800
 3735TIP3    H132696   5.526   1.885  11.520  0.0533  0.2335 -0.8444
 3735TIP3    H232697   5.660   1.833  11.472  0.5080 -0.6589  1.2844
 3736TIP3   OH232698   5.439   0.998  11.435 -0.2433 -0.1154  0.1627
 3736TIP3    H132699   5.514   1.041  11.394  0.1510  0.2546  1.2227
 3736TIP3    H232700   5.363   1.047  11.403 -0.0432 -0.4806 -0.9067
 3737TIP3   OH232701   2.154   1.630  12.200  0.1419  0.4075 -0.1191
 3737TIP3    H132702   2.211   1.578  12.144  0.8174  0.6641  0.3151
 3737TIP3    H232703   2.174   1.721  12.177  0.9133  0.5370  0.9893
 3738TIP3   OH232704   0.972   1.429  14.190 -0.4233  0.0773 -0.3666
 3738TIP3    H132705   1.061   1.424  14.224 -0.1152 -1.0152 -1.2747
 3738TIP3    H232706   0.978   1.487  14.114 -0.8014  1.2040  0.4238
 3739TIP3   OH232707   5.789   0.879   2.257  0.1225 -0.4696  0.4725
 3739TIP3    H132708   5.850   0.829   2.203  1.0335  0.4997  0.5738
 3739TIP3    H232709   5.833   0.963   2.271 -1.9533  0.9244 -0.8761
 3740TIP3   OH232710   0.301   3.495   3.673 -0.3819  0.8523  0.0751
 3740TIP3    H132711   0.312   3.462   3.762 -1.7860 -1.2474 -0.4497
 3740TIP3    H232712   0.384   3.538   3.652  0.7294 -0.4252  1.6664
 3741TIP3   OH232713   1.756   6.501  14.488  0.1329  0.3876 -0.4219
 3741TIP3    H132714   1.762   6.513  14.583  1.3174  4.3581 -0.8399
 3741TIP3    H232715   1.847   6.492  14.459 -0.2855 -4.0066 -1.0875
 3742TIP3   OH232716   5.722   6.717  14.961  0.1065  0.0607 -0.0529
 3742TIP3    H132717   5.752   6.808  14.966 -1.9177  0.8608 -1.2574
 3742TIP3    H232718   5.725   6.696  14.868  1.1395 -1.3652  0.2700
 3743TIP3   OH232719   5.055   3.532  16.766 -0.0794 -0.5895 -0.2201
 3743TIP3    H132720   5.131   3.515  16.822  1.1826  2.1653 -0.9167
 3743TIP3    H232721   4.981   3.534  16.826  0.6045 -1.7862  0.7083
 3744TIP3   OH232722   1.110   6.323  14.329 -0.1785 -0.0319  0.0375
 3744TIP3    H132723   1.201   6.336  14.302 -0.3223 -2.0042 -1.6690
 3744TIP3    H232724   1.058   6.361  14.258 -0.6092 -1.7620 -0.6251
 3745TIP3   OH232725   1.553   0.609  12.488  0.1170 -0.5898 -0.0951
 3745TIP3    H132726   1.488   0.592  12.556 -0.9643 -1.8560 -1.3724
 3745TIP3    H232727   1.625   0.549  12.508  0.3549 -0.0674  0.6279
 3746TIP3   OH232728   0.886   4.035   1.414 -0.1953  0.1509  0.2534
 3746TIP3    H132729   0.954   4.045   1.347  0.1461 -0.8171  0.4410
 3746TIP3    H232730   0.933   4.024   1.496 -0.5735 -0.5506  0.3845
 3747TIP3   OH232731   3.242   2.796  14.767  0.4773 -0.3650  0.5719
 3747TIP3    H132732   3.260   2.817  14.858  1.5079  0.8668  0.1264
 3747TIP3    H232733   3.285   2.866  14.717  1.1140 -1.7348 -0.9082
 3748TIP3   OH232734   3.060   6.477  13.355 -0.4148  0.1314 -0.3521
 3748TIP3    H132735   3.002   6.416  13.309  1.0269 -1.0256 -0.7090
 3748TIP3    H232736   3.083   6.430  13.435 -1.3645  1.3358  0.6619
 3749TIP3   OH232737   5.221   2.149   5.308 -0.0021  0.4413 -0.3866
 3749TIP3    H132738   5.303   2.147   5.258  0.4865  0.0673  0.4177
 3749TIP3    H232739   5.226   2.231   5.357 -0.0907  0.3960 -0.3040
 3750TIP3   OH232740   4.173   5.345  12.046 -0.2593 -0.2632  0.8612
 3750TIP3    H132741   4.176   5.250  12.057  1.2055 -0.2099  1.2446
 3750TIP3    H232742   4.258   5.367  12.006 -0.2763  0.9404  1.4341
 3751TIP3   OH232743   4.153   4.082   4.746 -0.4320  0.1078 -0.2719
 3751TIP3    H132744   4.143   3.992   4.776  1.4135 -0.5373 -1.4471
 3751TIP3    H232745   4.063   4.112   4.732 -1.3435 -0.2549  3.5447
 3752TIP3   OH232746   6.182   1.804   6.097  0.3666 -0.7194 -0.4960
 3752TIP3    H132747   6.097   1.850   6.094  0.5371 -0.0993  2.1497
 3752TIP3    H232748   6.178   1.743   6.024 -1.5629  0.6421 -1.6392
 3753TIP3   OH232749   0.040   4.655   5.330  0.1933  0.1736  0.0764
 3753TIP3    H132750   0.066   4.710   5.255 -0.2428  0.8159  0.3818
 3753TIP3    H232751   0.040   4.716   5.404  0.2813 -0.3828  0.5319
 3754TIP3   OH232752   3.437   2.340   1.695  0.2771 -0.3850  0.2915
 3754TIP3    H132753   3.494   2.328   1.770 -2.0392  1.9918  2.6490
 3754TIP3    H232754   3.373   2.270   1.702 -1.5825  1.3750  2.3512
 3755TIP3   OH232755   5.469   1.649  15.710  0.4683  0.6062  0.0458
 3755TIP3    H132756   5.519   1.653  15.792  0.9371 -0.5559 -0.1632
 3755TIP3    H232757   5.523   1.697  15.647 -0.0802  1.8522  0.4800
 3756TIP3   OH232758   0.766   5.275   3.554 -0.0364  0.0529  0.2338
 3756TIP3    H132759   0.743   5.290   3.646  0.8310  2.4240  0.1320
 3756TIP3    H232760   0.693   5.311   3.505  1.1115  2.2267  0.0020
 3757TIP3   OH232761   3.323   5.354  16.237 -0.0648  0.0843 -0.2086
 3757TIP3    H132762   3.400   5.321  16.192 -0.0235 -0.1119  0.0007
 3757TIP3    H232763   3.328   5.449  16.228 -0.1252  0.0429 -0.7184
 3758TIP3   OH232764   6.279   0.920  15.529  0.0186 -0.7900 -0.3998
 3758TIP3    H132765   6.260   0.955  15.616  2.4031 -0.0501 -0.1025
 3758TIP3    H232766   6.267   0.825  15.538 -2.3016 -0.5308 -0.0444
 3759TIP3   OH232767   1.063   6.378   5.379 -0.3046  0.3016  0.4730
 3759TIP3    H132768   1.077   6.471   5.399 -0.3464  0.9526 -2.1777
 3759TIP3    H232769   1.126   6.359   5.309 -2.5014 -0.7613 -1.3072
 3760TIP3   OH232770   1.395   1.092   5.885 -0.2910 -0.4129  0.1687
 3760TIP3    H132771   1.457   1.021   5.872  0.7119  0.3093  0.8428
 3760TIP3    H232772   1.309   1.052   5.875  0.2825 -1.4221 -0.8353
 3761TIP3   OH232773   0.487   0.710   3.953 -0.2213 -0.3529  0.2071
 3761TIP3    H132774   0.447   0.791   3.923 -0.0593  0.1696  1.3531
 3761TIP3    H232775   0.579   0.732   3.970 -0.4787 -0.3772  1.8637
 3762TIP3   OH232776   3.841   6.279  12.140 -0.4395  0.2645 -0.3541
 3762TIP3    H132777   3.752   6.254  12.161 -0.0636 -1.3790 -0.6175
 3762TIP3    H232778   3.860   6.235  12.057  0.8591 -0.0455  0.0836
 3763TIP3   OH232779   5.225   2.856   1.098 -0.2920 -0.2338 -0.7343
 3763TIP3    H132780   5.165   2.832   1.170 -1.6723 -0.6149 -1.9608
 3763TIP3    H232781   5.284   2.781   1.091  0.3093  0.0980  0.4187
 3764TIP3   OH232782   3.665   3.750   0.930 -0.1109  0.4252 -0.1254
 3764TIP3    H132783   3.685   3.669   0.882  1.1649  1.1350 -0.8529
 3764TIP3    H232784   3.615   3.720   1.006 -1.1032 -0.8609 -1.2228
 3765TIP3   OH232785   4.193   4.550  16.052 -0.2801  0.3948  0.3563
 3765TIP3    H132786   4.269   4.528  16.106 -0.4150 -0.5507  0.1793
 3765TIP3    H232787   4.133   4.476  16.063 -0.1605  0.0068 -1.3478
 3766TIP3   OH232788   0.509   3.117   2.524 -0.5505 -0.7294  0.0481
 3766TIP3    H132789   0.544   3.039   2.568  0.8172 -1.3693 -1.9958
 3766TIP3    H232790   0.449   3.081   2.458 -0.6605  0.0094 -0.2578
 3767TIP3   OH232791   6.618   4.755   2.933 -0.2110 -0.3754  0.2316
 3767TIP3    H132792   6.571   4.781   3.012 -0.6428 -1.9022  0.4994
 3767TIP3    H232793   6.700   4.718   2.965  0.0640 -0.0659 -0.1057
 3768TIP3   OH232794   3.838   6.388  11.740  0.2324 -0.2755  0.4430
 3768TIP3    H132795   3.755   6.340  11.742 -0.2304  0.5163  0.5482
 3768TIP3    H232796   3.830   6.447  11.666  0.5549  0.0672  0.6788
 3769TIP3   OH232797   3.490   2.618   5.519 -0.0454 -0.0742 -0.2178
 3769TIP3    H132798   3.568   2.628   5.572  0.2227 -1.4860 -0.3166
 3769TIP3    H232799   3.476   2.705   5.480  0.7172  0.5229  0.8064
 3770TIP3   OH232800   2.105   6.292   2.291  0.2915 -0.9731 -0.1484
 3770TIP3    H132801   2.159   6.260   2.363 -1.5432 -2.1573  0.7740
 3770TIP3    H232802   2.026   6.237   2.294 -0.7743  0.3869 -1.7046
 3771TIP3   OH232803   2.483   6.354   1.656  0.6724  0.2380 -0.3823
 3771TIP3    H132804   2.543   6.337   1.729 -0.7837 -1.8182  0.4353
 3771TIP3    H232805   2.499   6.282   1.595 -1.3242 -0.6945  0.1340
 3772TIP3   OH232806   5.683   3.966  15.575 -0.2787  0.0474 -0.3940
 3772TIP3    H132807   5.737   3.985  15.652  1.2296 -0.9843 -1.1417
 3772TIP3    H232808   5.619   4.037  15.572  0.7439  1.0631  0.8144
 3773TIP3   OH232809   0.598   5.030   5.129 -0.1278  0.2348  0.1129
 3773TIP3    H132810   0.692   5.043   5.145  0.1933 -1.1203 -0.5828
 3773TIP3    H232811   0.593   4.957   5.068 -1.7740 -2.2053  2.9236
 3774TIP3   OH232812   6.558   3.028   0.768  0.0685  0.0243  0.6811
 3774TIP3    H132813   6.591   2.960   0.827 -2.7651 -1.9136  0.2081
 3774TIP3    H232814   6.527   3.098   0.825  0.2076 -0.4360  1.3199
 3775TIP3   OH232815   2.197   4.541  15.781  0.0797 -0.1583  0.1192
 3775TIP3    H132816   2.231   4.616  15.731 -1.5355  1.5645  1.4778
 3775TIP3    H232817   2.273   4.484  15.793  1.6040  1.7262 -0.1283
 3776TIP3   OH232818   5.347   0.516   0.472  0.0310  0.2333  0.1103
 3776TIP3    H132819   5.313   0.567   0.546  1.0418  0.5062  0.3951
 3776TIP3    H232820   5.441   0.531   0.474 -0.0075  0.9775 -1.7843
 3777TIP3   OH232821   1.246   5.587   2.717  0.1283 -0.4718 -0.1402
 3777TIP3    H132822   1.226   5.680   2.729 -0.0312 -0.5347  0.0908
 3777TIP3    H232823   1.299   5.584   2.637 -1.1735 -0.3603 -1.0323
 3778TIP3   OH232824   4.400   3.152  14.595  0.4838 -0.3382  0.5753
 3778TIP3    H132825   4.319   3.143  14.645 -0.8652 -0.3486 -1.4724
 3778TIP3    H232826   4.422   3.245  14.601 -0.1949 -0.1602  0.4363
 3779TIP3   OH232827   0.489   3.895  11.368 -0.7519  0.2692  0.0058
 3779TIP3    H132828   0.475   3.931  11.456  2.7033  2.2308 -0.0547
 3779TIP3    H232829   0.565   3.838  11.377 -0.7595 -0.0352 -1.5839
 3780TIP3   OH232830   1.855   2.064   3.457  0.0650 -0.4368  0.4601
 3780TIP3    H132831   1.836   2.125   3.528  0.3788  0.9827 -0.6133
 3780TIP3    H232832   1.926   2.105   3.408 -1.8346  0.0157 -2.1962
 3781TIP3   OH232833   5.690   1.103  11.721  0.5361  0.5164  0.1932
 3781TIP3    H132834   5.767   1.074  11.769  0.2798 -0.9922 -0.2556
 3781TIP3    H232835   5.721   1.119  11.632  1.0269  3.3873  0.7854
 3782TIP3   OH232836   5.556   5.141  14.070  0.7435 -0.0043  0.5225
 3782TIP3    H132837   5.544   5.206  14.139 -0.5007  0.0421  0.2830
 3782TIP3    H232838   5.587   5.063  14.116 -1.4651 -0.4416  1.3799
 3783TIP3   OH232839   6.198   4.234  11.359 -0.5556 -0.0971  0.3047
 3783TIP3    H132840   6.252   4.168  11.402  0.0527  0.3119  0.1751
 3783TIP3    H232841   6.236   4.244  11.272  1.0443  2.3327  1.1835
 3784TIP3   OH232842   2.052   2.150  15.337  0.0906 -0.4679  0.5425
 3784TIP3    H132843   2.112   2.092  15.385 -0.5861 -2.4689 -0.8953
 3784TIP3    H232844   2.088   2.155  15.249 -0.5787  0.2621  0.2973
 3785TIP3   OH232845   3.666   2.104  13.553  0.2698 -0.0134 -0.4571
 3785TIP3    H132846   3.661   2.168  13.482 -1.2303  0.5310  0.1038
 3785TIP3    H232847   3.742   2.131  13.605 -1.0822  2.1511  0.5175
 3786TIP3   OH232848   0.706   0.685   1.092 -0.6640  0.0710 -0.0941
 3786TIP3    H132849   0.721   0.717   1.181 -1.3456 -0.7144  0.3138
 3786TIP3    H232850   0.736   0.594   1.094 -2.1013 -0.4244 -0.2382
 3787TIP3   OH232851   5.882   1.583   0.627 -0.1121 -0.7104 -0.0191
 3787TIP3    H132852   5.943   1.640   0.674 -0.5107 -0.5982  0.3688
 3787TIP3    H232853   5.845   1.639   0.558 -0.4571 -0.5134  0.3226
 3788TIP3   OH232854   5.586   2.935  14.879  0.1490 -0.1402  0.7036
 3788TIP3    H132855   5.528   2.861  14.862 -1.8462  2.0862 -3.6066
 3788TIP3    H232856   5.539   2.989  14.942 -2.3044  1.1407 -1.9987
 3789TIP3   OH232857   2.698   1.963  17.157 -0.2584 -0.8136 -0.4427
 3789TIP3    H132858   2.629   2.021  17.190  0.5505  0.3115 -0.6766
 3789TIP3    H232859   2.721   1.907  17.231 -2.0684 -1.8715 -0.6262
 3790TIP3   OH232860   1.414   1.972   2.488 -0.0521 -0.0979  0.5936
 3790TIP3    H132861   1.507   1.957   2.472 -0.0642  1.8494 -1.8573
 3790TIP3    H232862   1.369   1.906   2.435 -0.0655  0.0637  0.4027
 3791TIP3   OH232863   5.610   4.086   6.853  0.3000  0.4545  0.4905
 3791TIP3    H132864   5.573   4.030   6.921 -1.7528 -1.3492 -1.9090
 3791TIP3    H232865   5.537   4.143   6.827  0.3221 -0.3627 -1.5655
 3792TIP3   OH232866   0.984   2.065  14.439  0.0002 -0.1610 -0.3881
 3792TIP3    H132867   1.034   2.137  14.479  0.5964  0.7628 -2.6390
 3792TIP3    H232868   0.929   2.032  14.510  0.7926  1.5516  1.1072
 3793TIP3   OH232869   3.833   5.138  16.521  0.4359 -0.3341  0.5941
 3793TIP3    H132870   3.772   5.198  16.479 -0.5444 -0.8470  1.2348
 3793TIP3    H232871   3.880   5.192  16.584  1.1195  0.2005 -0.3637
 3794TIP3   OH232872   4.911   2.678  12.192 -0.3859  0.5087  0.2449
 3794TIP3    H132873   4.818   2.655  12.202 -0.8349  1.7877 -0.7508
 3794TIP3    H232874   4.928   2.667  12.099  0.0468  1.7108  0.1672
 3795TIP3   OH232875   2.817   3.969  15.337 -0.3142 -0.4825 -0.4604
 3795TIP3    H132876   2.825   3.878  15.308 -1.9802  0.1292 -3.1526
 3795TIP3    H232877   2.774   3.963  15.422  0.1803 -2.2212 -0.2862
 3796TIP3   OH232878   3.330   1.424  15.676 -0.6242  0.4925 -0.0626
 3796TIP3    H132879   3.406   1.451  15.625  0.9050 -1.9940  0.7197
 3796TIP3    H232880   3.338   1.472  15.758  0.3350  0.0141  0.1386
 3797TIP3   OH232881   1.686   2.774   5.468 -0.4249  0.3822  0.0433
 3797TIP3    H132882   1.638   2.745   5.546 -1.3426  0.7065 -0.3895
 3797TIP3    H232883   1.771   2.803   5.502 -0.3391 -0.6390  0.7643
 3798TIP3   OH232884   2.583   5.037   2.759 -0.2593 -0.2485  0.3330
 3798TIP3    H132885   2.508   4.997   2.715 -0.0818 -2.2623  1.7261
 3798TIP3    H232886   2.642   4.964   2.778  1.3959  1.0785  0.5793
 3799TIP3   OH232887   2.670   2.676   0.440 -0.2760  0.7423 -0.4748
 3799TIP3    H132888   2.744   2.712   0.489  0.5547 -1.3603 -0.0478
 3799TIP3    H232889   2.594   2.693   0.495  0.4000 -0.0159  0.7638
 3800TIP3   OH232890   2.509   1.042  10.349  0.4350  0.3961  0.9707
 3800TIP3    H132891   2.430   1.045  10.296 -1.2155 -3.3775  2.8480
 3800TIP3    H232892   2.493   1.103  10.421  1.0096  2.4903 -0.5474
 3801TIP3   OH232893   0.899   6.748  14.948  0.1186 -0.1777  0.4925
 3801TIP3    H132894   0.960   6.676  14.961 -0.0523 -0.6432 -1.0727
 3801TIP3    H232895   0.953   6.821  14.918 -0.0033 -0.3804 -0.2255
 3802TIP3   OH232896   1.997   4.548  13.531 -0.5661  0.4905 -0.0313
 3802TIP3    H132897   2.016   4.634  13.571  0.6925 -0.0640  0.6458
 3802TIP3    H232898   1.930   4.510  13.588 -1.1209  1.0072 -0.3268
 3803TIP3   OH232899   0.273   2.631   5.956  0.1416 -0.1751  0.3142
 3803TIP3    H132900   0.210   2.581   6.009 -0.6288 -0.5898 -0.9547
 3803TIP3    H232901   0.295   2.574   5.883  2.4628 -0.2587  0.9942
 3804TIP3   OH232902   0.377   2.846   1.396  0.0014  0.4710  0.3845
 3804TIP3    H132903   0.413   2.910   1.335 -1.6247  0.5475 -0.5525
 3804TIP3    H232904   0.292   2.883   1.422 -0.8750 -1.1677  0.0004
 3805TIP3   OH232905   5.497   1.974   4.335 -0.1557 -0.2307 -0.4729
 3805TIP3    H132906   5.581   1.987   4.291  0.8186  0.7394  1.5274
 3805TIP3    H232907   5.451   1.909   4.282  1.2647  0.2654 -2.3954
 3806TIP3   OH232908   4.903   4.656  10.478  0.0481 -0.5310  0.0523
 3806TIP3    H132909   4.991   4.639  10.445 -0.1202 -0.6765 -0.3301
 3806TIP3    H232910   4.907   4.744  10.516  0.3386 -0.5100 -0.0297
 3807TIP3   OH232911   1.255   1.914  13.093  0.3494  0.0535  0.4512
 3807TIP3    H132912   1.167   1.945  13.113 -0.5385 -1.6818 -0.5231
 3807TIP3    H232913   1.249   1.882  13.003  2.3478  1.1185 -0.1207
 3808TIP3   OH232914   0.476   6.453   5.901  0.1239 -0.1924  0.5505
 3808TIP3    H132915   0.454   6.534   5.856  1.0453  0.7749  1.7844
 3808TIP3    H232916   0.565   6.433   5.871 -0.4092 -1.2472 -0.4131
 3809TIP3   OH232917   6.803   4.483   6.472 -0.7474 -0.4403  0.1419
 3809TIP3    H132918   6.746   4.497   6.397  0.6125 -1.7420 -1.2092
 3809TIP3    H232919   6.892   4.479   6.435  0.2451  1.3135  2.1349
 3810TIP3   OH232920   2.306   5.235   2.467  0.2013  0.2154 -0.5085
 3810TIP3    H132921   2.232   5.194   2.512 -0.4718 -1.2472 -2.7917
 3810TIP3    H232922   2.384   5.196   2.508 -0.3245  0.2279  0.5261
 3811TIP3   OH232923   0.360   3.829  15.904  0.0457 -0.2087 -0.1557
 3811TIP3    H132924   0.444   3.871  15.887  0.0713 -0.1293  0.1578
 3811TIP3    H232925   0.378   3.735  15.893 -0.5132 -0.0703 -3.0238
 3812TIP3   OH232926   0.174   1.914   4.828  0.0333 -0.0976 -0.3943
 3812TIP3    H132927   0.119   1.838   4.848  1.4473 -1.6192 -1.9183
 3812TIP3    H232928   0.112   1.987   4.822 -1.3679 -1.0895  1.1782
 3813TIP3   OH232929   3.852   3.353  15.339  0.1950 -0.2104 -0.2701
 3813TIP3    H132930   3.921   3.323  15.398 -0.3661 -0.9437  0.0349
 3813TIP3    H232931   3.803   3.417  15.389 -0.1769 -0.7069  0.0117
 3814TIP3   OH232932   0.043   0.303  10.255  0.4701 -0.1980 -0.4915
 3814TIP3    H132933  -0.032   0.301  10.315  0.5482 -2.2097 -0.4142
 3814TIP3    H232934   0.023   0.237  10.190  1.6480  0.0767 -1.1552
 3815TIP3   OH232935   5.702   1.012   0.273 -0.3129 -0.1339 -0.4579
 3815TIP3    H132936   5.732   1.017   0.182  1.6042  1.5198  0.1790
 3815TIP3    H232937   5.607   1.016   0.267 -0.2019  1.2606 -2.3707
 3816TIP3   OH232938   2.519   4.236  14.728 -0.2902  0.4378 -0.3523
 3816TIP3    H132939   2.521   4.304  14.660 -0.7151 -0.4641 -1.2865
 3816TIP3    H232940   2.570   4.274  14.800 -0.3054  1.6470 -0.9438
 3817TIP3   OH232941   3.890   5.027   1.999 -0.4820  0.0616 -0.3521
 3817TIP3    H132942   3.908   4.961   2.066  0.3675 -0.0212 -0.6430
 3817TIP3    H232943   3.872   5.107   2.049 -0.1354 -0.0646 -0.0130
 3818TIP3   OH232944   5.851   1.841  13.480 -1.2633  0.1715  0.4829
 3818TIP3    H132945   5.793   1.771  13.506 -1.7321 -0.7193 -2.5365
 3818TIP3    H232946   5.794   1.917  13.467 -1.1651  0.3574  1.1095
 3819TIP3   OH232947   5.334   2.128  16.392  0.3956 -0.5459  0.1244
 3819TIP3    H132948   5.393   2.144  16.466  1.8441 -0.4522 -1.0252
 3819TIP3    H232949   5.248   2.117  16.433  0.9247  0.7945  1.7333
 3820TIP3   OH232950   5.327   0.279   4.382  0.5435 -0.6195  0.8253
 3820TIP3    H132951   5.409   0.229   4.378 -0.0274 -1.4699 -1.3742
 3820TIP3    H232952   5.262   0.216   4.412 -0.1235 -1.2123 -1.6882
 3821TIP3   OH232953   0.088   3.063   3.863  0.4722 -0.1681 -0.3440
 3821TIP3    H132954   0.062   3.152   3.887  0.2850 -0.1334 -0.6746
 3821TIP3    H232955   0.083   3.062   3.767  1.0577 -0.3521 -0.3765
 3822TIP3   OH232956   4.110   2.577  12.971 -0.2480 -0.0100 -0.2483
 3822TIP3    H132957   4.049   2.601  13.040 -0.0210 -0.9270  0.3034
 3822TIP3    H232958   4.101   2.481  12.964  1.6269 -0.2797  0.3768
 3823TIP3   OH232959   6.737   3.582  15.176  0.2494  0.3931 -0.0510
 3823TIP3    H132960   6.702   3.589  15.265  0.8309 -1.7261  0.4143
 3823TIP3    H232961   6.661   3.589  15.119 -0.5018 -0.7727  0.7655
 3824TIP3   OH232962   5.063   4.056  13.044 -0.0982  0.0344  0.7314
 3824TIP3    H132963   5.055   4.036  12.951  0.5513  1.2103  0.4068
 3824TIP3    H232964   4.978   4.092  13.069 -0.0794  0.2758  0.4478
 3825TIP3   OH232965   4.326   6.378   0.079 -0.4982  0.6153 -0.4970
 3825TIP3    H132966   4.342   6.340  -0.007  1.0075  1.3601 -0.5623
 3825TIP3    H232967   4.359   6.313   0.141 -0.0733  0.7897 -0.5379
 3826TIP3   OH232968   4.003   3.541  14.152 -0.4932  0.2059 -0.4306
 3826TIP3    H132969   4.052   3.517  14.231 -0.6492  2.5679  0.4759
 3826TIP3    H232970   3.917   3.568  14.185 -0.5168  1.3624 -1.3730
 3827TIP3   OH232971   4.467   1.493   2.496  0.4511  0.3175  0.2160
 3827TIP3    H132972   4.396   1.451   2.544  0.3121 -0.0133 -0.2645
 3827TIP3    H232973   4.544   1.482   2.552  0.5077 -0.9493 -0.0712
 3828TIP3   OH232974   4.201   6.660  16.164 -0.0166  0.0206 -0.0757
 3828TIP3    H132975   4.141   6.684  16.234  0.6793  0.5572  0.3519
 3828TIP3    H232976   4.283   6.638  16.209  1.4442  3.3317 -0.7890
 3829TIP3   OH232977   6.178   4.768   4.875 -0.4165 -0.2961 -0.1204
 3829TIP3    H132978   6.199   4.715   4.799  0.6808 -2.0066  1.3019
 3829TIP3    H232979   6.145   4.706   4.940 -0.1692  0.9144  1.2257
 3830TIP3   OH232980   0.570   5.804  14.437  0.6856  0.3237 -0.1356
 3830TIP3    H132981   0.607   5.749  14.506  1.4849 -1.2267 -1.7245
 3830TIP3    H232982   0.475   5.799  14.451  0.7228 -1.6588 -0.3432
 3831TIP3   OH232983   1.732   6.770  12.908 -0.4590  0.0519 -0.3455
 3831TIP3    H132984   1.664   6.780  12.974 -0.1764  0.8955 -0.1702
 3831TIP3    H232985   1.781   6.692  12.936 -0.1674  0.5679  0.6058
 3832TIP3   OH232986   2.698   0.583  10.888  0.8086 -0.0235  0.2494
 3832TIP3    H132987   2.736   0.527  10.821  1.2026  0.9405 -0.3496
 3832TIP3    H232988   2.673   0.523  10.958  0.5502 -1.0286 -0.6780
 3833TIP3   OH232989   2.496   0.878   3.026  0.8005 -0.0826  0.1232
 3833TIP3    H132990   2.497   0.809   2.960  0.1679 -0.4245  0.4695
 3833TIP3    H232991   2.589   0.900   3.038  0.9506 -0.3138 -0.5614
 3834TIP3   OH232992   2.660   0.344   0.342 -0.1435 -0.6266  0.1940
 3834TIP3    H132993   2.729   0.401   0.308 -0.6676  0.8043  1.4222
 3834TIP3    H232994   2.664   0.266   0.286  2.1821 -0.4282 -0.0356
 3835TIP3   OH232995   5.123   2.128  12.635  0.0647  0.0603  0.3378
 3835TIP3    H132996   5.214   2.102  12.622 -0.4509 -1.2048 -1.0668
 3835TIP3    H232997   5.074   2.046  12.633 -1.5088  0.9173 -2.9325
 3836TIP3   OH232998   1.688   5.023  15.747 -0.3777  0.2961  0.1522
 3836TIP3    H132999   1.658   5.004  15.658  0.0008 -1.6916  0.4037
 3836TIP3    H233000   1.750   5.096  15.736  0.5515 -0.6671 -1.4109
 3837TIP3   OH233001   2.178   3.594   3.153 -0.2609  0.0392  0.8495
 3837TIP3    H133002   2.122   3.520   3.130  0.0742  0.0318 -0.0097
 3837TIP3    H233003   2.206   3.577   3.243  1.1590 -1.7816  0.1348
 3838TIP3   OH233004   3.460   1.085  12.947 -0.3891  0.3690  0.1716
 3838TIP3    H133005   3.426   1.030  13.018 -0.2525  0.5525  0.3832
 3838TIP3    H233006   3.452   1.031  12.869  3.0646 -1.4532  0.8496
 3839TIP3   OH233007   0.140   6.272  10.489  0.0537 -0.3175 -0.2233
 3839TIP3    H133008   0.093   6.293  10.408 -0.0338  0.4146  0.0152
 3839TIP3    H233009   0.222   6.322  10.483 -0.0691 -0.0537  0.2618
 3840TIP3   OH233010   5.099   4.816  12.196  0.7972 -0.2057 -0.3444
 3840TIP3    H133011   5.120   4.802  12.104 -1.5495 -2.7864 -0.6192
 3840TIP3    H233012   5.101   4.729  12.235 -1.3224  0.3744  1.2654
 3841TIP3   OH233013   5.749   5.004   4.423  0.4595  0.1645  0.7042
 3841TIP3    H133014   5.662   5.043   4.424  0.0957 -0.5365 -0.7518
 3841TIP3    H233015   5.740   4.925   4.370  2.0216  0.1737  0.3628
 3842TIP3   OH233016   6.749   2.213  13.638  0.1007 -0.1649  0.4980
 3842TIP3    H133017   6.677   2.154  13.617  0.1576 -0.0357 -0.0666
 3842TIP3    H233018   6.828   2.161  13.625  0.1986  0.3082 -0.9857
 3843TIP3   OH233019   2.993   4.847   5.624 -0.0067  0.4426  0.7280
 3843TIP3    H133020   3.075   4.889   5.647  0.3892  0.0848  0.0250
 3843TIP3    H233021   2.950   4.909   5.564  1.4361 -0.8783 -1.8224
 3844TIP3   OH233022   5.648   4.106  13.622  0.4938  0.2469  0.2677
 3844TIP3    H133023   5.651   4.118  13.717  1.0217 -0.4331  0.3433
 3844TIP3    H233024   5.555   4.089  13.603 -0.2045  3.4374  0.2374
 3845TIP3   OH233025   6.638   3.796   4.786  0.0896 -0.5465 -0.0636
 3845TIP3    H133026   6.581   3.823   4.715  0.5169  0.7998  0.0817
 3845TIP3    H233027   6.582   3.796   4.863 -0.8136 -3.6514 -0.5758
 3846TIP3   OH233028   6.011   0.187  14.251 -0.3748  0.2212 -0.3816
 3846TIP3    H133029   5.952   0.236  14.309 -1.1293 -1.9952  0.8467
 3846TIP3    H233030   5.986   0.214  14.163 -1.7438  0.9425  0.1926
 3847TIP3   OH233031   6.166   5.553   2.421  0.2017 -0.8949  0.1812
 3847TIP3    H133032   6.198   5.485   2.481  0.6220 -2.4461 -1.7019
 3847TIP3    H233033   6.222   5.545   2.344  1.6889  3.0811  0.6499
 3848TIP3   OH233034   4.944   5.854  13.781  0.5529  0.2929 -0.3327
 3848TIP3    H133035   4.954   5.847  13.686 -0.5325 -1.3800 -0.3527
 3848TIP3    H233036   4.993   5.780  13.816  1.9819  1.5876  0.5290
 3849TIP3   OH233037   6.542   4.292   0.989 -0.0990  0.2543 -0.0133
 3849TIP3    H133038   6.551   4.379   1.028  2.2656 -0.4645  1.2775
 3849TIP3    H233039   6.595   4.235   1.046  1.5242 -1.3350 -2.8840
 3850TIP3   OH233040   6.539   0.777  16.195  0.2723 -0.3951 -0.4752
 3850TIP3    H133041   6.549   0.688  16.228 -0.7065 -1.2756 -2.3832
 3850TIP3    H233042   6.573   0.774  16.106 -1.0479  0.7666 -1.0635
 3851TIP3   OH233043   3.746   2.441  13.070  0.0165  0.3008  0.1346
 3851TIP3    H133044   3.717   2.532  13.068 -0.0816  0.2505 -1.5329
 3851TIP3    H233045   3.670   2.393  13.105 -0.8192  0.5718 -1.2478
 3852TIP3   OH233046   0.261   4.681  14.374 -0.0346  0.4301 -0.0638
 3852TIP3    H133047   0.271   4.655  14.283  1.0818 -0.0039  0.1738
 3852TIP3    H233048   0.260   4.776  14.372  0.9179  0.4395 -0.4443
 3853TIP3   OH233049   1.382   0.422  15.243  0.0297 -0.3818  0.0076
 3853TIP3    H133050   1.302   0.392  15.197 -0.0484 -1.3564  0.7510
 3853TIP3    H233051   1.409   0.347  15.295 -0.9851  1.2561  3.1191
 3854TIP3   OH233052   0.586   1.656  15.043  0.1237 -0.3781  0.2650
 3854TIP3    H133053   0.663   1.702  15.078 -0.3404  1.2997 -0.8107
 3854TIP3    H233054   0.534   1.724  15.002 -0.8887 -1.8133 -0.9397
 3855TIP3   OH233055   5.384   3.225   0.388 -0.2614 -0.0269 -0.1973
 3855TIP3    H133056   5.412   3.139   0.359 -1.3742 -0.6498  0.5048
 3855TIP3    H233057   5.405   3.227   0.482 -1.8733 -0.2479  0.1900
 3856TIP3   OH233058   4.408   4.753  13.729  0.8494  0.3108 -0.7095
 3856TIP3    H133059   4.325   4.726  13.769  2.3687 -2.5976  0.7144
 3856TIP3    H233060   4.436   4.828  13.781 -0.9643  1.5816 -1.4355
 3857TIP3   OH233061   2.407   6.129  13.183 -0.1177  0.0460 -0.1658
 3857TIP3    H133062   2.332   6.078  13.215  0.3384 -1.0216 -0.7402
 3857TIP3    H233063   2.404   6.210  13.233 -0.6457 -0.7016  1.0725
 3858TIP3   OH233064   4.870   2.317   0.507  0.0199 -0.1948  0.8757
 3858TIP3    H133065   4.871   2.371   0.428  0.4470 -1.2988  0.0892
 3858TIP3    H233066   4.789   2.341   0.552 -0.0698  0.6773  0.2657
 3859TIP3   OH233067   0.460   3.781   3.073  0.4684  0.1124 -0.8766
 3859TIP3    H133068   0.385   3.731   3.104  2.5583 -1.0077  3.0713
 3859TIP3    H233069   0.425   3.869   3.059 -1.7487 -0.5198  0.1105
 3860TIP3   OH233070   3.968   5.874   2.466 -0.2052  0.0984  0.2273
 3860TIP3    H133071   4.060   5.847   2.457  0.5589  1.8748  1.9177
 3860TIP3    H233072   3.967   5.964   2.432 -1.7012 -0.4182 -1.2008
 3861TIP3   OH233073   5.325   3.095   6.110  0.1936  0.5866 -0.2511
 3861TIP3    H133074   5.240   3.139   6.114 -0.2541 -0.3123  0.8938
 3861TIP3    H233075   5.324   3.047   6.028 -0.3753  0.6572 -0.2876
 3862TIP3   OH233076   4.764   0.123   5.453 -0.0799 -0.1652  0.5085
 3862TIP3    H133077   4.702   0.161   5.391 -1.5672 -2.4292  0.5016
 3862TIP3    H233078   4.777   0.034   5.422  1.5685 -0.3882  1.7399
 3863TIP3   OH233079   6.394   5.358   2.343 -0.6190 -0.4235  0.1000
 3863TIP3    H133080   6.425   5.289   2.284  0.3797 -0.3565  0.5337
 3863TIP3    H233081   6.452   5.353   2.419  0.5162  1.8840 -0.5143
 3864TIP3   OH233082   1.140   4.795   1.680  0.4047  0.2679 -0.4268
 3864TIP3    H133083   1.063   4.846   1.655 -0.6383 -0.9101  0.3191
 3864TIP3    H233084   1.190   4.854   1.737  0.3278  1.2133 -1.3093
 3865TIP3   OH233085   3.803   1.008   0.995  0.1974  0.0500  0.3616
 3865TIP3    H133086   3.898   1.012   0.995  0.4171 -2.7270  1.5448
 3865TIP3    H233087   3.779   0.977   0.908  0.6205 -1.8199  0.8784
 3866TIP3   OH233088   4.628   2.248   0.125 -0.2123 -0.4372  0.4729
 3866TIP3    H133089   4.711   2.231   0.082 -0.9099 -0.4488 -0.9326
 3866TIP3    H233090   4.577   2.168   0.111 -0.6847 -0.1956  0.7818
 3867TIP3   OH233091   6.373   3.678  16.405 -0.5599 -1.0543  0.3001
 3867TIP3    H133092   6.325   3.757  16.428  0.1271 -0.7310  0.6675
 3867TIP3    H233093   6.411   3.648  16.487  1.6387 -0.0824 -0.2753
 3868TIP3   OH233094   4.059   6.550  14.456 -0.5830 -0.1922  0.0576
 3868TIP3    H133095   4.089   6.460  14.438  3.5611  0.9296  0.3933
 3868TIP3    H233096   4.034   6.549  14.548 -0.7031 -1.0180  0.0263
 3869TIP3   OH233097   4.475   2.234   2.049  0.5227  0.7225  0.2416
 3869TIP3    H133098   4.423   2.285   1.987  0.2974  0.7313  0.4331
 3869TIP3    H233099   4.426   2.241   2.132  1.4709  1.7865  0.7520
 3870TIP3   OH233100   4.388   1.869   3.006 -0.2430  0.2593 -0.3102
 3870TIP3    H133101   4.410   1.957   2.974  1.0481  0.5235  1.1995
 3870TIP3    H233102   4.296   1.857   2.980 -0.7706  2.4647  0.2943
 3871TIP3   OH233103   5.860   4.184   3.994  0.7465  0.5550 -0.2053
 3871TIP3    H133104   5.911   4.107   3.968 -0.5009 -0.0164 -1.0366
 3871TIP3    H233105   5.819   4.214   3.914  1.9115  2.6745 -0.0883
 3872TIP3   OH233106   5.484   5.442  13.607 -0.4857  0.4919  0.4186
 3872TIP3    H133107   5.493   5.407  13.695  1.0498  2.0340  0.9240
 3872TIP3    H233108   5.551   5.398  13.555 -0.3520  0.7083  0.4054
 3873TIP3   OH233109   0.782   4.397  11.169 -0.9655 -0.5418  0.3032
 3873TIP3    H133110   0.716   4.401  11.238  0.0012 -0.6111  1.2625
 3873TIP3    H233111   0.823   4.311  11.180 -0.6540 -0.4667 -0.2212
 3874TIP3   OH233112   1.945   1.828  16.310  0.0599  0.2008 -0.7224
 3874TIP3    H133113   1.926   1.808  16.218 -0.4674  0.5205 -0.6869
 3874TIP3    H233114   1.977   1.918  16.309 -0.4054  0.3688 -0.5372
 3875TIP3   OH233115   2.222   3.568  14.189 -0.3327 -0.7536  0.4689
 3875TIP3    H133116   2.207   3.517  14.268  2.0399  0.0663  1.5265
 3875TIP3    H233117   2.224   3.659  14.219 -1.0094 -0.2938 -0.8166
 3876TIP3   OH233118   0.980   0.390   5.118 -0.1936  0.0071 -0.4356
 3876TIP3    H133119   0.904   0.334   5.131 -1.8250  1.6991 -2.0243
 3876TIP3    H233120   1.020   0.359   5.037 -0.7200  0.6634 -0.9652
 3877TIP3   OH233121   1.628   0.067   2.918  0.2407  0.1034  0.0456
 3877TIP3    H133122   1.613   0.095   2.827  0.9440  0.4643  0.0404
 3877TIP3    H233123   1.540   0.046   2.950  0.0030 -0.2273 -0.7797
 3878TIP3   OH233124   6.358   1.211   2.980 -0.8030 -0.1109  0.2942
 3878TIP3    H133125   6.386   1.181   2.894 -1.8062 -1.5253  0.4282
 3878TIP3    H233126   6.380   1.139   3.039 -0.7424  0.5632  1.1128
 3879TIP3   OH233127   0.969   0.560  16.000  0.2471 -0.1627 -0.4674
 3879TIP3    H133128   1.006   0.557  15.912  0.1979 -3.3870 -0.4822
 3879TIP3    H233129   1.014   0.491  16.049 -0.9067  0.4033  1.5493
 3880TIP3   OH233130   4.849   1.114   4.022  0.0438  0.1875  0.1303
 3880TIP3    H133131   4.796   1.157   3.955  1.5001  2.3191  0.2615
 3880TIP3    H233132   4.937   1.110   3.985 -0.2464 -4.5796 -0.6658
 3881TIP3   OH233133   1.095   1.151  10.527  0.2516 -0.1496  0.2909
 3881TIP3    H133134   1.025   1.151  10.462  0.6037  2.7518 -0.2112
 3881TIP3    H233135   1.105   1.059  10.550 -0.9225 -1.1453 -2.6201
 3882TIP3   OH233136   0.699   6.596   4.277  0.0120  0.1464  0.2177
 3882TIP3    H133137   0.767   6.663   4.268  0.3089 -0.1153  0.4854
 3882TIP3    H233138   0.720   6.532   4.210 -0.6061  0.5959 -0.4225
 3883TIP3   OH233139   2.328   4.146   1.335 -0.2353 -0.5419 -0.2615
 3883TIP3    H133140   2.327   4.235   1.370  0.5359 -0.4657 -0.4230
 3883TIP3    H233141   2.372   4.154   1.251  1.0342 -1.2770  0.3047
 3884TIP3   OH233142   3.820   4.045  12.517  0.3721  0.3248 -0.0917
 3884TIP3    H133143   3.783   3.956  12.514  0.8430  0.1414 -0.7982
 3884TIP3    H233144   3.807   4.073  12.607 -2.1494  0.5522 -0.4484
 3885TIP3   OH233145   2.307   2.090  14.811  0.3498 -0.1695  0.0809
 3885TIP3    H133146   2.352   2.056  14.733  0.7370  0.7315 -0.1037
 3885TIP3    H233147   2.377   2.102  14.875 -0.1578 -2.3187  1.1248
 3886TIP3   OH233148   4.087   4.026   2.388 -0.6318  0.1221  0.1066
 3886TIP3    H133149   4.124   3.964   2.325 -0.6040 -1.1315  1.3096
 3886TIP3    H233150   4.038   4.089   2.334 -0.3206 -0.7026 -1.1762
 3887TIP3   OH233151   1.236   1.679   3.995  0.2474 -0.3365  0.0335
 3887TIP3    H133152   1.235   1.682   4.091  0.9992  0.1286  0.0331
 3887TIP3    H233153   1.320   1.638   3.973  0.8192  1.0391 -0.4444
 3888TIP3   OH233154   3.739   3.728  12.207  0.5993 -0.4401 -0.3415
 3888TIP3    H133155   3.674   3.684  12.153 -0.7714  1.7589 -0.5874
 3888TIP3    H233156   3.795   3.773  12.144  0.3306  0.3648 -0.0059
 3889TIP3   OH233157   0.226   5.510   2.937 -0.1095  0.0879 -0.2633
 3889TIP3    H133158   0.288   5.437   2.932  0.3035  0.5219 -2.9277
 3889TIP3    H233159   0.277   5.586   2.909 -0.9711  1.1097  0.8671
 3890TIP3   OH233160   0.925   4.198  16.439  0.0851  0.4744  0.2727
 3890TIP3    H133161   0.924   4.106  16.465  2.7861  0.7017  1.5106
 3890TIP3    H233162   0.875   4.200  16.357  0.0485 -2.0936  0.1532
 3891TIP3   OH233163   1.677   2.991  13.392 -0.2103  0.3558  0.3927
 3891TIP3    H133164   1.671   2.972  13.486 -0.1318  0.0487  0.3356
 3891TIP3    H233165   1.728   3.072  13.388  0.6741 -0.1765  0.5632
 3892TIP3   OH233166   3.276   3.176   0.928 -0.3138  0.6180  0.3302
 3892TIP3    H133167   3.298   3.084   0.944 -3.3367 -0.5801 -1.5361
 3892TIP3    H233168   3.284   3.218   1.014  1.1089 -1.3506  1.2305
 3893TIP3   OH233169   2.810   0.314   0.596  0.4755 -0.2576 -0.5030
 3893TIP3    H133170   2.751   0.287   0.526 -0.1207  0.2610 -0.2118
 3893TIP3    H233171   2.891   0.339   0.550 -0.5565  1.9931 -1.2572
 3894TIP3   OH233172   3.133   4.802   6.208  0.2474  0.2435 -0.0935
 3894TIP3    H133173   3.215   4.797   6.258 -0.7477  0.8738  1.7306
 3894TIP3    H233174   3.092   4.716   6.221  1.1412 -0.5527 -2.0912
 3895TIP3   OH233175   4.204   3.875  11.965  0.1493  0.1179 -0.1355
 3895TIP3    H133176   4.153   3.853  12.042 -0.0763 -1.1323 -0.6245
 3895TIP3    H233177   4.242   3.792  11.936  1.3521  0.7964 -0.5709
 3896TIP3   OH233178   0.133   2.853  12.008 -0.5912 -0.0910  0.1755
 3896TIP3    H133179   0.141   2.797  12.085 -1.0895  0.7606  0.8658
 3896TIP3    H233180   0.189   2.929  12.027  0.6257 -0.6287 -1.0409
 3897TIP3   OH233181   0.746   2.368   5.538 -0.1964  0.2975 -0.3844
 3897TIP3    H133182   0.724   2.284   5.579 -1.1561  0.5868 -0.2883
 3897TIP3    H233183   0.685   2.430   5.577  1.2551  1.2832  0.4170
 3898TIP3   OH233184   3.614   2.530   1.666 -0.7782  0.3279 -0.2685
 3898TIP3    H133185   3.619   2.540   1.761 -1.0329 -1.4806 -0.0340
 3898TIP3    H233186   3.549   2.462   1.652  0.2116 -0.3779 -1.6811
 3899TIP3   OH233187   5.651   6.384  11.961  0.7046  0.0382 -0.3457
 3899TIP3    H133188   5.556   6.400  11.963  0.9982  2.0836 -0.5237
 3899TIP3    H233189   5.690   6.469  11.980  2.5281 -1.0461  1.0883
 3900TIP3   OH233190   5.492   5.792   4.367  0.4794 -0.0552  0.1193
 3900TIP3    H133191   5.517   5.856   4.434  0.6591 -1.2013  1.1713
 3900TIP3    H233192   5.517   5.707   4.403 -0.1545 -0.7802 -1.0633
 3901TIP3   OH233193   0.728   1.025   5.378  0.3169  0.1588  0.2929
 3901TIP3    H133194   0.752   0.933   5.364 -0.6010 -0.3922  2.0168
 3901TIP3    H233195   0.688   1.052   5.295 -0.7504 -1.4799  0.2204
 3902TIP3   OH233196   4.024   1.344   3.045  0.6406 -0.2659 -0.1234
 3902TIP3    H133197   4.040   1.412   2.981 -0.1106  1.1807  1.1568
 3902TIP3    H233198   4.026   1.389   3.130  0.5444 -1.9095  0.8118
 3903TIP3   OH233199   2.228   0.151  14.640  0.8593 -0.2964  0.3250
 3903TIP3    H133200   2.267   0.094  14.574  0.7859 -0.7334  0.6509
 3903TIP3    H233201   2.156   0.099  14.676 -0.2224  0.6003 -0.4706
 3904TIP3   OH233202   6.393   6.358  11.113  0.4395 -0.0192 -0.1628
 3904TIP3    H133203   6.346   6.275  11.105 -2.9618  1.6346  0.6188
 3904TIP3    H233204   6.386   6.399  11.027  0.7191  0.1406 -0.1122
 3905TIP3   OH233205   6.479   0.592   5.653  0.0182  0.0048 -0.3192
 3905TIP3    H133206   6.518   0.524   5.709  0.5452  0.6478  0.1141
 3905TIP3    H233207   6.501   0.566   5.564  0.9641  0.0600 -0.1077
 3906TIP3   OH233208   0.618   4.157  11.898 -0.1924 -0.2466 -0.3741
 3906TIP3    H133209   0.595   4.247  11.875 -0.9623 -0.8191 -1.9837
 3906TIP3    H233210   0.552   4.132  11.964  0.1570  0.4171  0.2408
 3907TIP3   OH233211   3.284   1.860  12.458  0.2496  0.7463 -0.0944
 3907TIP3    H133212   3.232   1.780  12.449 -0.9020  1.4294  0.3440
 3907TIP3    H233213   3.374   1.828  12.470 -0.2344 -0.4946  0.4184
 3908TIP3   OH233214   2.334   0.238  17.091 -0.1012 -0.1675 -0.0876
 3908TIP3    H133215   2.376   0.155  17.073  0.1871  0.0574 -0.4645
 3908TIP3    H233216   2.268   0.247  17.022 -1.8473 -1.2301  1.3595
 3909TIP3   OH233217   5.886   5.278  14.876 -0.3254  0.2669  0.7301
 3909TIP3    H133218   5.846   5.236  14.799 -0.6934  0.0913  1.0168
 3909TIP3    H233219   5.977   5.251  14.873 -0.4286 -0.0754  0.5806
 3910TIP3   OH233220   4.077   5.463   0.695  0.0376 -0.2088 -0.1026
 3910TIP3    H133221   4.147   5.515   0.734 -1.9252 -0.0691  3.6900
 3910TIP3    H233222   3.998   5.516   0.706 -1.4330 -2.3314  0.3680
 3911TIP3   OH233223   0.537   0.347   2.631 -0.4768 -0.2440 -0.0726
 3911TIP3    H133224   0.529   0.309   2.718  0.6925  1.2493  0.7395
 3911TIP3    H233225   0.451   0.387   2.615 -0.8647 -0.9626  0.1534
 3912TIP3   OH233226   6.587   6.791  10.245  0.0723 -0.0416 -0.7604
 3912TIP3    H133227   6.513   6.849  10.265  1.1783  1.2936 -0.3807
 3912TIP3    H233228   6.654   6.816  10.309  0.4623 -2.0391 -0.3225
 3913TIP3   OH233229   1.386   5.143  11.867  0.4311 -0.5093  0.2257
 3913TIP3    H133230   1.445   5.148  11.942  0.4732 -0.5601  0.1954
 3913TIP3    H233231   1.400   5.226  11.821  0.1780 -0.3414  0.4451
 3914TIP3   OH233232   3.307   1.381   2.179 -0.2338  0.2596 -0.3946
 3914TIP3    H133233   3.249   1.429   2.120  0.1269 -1.0556 -1.8627
 3914TIP3    H233234   3.250   1.355   2.252 -2.1109 -2.5991 -2.6477
 3915TIP3   OH233235   3.143   5.000  11.236  0.6357 -0.0960 -0.1427
 3915TIP3    H133236   3.155   4.910  11.208  1.0859 -0.7600  1.9836
 3915TIP3    H233237   3.228   5.042  11.220  1.3608 -0.8594  1.4450
 3916TIP3   OH233238   1.619   3.729   6.472 -0.0438 -0.6318 -0.1533
 3916TIP3    H133239   1.621   3.780   6.553  0.1488 -0.9551  0.0447
 3916TIP3    H233240   1.600   3.794   6.404 -0.9767 -0.4776  0.2336
 3917TIP3   OH233241   5.128   4.072  11.695  0.2036 -0.6989  0.1542
 3917TIP3    H133242   5.220   4.065  11.721  0.2272 -0.4454  0.1415
 3917TIP3    H233243   5.089   3.988  11.720  0.5587 -1.0068 -0.3078
 3918TIP3   OH233244   2.491   4.165   3.494  0.4034  0.0582 -0.2737
 3918TIP3    H133245   2.402   4.169   3.459  0.4508  2.0634 -0.2855
 3918TIP3    H233246   2.492   4.086   3.547 -0.6604 -1.2991 -2.1235
 3919TIP3   OH233247   0.416   4.249  12.886 -0.2002 -0.0360  0.1043
 3919TIP3    H133248   0.385   4.338  12.866 -0.7341  0.1950  1.8123
 3919TIP3    H233249   0.491   4.237  12.829 -0.5419  1.2510 -0.6663
 3920TIP3   OH233250   0.238   0.569  11.394  0.0227  0.7612 -0.1374
 3920TIP3    H133251   0.252   0.481  11.430  0.4451  1.2288  0.8726
 3920TIP3    H233252   0.306   0.578  11.327  1.6714  1.2529  1.5146
 3921TIP3   OH233253   3.656   6.000  14.892 -0.1400 -0.2114  0.7646
 3921TIP3    H133254   3.694   6.083  14.920  0.0937 -0.3696  0.9169
 3921TIP3    H233255   3.708   5.933  14.937  0.0168 -0.4592  0.2215
 3922TIP3   OH233256   2.296   6.332  15.959 -0.5052  0.9248  0.0472
 3922TIP3    H133257   2.382   6.300  15.986 -1.0431  0.1245  0.8967
 3922TIP3    H233258   2.290   6.311  15.866 -1.1302 -2.2918  0.6924
 3923TIP3   OH233259   3.869   6.447  13.693 -0.4287  0.2548  0.6656
 3923TIP3    H133260   3.886   6.540  13.708 -2.3802  0.8222 -0.4255
 3923TIP3    H233261   3.810   6.421  13.764  0.1129 -0.1805  0.9704
 3924TIP3   OH233262   2.652   0.296  16.605  0.2242 -0.2684  0.2957
 3924TIP3    H133263   2.629   0.210  16.571  0.1673 -0.6017  1.1653
 3924TIP3    H233264   2.658   0.351  16.527  0.8733 -1.1936 -0.3284
 3925TIP3   OH233265   2.165   4.747   3.636  0.4045  0.3548  0.0991
 3925TIP3    H133266   2.113   4.761   3.556 -0.6880 -2.9651  0.0965
 3925TIP3    H233267   2.100   4.742   3.706  1.1047  0.2390  0.7451
 3926TIP3   OH233268   5.321   0.173  15.347 -0.1689  0.2130 -0.8065
 3926TIP3    H133269   5.291   0.197  15.259  2.6479 -2.2936 -2.6290
 3926TIP3    H233270   5.416   0.179  15.342  0.0876 -0.1732  2.0989
 3927TIP3   OH233271   4.215   3.023   3.526 -0.1050  0.3180  0.0583
 3927TIP3    H133272   4.221   2.981   3.440 -0.1719  1.0403 -0.3055
 3927TIP3    H233273   4.270   2.969   3.583 -0.7597 -0.6792 -0.2249
 3928TIP3   OH233274   0.546   3.005   3.027  0.1375 -0.4901  0.1686
 3928TIP3    H133275   0.590   3.080   3.067  2.4884 -0.3504 -2.4456
 3928TIP3    H233276   0.522   3.035   2.939 -1.9345 -1.8040  0.2031
 3929TIP3   OH233277   2.857   6.668   0.885  0.8509  0.1608 -0.1550
 3929TIP3    H133278   2.839   6.615   0.807 -1.1114 -1.9205  1.5510
 3929TIP3    H233279   2.821   6.754   0.865 -1.1451 -0.8064 -1.0072
 3930TIP3   OH233280   1.967   0.886   2.636  0.1173  0.2412 -0.5132
 3930TIP3    H133281   2.016   0.946   2.580 -1.4435  0.4822 -1.7304
 3930TIP3    H233282   1.919   0.943   2.696  0.6474  0.0572  0.0924
 3931TIP3   OH233283   5.617   0.713  12.132  0.3930  0.1904  0.6398
 3931TIP3    H133284   5.621   0.796  12.180 -0.7139 -0.2918  1.6492
 3931TIP3    H233285   5.691   0.662  12.166  0.4838  0.4039  0.7624
 3932TIP3   OH233286   3.888   2.116   4.675  0.3293 -0.0584 -0.2742
 3932TIP3    H133287   3.864   2.205   4.701  1.1373  0.0967 -0.0305
 3932TIP3    H233288   3.937   2.082   4.750 -1.4070 -1.3327  0.3568
 3933TIP3   OH233289   4.248   1.736  14.428 -0.1838  0.2653 -0.2796
 3933TIP3    H133290   4.308   1.785  14.372 -1.3668  1.1852 -0.7979
 3933TIP3    H233291   4.231   1.655  14.379 -1.0542  0.9723 -1.2031
 3934TIP3   OH233292   6.243   2.553   2.246 -0.2300  0.5977  0.2220
 3934TIP3    H133293   6.153   2.528   2.267 -0.0201 -0.6567 -0.2813
 3934TIP3    H233294   6.235   2.640   2.209 -1.0176  1.3213  1.9532
 3935TIP3   OH233295   3.725   0.682   4.932  0.1845  0.1410 -0.0060
 3935TIP3    H133296   3.716   0.732   4.851  0.3932 -0.7562 -0.5942
 3935TIP3    H233297   3.819   0.665   4.939  0.3672  1.4455  1.1946
 3936TIP3   OH233298   5.106   1.344  12.470 -0.3287  0.0344  0.0897
 3936TIP3    H133299   5.019   1.306  12.473  0.6634 -2.4649 -0.5121
 3936TIP3    H233300   5.123   1.358  12.377  0.2503 -0.3576  0.1289
 3937TIP3   OH233301   6.595   1.145  10.248 -0.6928 -0.4028 -0.1632
 3937TIP3    H133302   6.619   1.202  10.175 -0.5710  0.9907  0.9227
 3937TIP3    H233303   6.504   1.120  10.231 -0.2746 -1.1330 -1.4214
 3938TIP3   OH233304   5.129   6.667  12.260 -0.1871  0.2514  0.1258
 3938TIP3    H133305   5.035   6.685  12.249 -0.6672 -2.0276  0.0080
 3938TIP3    H233306   5.173   6.743  12.222 -1.9800  0.9257 -0.7037
 3939TIP3   OH233307   5.918   1.284  10.469  0.8003  0.5180  0.0456
 3939TIP3    H133308   5.894   1.270  10.377  2.0939 -1.6080 -0.0423
 3939TIP3    H233309   6.014   1.275  10.470  0.8787  1.1942  1.5118
 3940TIP3   OH233310   4.780   5.118  11.917 -0.1320 -0.1893 -0.4579
 3940TIP3    H133311   4.782   5.027  11.947 -2.4616 -0.0235  0.4641
 3940TIP3    H233312   4.828   5.166  11.985  0.0051 -0.5825 -0.2705
 3941TIP3   OH233313   6.423   3.643  16.681 -0.1447  0.1643  0.5774
 3941TIP3    H133314   6.338   3.646  16.726 -0.2590  0.8227  0.3243
 3941TIP3    H233315   6.479   3.593  16.740 -1.0172 -1.2986  0.2168
 3942TIP3   OH233316   2.512   4.683  15.027  0.3652 -0.3253  0.4580
 3942TIP3    H133317   2.465   4.752  15.073  0.1340  0.5068 -0.9706
 3942TIP3    H233318   2.447   4.646  14.967  0.8005 -1.0336  0.4054
 3943TIP3   OH233319   2.567   0.296   4.744 -0.0099  0.7006 -0.2023
 3943TIP3    H133320   2.588   0.372   4.690 -0.3373  0.8862 -0.0739
 3943TIP3    H233321   2.481   0.267   4.712  0.7467 -0.5024 -1.2354
 3944TIP3   OH233322   0.129   0.044   6.645 -0.2061  0.1657 -0.0125
 3944TIP3    H133323   0.160   0.033   6.735  0.7226  0.0215 -0.3351
 3944TIP3    H233324   0.050   0.097   6.653 -0.2012  0.0451  0.9001
 3945TIP3   OH233325   3.816   2.162  11.527  0.2703 -0.1603 -0.0150
 3945TIP3    H133326   3.838   2.138  11.437 -0.7929  1.4818 -0.7632
 3945TIP3    H233327   3.721   2.173  11.526  0.4006  1.3035  0.9302
 3946TIP3   OH233328   1.100   6.782  16.156 -0.0608 -0.0373 -0.2718
 3946TIP3    H133329   1.069   6.824  16.236  0.0350 -1.9376  0.8173
 3946TIP3    H233330   1.035   6.806  16.090  0.2756  2.2000  0.1370
 3947TIP3   OH233331   0.695   2.324   2.335 -0.1680 -0.2105  0.0934
 3947TIP3    H133332   0.619   2.362   2.380 -0.6924  1.1358 -1.8128
 3947TIP3    H233333   0.657   2.262   2.272  0.5162 -1.5007  0.8943
 3948TIP3   OH233334   0.109   4.106  12.574  0.0114 -0.3571 -0.3919
 3948TIP3    H133335   0.160   4.089  12.653 -0.0128 -0.1577 -0.3303
 3948TIP3    H233336   0.047   4.175  12.600  0.3176  0.0489 -0.7091
 3949TIP3   OH233337   5.467   6.009   1.959  0.6881 -0.1885  0.5558
 3949TIP3    H133338   5.394   5.952   1.983  0.7236 -1.4446 -1.9161
 3949TIP3    H233339   5.487   5.984   1.868  3.8591  0.4631  0.9699
 3950TIP3   OH233340   3.153   3.640   1.807 -0.4953 -0.4229 -0.2396
 3950TIP3    H133341   3.141   3.704   1.877  0.5511 -0.9406  0.4437
 3950TIP3    H233342   3.066   3.631   1.767 -1.0787  0.0013  0.8935
 3951TIP3   OH233343   0.781   3.488   1.967 -0.3082  0.0886 -0.4243
 3951TIP3    H133344   0.704   3.460   1.918  0.2023  1.7438 -2.2555
 3951TIP3    H233345   0.852   3.432   1.934 -0.0437  0.9400 -1.3390
 3952TIP3   OH233346   3.439   0.273  11.142 -0.1239 -0.1442  0.4565
 3952TIP3    H133347   3.411   0.275  11.051  1.1841  0.0733  0.0380
 3952TIP3    H233348   3.473   0.360  11.159 -0.3429 -0.1871  1.1598
 3953TIP3   OH233349   5.096   5.804   2.442 -0.4384 -0.0597  0.2006
 3953TIP3    H133350   5.037   5.734   2.416 -0.6396 -0.9857  2.8176
 3953TIP3    H233351   5.145   5.768   2.516  1.5664  1.5840 -0.2165
 3954TIP3   OH233352   6.242   2.970   6.751  0.8167  0.1051 -0.3964
 3954TIP3    H133353   6.304   3.031   6.790  0.3932 -1.0223  2.2354
 3954TIP3    H233354   6.159   2.988   6.795 -0.2215  0.0997 -2.2655
 3955TIP3   OH233355   0.673   2.451   3.804 -0.0855  0.4884 -0.0619
 3955TIP3    H133356   0.753   2.402   3.824 -0.2452  0.3463  0.2360
 3955TIP3    H233357   0.677   2.466   3.709 -0.3340 -0.6339 -0.2632
 3956TIP3   OH233358   5.938   2.360   1.910  0.1529 -0.3112 -0.1861
 3956TIP3    H133359   5.877   2.373   1.983  1.6441 -3.0066  1.7643
 3956TIP3    H233360   5.909   2.278   1.870  0.9116 -0.2105 -0.9464
 3957TIP3   OH233361   1.507   1.605   2.162 -0.0515  0.5586 -0.4050
 3957TIP3    H133362   1.574   1.651   2.213  1.5448 -1.1961 -0.7965
 3957TIP3    H233363   1.549   1.523   2.136 -1.7446  0.2081 -2.2687
 3958TIP3   OH233364   3.807   1.651  15.366  0.3296 -0.2339 -0.0315
 3958TIP3    H133365   3.857   1.612  15.438 -2.1013 -2.5730  0.5387
 3958TIP3    H233366   3.803   1.582  15.300 -2.6095 -0.4258  0.2352
 3959TIP3   OH233367   4.507   3.690  11.447  0.7465 -0.0350  0.1918
 3959TIP3    H133368   4.524   3.767  11.394 -0.6956 -0.5301 -1.0807
 3959TIP3    H233369   4.447   3.637  11.394 -2.1997  0.2140  2.9473
 3960TIP3   OH233370   6.161   1.388  16.694 -0.1675 -0.2652  0.6078
 3960TIP3    H133371   6.136   1.478  16.714  0.5167  0.4023 -1.3120
 3960TIP3    H233372   6.245   1.396  16.649 -1.0962 -1.6625 -1.5116
 3961TIP3   OH233373   1.815   1.823   5.964  0.0915 -0.4933  0.6608
 3961TIP3    H133374   1.744   1.779   6.012 -0.1861  1.3048  1.9902
 3961TIP3    H233375   1.865   1.868   6.032  1.4235 -0.2192 -0.4714
 3962TIP3   OH233376   5.074   6.202  15.934  0.0122  0.4177  0.0338
 3962TIP3    H133377   4.984   6.170  15.943  0.0328  0.2785 -0.2602
 3962TIP3    H233378   5.095   6.188  15.842  1.0922 -1.5524  0.5245
 3963TIP3   OH233379   0.656   1.336   2.433  0.2220  0.3022  0.0023
 3963TIP3    H133380   0.752   1.339   2.422  0.0828  2.5954 -1.3449
 3963TIP3    H233381   0.631   1.428   2.438 -1.8524 -0.2876  1.3427
 3964TIP3   OH233382   4.724   0.732  13.567 -0.2823  0.7712 -0.4232
 3964TIP3    H133383   4.803   0.782  13.546  0.8291 -0.5752  0.3229
 3964TIP3    H233384   4.727   0.657  13.507  0.4417 -0.6520  1.2941
 3965TIP3   OH233385   3.053   5.172   0.632  0.3105  0.1777 -0.1405
 3965TIP3    H133386   3.045   5.234   0.705 -0.5785  1.1903 -1.0529
 3965TIP3    H233387   2.962   5.148   0.611  0.6342 -1.2709  0.0383
 3966TIP3   OH233388   0.680   1.331   3.386 -0.1209 -0.0499  0.4425
 3966TIP3    H133389   0.713   1.325   3.475 -1.0808 -2.7637  0.7103
 3966TIP3    H233390   0.711   1.251   3.343 -1.2255  0.2867 -1.0932
 3967TIP3   OH233391   0.745   1.826   0.144 -0.3666  0.0260  0.2618
 3967TIP3    H133392   0.839   1.810   0.152 -0.2995  1.2348  3.3261
 3967TIP3    H233393   0.736   1.921   0.154 -1.8547  0.1365 -1.6244
 3968TIP3   OH233394   0.066   4.711   2.684 -0.9560  0.0220 -0.1563
 3968TIP3    H133395   0.073   4.669   2.769 -0.5888  0.8464  0.2278
 3968TIP3    H233396   0.113   4.652   2.624  0.2693  0.2825  0.5202
 3969TIP3   OH233397   3.182   6.729   5.461 -0.0163  0.2682  0.0763
 3969TIP3    H133398   3.221   6.648   5.427 -0.7944 -0.8748  1.7421
 3969TIP3    H233399   3.229   6.744   5.543 -1.1570  0.4160  0.7222
 3970TIP3   OH233400   2.496   6.123   0.865 -0.5979  0.2828 -0.5224
 3970TIP3    H133401   2.484   6.065   0.790 -1.8858  2.3223 -1.9942
 3970TIP3    H233402   2.422   6.183   0.861  0.7846  2.1980  0.7469
 3971TIP3   OH233403   1.149   3.947  15.825 -0.5492 -0.2321  0.0851
 3971TIP3    H133404   1.218   4.013  15.817 -0.5051 -0.4331 -1.5013
 3971TIP3    H233405   1.124   3.928  15.735 -1.8561 -1.0393  0.5982
 3972TIP3   OH233406   5.468   0.295  12.001 -0.2154  0.4632 -0.6899
 3972TIP3    H133407   5.504   0.258  12.081 -1.8879 -2.5210 -1.1508
 3972TIP3    H233408   5.374   0.303  12.019 -1.2571 -3.3944 -3.1693
 3973TIP3   OH233409   2.450   1.303   1.028 -0.6242  0.4458  0.2691
 3973TIP3    H133410   2.438   1.290   1.122  0.4013 -0.5053  0.2858
 3973TIP3    H233411   2.543   1.289   1.013 -0.6762  1.0908 -0.8212
 3974TIP3   OH233412   4.189   5.295   6.163 -0.0496 -0.5042 -0.1921
 3974TIP3    H133413   4.183   5.215   6.216 -0.3201 -0.8282 -0.7072
 3974TIP3    H233414   4.277   5.329   6.181  0.1262 -1.0041 -0.0895
 3975TIP3   OH233415   4.947   1.778  16.554 -0.5069 -0.0313  0.1762
 3975TIP3    H133416   4.954   1.696  16.506 -0.6075 -0.6238  1.1410
 3975TIP3    H233417   4.854   1.786  16.575 -0.4158  0.0337  0.5727
 3976TIP3   OH233418   6.475   2.804   2.315  0.1752  0.2653  0.3557
 3976TIP3    H133419   6.456   2.777   2.225  0.4385 -1.1288  0.6934
 3976TIP3    H233420   6.568   2.826   2.315 -0.0835  1.4359  0.0338
 3977TIP3   OH233421   2.017   6.418  15.427  0.0383  0.4666  0.0961
 3977TIP3    H133422   2.047   6.412  15.518 -0.5891  2.2245  0.4529
 3977TIP3    H233423   1.927   6.385  15.429 -0.2159  1.1552  0.2612
 3978TIP3   OH233424   1.405   3.056  16.184  0.1058 -0.4905  0.1137
 3978TIP3    H133425   1.417   3.053  16.089 -0.4611  3.4522 -0.2592
 3978TIP3    H233426   1.438   2.972  16.215  1.0582 -1.6253 -3.4689
 3979TIP3   OH233427   2.821   4.103   4.233 -0.3919  0.4083 -0.3024
 3979TIP3    H133428   2.751   4.039   4.220 -0.4874  0.2995  0.7018
 3979TIP3    H233429   2.900   4.050   4.247 -0.5859  0.4804  1.1800
 3980TIP3   OH233430   2.161   3.553  14.563  0.6257  0.0625 -0.0687
 3980TIP3    H133431   2.104   3.630  14.567  0.2666 -0.2071 -0.0017
 3980TIP3    H233432   2.241   3.585  14.520  1.2508  0.9582  1.6822
 3981TIP3   OH233433   5.135   0.667   5.304 -0.1031 -0.9089 -0.6993
 3981TIP3    H133434   5.090   0.584   5.319  1.5555 -1.8625 -0.7617
 3981TIP3    H233435   5.186   0.652   5.225  1.2316 -0.2841  0.0157
 3982TIP3   OH233436   5.457   4.459  11.863  0.0252 -0.0333 -0.4436
 3982TIP3    H133437   5.489   4.409  11.938  0.9687  2.5164  0.9726
 3982TIP3    H233438   5.531   4.514  11.837 -1.1073  1.0594 -1.5215
 3983TIP3   OH233439   0.573   2.502  12.625 -0.1686  0.7097 -0.0481
 3983TIP3    H133440   0.604   2.592  12.615 -0.3955  0.8286  0.3257
 3983TIP3    H233441   0.586   2.481  12.717  0.7311  0.0421 -0.3063
 3984TIP3   OH233442   0.382   0.800  16.188 -0.1136  0.0059  0.5556
 3984TIP3    H133443   0.322   0.792  16.262 -0.1709 -0.6076  0.4503
 3984TIP3    H233444   0.327   0.833  16.117 -0.4591 -1.0207  0.3216
 3985TIP3   OH233445   3.258   6.021  13.019  0.1245  0.0631  0.7421
 3985TIP3    H133446   3.302   5.939  12.999 -0.3521  0.0807 -0.4131
 3985TIP3    H233447   3.324   6.073  13.066  0.8793 -0.4302  0.2404
 3986TIP3   OH233448   2.887   1.265  16.259 -0.3866 -0.2068  0.5840
 3986TIP3    H133449   2.929   1.211  16.191 -2.1670 -0.7951 -0.1012
 3986TIP3    H233450   2.958   1.318  16.295  0.5787  0.3006 -1.9040
 3987TIP3   OH233451   4.033   2.272  11.998  0.1767  0.5708  0.2209
 3987TIP3    H133452   4.052   2.364  12.014 -1.8652  1.3193 -1.3091
 3987TIP3    H233453   3.985   2.271  11.916  0.4772 -1.9254 -0.0082
 3988TIP3   OH233454   0.077   0.161   4.591  0.1181 -0.0196 -0.3210
 3988TIP3    H133455   0.052   0.103   4.663  0.7136 -0.9567 -0.8516
 3988TIP3    H233456   0.153   0.119   4.551  0.0973  0.7359 -1.2021
 3989TIP3   OH233457   0.528   2.431   1.878 -0.3412  0.1119  0.1607
 3989TIP3    H133458   0.602   2.468   1.927  2.4783 -2.2215 -1.9164
 3989TIP3    H233459   0.479   2.507   1.848  1.8064  1.8789  0.8232
 3990TIP3   OH233460   2.887   2.685  13.280  0.4038 -0.0441 -0.2457
 3990TIP3    H133461   2.810   2.650  13.235  1.0632 -2.8959  0.6468
 3990TIP3    H233462   2.851   2.730  13.357 -0.4374  0.1771 -0.7494
 3991TIP3   OH233463   6.389   4.798  15.163 -0.0136  0.7716  0.7838
 3991TIP3    H133464   6.398   4.704  15.177  0.8280  0.8069  0.5401
 3991TIP3    H233465   6.355   4.832  15.246 -0.1440  0.2779  0.9338
 3992TIP3   OH233466   0.353   0.978   3.426 -0.1176  0.2357  0.3882
 3992TIP3    H133467   0.366   1.028   3.345 -0.7393 -0.2882 -0.0452
 3992TIP3    H233468   0.422   1.009   3.484 -0.5784  1.7188  0.1968
 3993TIP3   OH233469   3.985   2.371  14.964  0.2969 -0.6365  0.0116
 3993TIP3    H133470   4.003   2.284  14.999  2.4429  0.0501  0.8038
 3993TIP3    H233471   4.043   2.379  14.888  0.7406  0.3826  0.4415
 3994TIP3   OH233472   4.730   2.907   2.084  0.4800 -0.5862 -0.7563
 3994TIP3    H133473   4.673   2.984   2.088 -0.3139 -1.1728 -0.6171
 3994TIP3    H233474   4.776   2.915   2.000  0.0081 -0.2394 -0.9850
 3995TIP3   OH233475   4.548   1.810   5.367 -0.1661  0.1052  0.6498
 3995TIP3    H133476   4.562   1.902   5.346 -0.3094 -0.2638 -1.2190
 3995TIP3    H233477   4.521   1.810   5.459 -0.3755  1.9355  0.6189
 3996TIP3   OH233478   5.217   6.179  13.773 -0.0455  0.1699 -0.2622
 3996TIP3    H133479   5.125   6.174  13.799 -0.0748  0.3912 -0.3231
 3996TIP3    H233480   5.245   6.087  13.768 -0.3229  0.0921 -0.4594
 3997TIP3   OH233481   5.742   3.328  14.239 -0.1043 -0.1617 -0.2214
 3997TIP3    H133482   5.690   3.283  14.305  0.6901  0.3370  0.7841
 3997TIP3    H233483   5.823   3.278  14.235  0.8920  1.2249  1.0865
 3998TIP3   OH233484   1.055   2.947  14.288  0.0306  0.2170  0.3680
 3998TIP3    H133485   1.102   2.878  14.334  0.5083  0.5477  0.3898
 3998TIP3    H233486   1.106   3.026  14.305  0.6096  0.2329 -1.2837
 3999TIP3   OH233487   6.099   0.816   1.682 -0.0816 -0.1105  0.4571
 3999TIP3    H133488   6.055   0.899   1.663  0.8052  0.5189  1.0886
 3999TIP3    H233489   6.038   0.768   1.738 -0.7510 -0.0504 -0.2049
 4000TIP3   OH233490   4.893   2.508   4.997 -0.3590  0.2551  0.2355
 4000TIP3    H133491   4.967   2.448   4.986 -1.3308 -0.6824 -1.5357
 4000TIP3    H233492   4.856   2.516   4.909 -3.9016 -1.3092  1.4243
 4001TIP3   OH233493   3.575   3.004  14.789 -0.6685  0.2820 -0.0493
 4001TIP3    H133494   3.519   3.072  14.825 -3.0445 -0.5638 -1.8754
 4001TIP3    H233495   3.542   2.923  14.827  1.2561 -0.0392  1.0692
 4002TIP3   OH233496   5.784   2.997  14.217 -0.2039 -0.1245 -0.4468
 4002TIP3    H133497   5.871   3.004  14.177  0.6523  0.0363  1.3283
 4002TIP3    H233498   5.800   3.007  14.311 -1.7325 -3.2707  0.2849
 4003TIP3   OH233499   6.041   2.757   2.743  0.1938  0.2424  0.0655
 4003TIP3    H133500   5.989   2.729   2.668  0.1769  1.1023 -0.2508
 4003TIP3    H233501   5.990   2.826   2.784  0.9894  0.9945 -0.1616
 4004TIP3   OH233502   1.970   5.015   5.167  0.0523 -0.0839 -0.1606
 4004TIP3    H133503   1.969   4.922   5.189  1.0931  0.1108  0.8562
 4004TIP3    H233504   1.912   5.055   5.232 -0.5675 -0.0415 -0.7343
 4005TIP3   OH233505   0.525   6.296   5.202 -0.0854  0.1453  0.1326
 4005TIP3    H133506   0.432   6.305   5.180  0.1021  2.5751  0.0871
 4005TIP3    H233507   0.555   6.222   5.149 -1.7400 -0.0153 -0.6446
 4006TIP3   OH233508   4.820   4.840  10.988  0.4492  0.6092 -0.1560
 4006TIP3    H133509   4.786   4.928  11.004 -0.5604  0.1569  0.2711
 4006TIP3    H233510   4.748   4.794  10.946  0.4929 -0.4010  0.8330
 4007TIP3   OH233511   1.791   1.704  16.943 -0.1986 -0.3212  0.4597
 4007TIP3    H133512   1.772   1.723  17.035 -0.6716  0.5727  0.1794
 4007TIP3    H233513   1.745   1.622  16.926 -1.0057  0.0702  0.7211
 4008TIP3   OH233514   3.045   3.178  17.132 -0.1937 -0.3917  0.2797
 4008TIP3    H133515   2.960   3.224  17.133  0.9589  1.9038  0.2457
 4008TIP3    H233516   3.080   3.194  17.045  1.2267  0.6590  0.9989
 4009TIP3   OH233517   3.552   0.112  11.338 -0.0378  0.3632  0.4367
 4009TIP3    H133518   3.541   0.018  11.331  3.8079 -0.1889 -0.4129
 4009TIP3    H233519   3.505   0.148  11.263 -2.9413 -0.5807  1.6526
 4010TIP3   OH233520   4.311   4.732  16.684  0.6510 -0.6446 -0.2582
 4010TIP3    H133521   4.279   4.813  16.725  0.8824  0.1476 -1.6077
 4010TIP3    H233522   4.274   4.662  16.739 -1.7641  0.2851 -0.5422
 4011TIP3   OH233523   1.770   3.394  14.096 -1.0486  0.5921  0.1058
 4011TIP3    H133524   1.707   3.321  14.099 -0.8525  0.4460  1.0739
 4011TIP3    H233525   1.785   3.409  14.002  0.8430 -2.3294 -0.2131
 4012TIP3   OH233526   3.815   5.807   3.598  0.8332  0.4989  0.5290
 4012TIP3    H133527   3.786   5.798   3.507  2.7843 -1.4668  0.0013
 4012TIP3    H233528   3.856   5.893   3.602  0.5267  0.7014 -0.4041
 4013TIP3   OH233529   3.183   2.770   0.360  0.2511  0.3138 -0.2706
 4013TIP3    H133530   3.128   2.816   0.297 -2.0550 -0.6404  0.9052
 4013TIP3    H233531   3.273   2.790   0.333 -0.6325  2.3573 -2.0077
 4014TIP3   OH233532   5.605   4.336   1.203 -0.6890 -0.4241 -0.3868
 4014TIP3    H133533   5.627   4.334   1.110  1.4882  1.1516  0.0132
 4014TIP3    H233534   5.684   4.306   1.247 -1.9170 -1.8529  0.9848
 4015TIP3   OH233535   3.734   0.010   3.217 -0.4594 -0.1277 -0.5945
 4015TIP3    H133536   3.704  -0.080   3.208  0.5758 -0.3925 -1.4353
 4015TIP3    H233537   3.819   0.013   3.173  0.3357  0.8411  0.9081
 4016TIP3   OH233538   0.450   0.729  11.788  0.4187  0.2054 -0.3991
 4016TIP3    H133539   0.541   0.710  11.766  0.5965  0.4064  0.1478
 4016TIP3    H233540   0.405   0.731  11.703  0.8295 -0.3528 -0.6381
 4017TIP3   OH233541   2.473   4.843  15.703  0.1521 -0.7577 -0.3570
 4017TIP3    H133542   2.473   4.748  15.694  1.3587 -0.7168 -1.0938
 4017TIP3    H233543   2.566   4.866  15.710  0.0140  0.5029 -1.9853
 4018TIP3   OH233544   5.610   3.926   0.759  0.3103  0.0595 -0.3567
 4018TIP3    H133545   5.699   3.916   0.791  0.4626 -3.2439 -1.4068
 4018TIP3    H233546   5.618   3.922   0.664 -0.8114  1.9590 -0.5817
 4019TIP3   OH233547   3.467   2.648   3.711  0.1541 -0.2690 -0.2158
 4019TIP3    H133548   3.403   2.649   3.782  0.8214 -1.9592  0.4657
 4019TIP3    H233549   3.430   2.706   3.644 -1.1762  0.2329  0.9021
 4020TIP3   OH233550   4.155   0.744  14.367 -0.3307  0.0816  0.2826
 4020TIP3    H133551   4.070   0.733  14.324 -0.6897 -0.4113  1.0933
 4020TIP3    H233552   4.144   0.821  14.423 -1.1149 -1.4685  2.3731
 4021TIP3   OH233553   4.677   3.086   4.424  0.1368 -0.5565  0.1667
 4021TIP3    H133554   4.596   3.123   4.390 -0.2880  0.0690  1.7980
 4021TIP3    H233555   4.734   3.161   4.439  0.4240 -0.8509  0.5677
 4022TIP3   OH233556   6.413   2.302  14.784  0.4061 -0.3782  0.0651
 4022TIP3    H133557   6.486   2.250  14.750 -0.5692 -1.6459 -0.1574
 4022TIP3    H233558   6.412   2.284  14.878  0.6609  0.0072  0.1438
 4023TIP3   OH233559   6.340   4.461   2.712 -0.7962  0.3340 -0.5154
 4023TIP3    H133560   6.429   4.485   2.740 -1.0542  0.7525 -0.0448
 4023TIP3    H233561   6.354   4.398   2.640 -0.0997 -1.6872  1.2865
 4024TIP3   OH233562   4.645   3.872  15.272  0.1012  0.3460 -0.0097
 4024TIP3    H133563   4.709   3.931  15.231  0.5531  0.1457  0.3991
 4024TIP3    H233564   4.688   3.841  15.351 -0.4215  0.0314  0.1570
 4025TIP3   OH233565   3.498   0.593   1.299 -0.0114 -0.8101  0.0267
 4025TIP3    H133566   3.414   0.549   1.305 -0.5288  0.3879  2.3679
 4025TIP3    H233567   3.546   0.565   1.376  1.6678 -1.2161 -1.1009
 4026TIP3   OH233568   1.533   5.014   6.987  0.3600 -0.3284  0.5001
 4026TIP3    H133569   1.568   4.961   6.916 -0.9657 -1.0562  0.3477
 4026TIP3    H233570   1.440   4.990   6.991  0.0695  0.8432  1.4576
 4027TIP3   OH233571   5.516   4.493   4.757  0.3667 -0.1042  0.9316
 4027TIP3    H133572   5.521   4.526   4.668  1.8604 -0.9922  0.6583
 4027TIP3    H233573   5.448   4.427   4.755  1.0101 -0.7592  0.2158
 4028TIP3   OH233574   3.964   1.835   2.391  1.0525  0.3507 -0.1745
 4028TIP3    H133575   3.942   1.746   2.364 -1.0540  0.0035  2.2438
 4028TIP3    H233576   3.881   1.883   2.385  1.7215  1.6285  0.3575
 4029TIP3   OH233577   2.295   3.463  16.756  0.0742  0.2927 -0.5767
 4029TIP3    H133578   2.326   3.552  16.775 -0.0689  0.2508 -0.1171
 4029TIP3    H233579   2.374   3.409  16.754  0.1873  0.4746 -1.1307
 4030TIP3   OH233580   1.032   2.945  16.700 -0.5748 -0.3237 -0.6201
 4030TIP3    H133581   0.968   3.011  16.676 -0.4400 -0.5274 -1.5868
 4030TIP3    H233582   1.096   2.946  16.629  1.0605  0.5703  0.7903
 4031TIP3   OH233583   0.373   1.015   4.316  0.3796  0.2105 -0.3383
 4031TIP3    H133584   0.421   0.941   4.279 -0.1150  0.5795 -1.7832
 4031TIP3    H233585   0.359   0.991   4.407  0.7792 -1.1912 -0.6222
 4032TIP3   OH233586   6.584   2.941  14.289  0.0651  0.3138 -0.1911
 4032TIP3    H133587   6.510   2.984  14.332  1.3726  1.5471  0.9206
 4032TIP3    H233588   6.582   2.973  14.199 -0.2942  0.9682  0.0425
 4033TIP3   OH233589   1.618   5.526  12.026  0.2623 -0.0038  0.1381
 4033TIP3    H133590   1.694   5.478  12.059 -0.9286 -1.2816  1.1482
 4033TIP3    H233591   1.585   5.574  12.102 -2.1121 -2.4333  0.7744
 4034TIP3   OH233592   6.164   5.996  14.313 -0.3023 -0.5947  0.8806
 4034TIP3    H133593   6.238   6.030  14.363  0.5100  0.0696 -0.7167
 4034TIP3    H233594   6.203   5.933  14.252 -0.7712  0.9010 -1.0597
 4035TIP3   OH233595   4.695   6.140   2.509  0.4662  0.1224 -0.5693
 4035TIP3    H133596   4.784   6.141   2.543  0.5980 -0.0511 -0.9018
 4035TIP3    H233597   4.685   6.053   2.470  0.1974  0.1886 -0.6500
 4036TIP3   OH233598   2.770   3.243   1.378 -0.0321  0.3483 -0.2193
 4036TIP3    H133599   2.861   3.273   1.382 -0.1522  0.6129  1.6328
 4036TIP3    H233600   2.722   3.316   1.341  0.3115  0.8015  0.2106
 4037TIP3   OH233601   1.280   6.554  11.684 -0.2229  0.3252  0.1223
 4037TIP3    H133602   1.306   6.608  11.608 -1.0630  0.7086  0.0991
 4037TIP3    H233603   1.207   6.502  11.652  0.9823 -1.3378 -0.0428
 4038TIP3   OH233604   2.806   3.684  11.100 -0.3159  0.1182 -0.0510
 4038TIP3    H133605   2.889   3.732  11.095 -0.5453  0.5011 -0.2540
 4038TIP3    H233606   2.759   3.725  11.173 -0.0947 -0.4718  0.4257
 4039TIP3   OH233607   4.549   0.252  10.338 -0.2404  0.7480  0.1272
 4039TIP3    H133608   4.513   0.180  10.390  0.7522  0.3567  0.2822
 4039TIP3    H233609   4.472   0.302  10.310 -1.0424 -1.0443 -1.0074
 4040TIP3   OH233610   1.842   0.959  13.431  0.1452  0.4130  0.2688
 4040TIP3    H133611   1.932   0.987  13.412 -0.1174  1.2900  0.2974
 4040TIP3    H233612   1.820   0.900  13.359  0.8903 -0.1523  0.4873
 4041TIP3   OH233613   4.876   4.778  13.318  0.1526  0.0459 -0.0845
 4041TIP3    H133614   4.956   4.778  13.371 -0.1262 -0.2800  0.3517
 4041TIP3    H233615   4.808   4.747  13.379 -0.4957  1.2572 -0.1646
 4042TIP3   OH233616   0.332   1.270  13.788 -0.6550  0.0270  0.1396
 4042TIP3    H133617   0.398   1.226  13.841  2.0390  1.8414 -1.4674
 4042TIP3    H233618   0.338   1.229  13.702  1.1451  2.5761 -1.0746
 4043TIP3   OH233619   0.932   1.776   4.202  0.2543 -0.0717  0.6663
 4043TIP3    H133620   0.959   1.791   4.111  1.0233 -0.3781  0.8374
 4043TIP3    H233621   0.997   1.821   4.254 -0.4828  0.5558  1.0708
 4044TIP3   OH233622   2.141   1.512  16.380 -0.1487  0.3965  0.1635
 4044TIP3    H133623   2.089   1.560  16.444  0.8502 -0.7640  1.9382
 4044TIP3    H233624   2.204   1.463  16.433  0.2737 -1.1670 -1.6879
 4045TIP3   OH233625   1.833   4.096  17.158  0.6424  0.1755  0.1707
 4045TIP3    H133626   1.831   4.124  17.066 -1.5006  0.8748  0.3675
 4045TIP3    H233627   1.879   4.166  17.203  0.0635  0.7650 -0.1295
 4046TIP3   OH233628   5.275   3.676  15.640 -0.1511 -0.2658  0.8648
 4046TIP3    H133629   5.283   3.737  15.713  0.6834 -0.8642  1.2866
 4046TIP3    H233630   5.364   3.665  15.608 -0.5357  0.1270 -0.3708
 4047TIP3   OH233631   3.728   6.737   0.647  0.3129 -0.4466 -0.6409
 4047TIP3    H133632   3.672   6.722   0.571  2.2970 -0.7242 -2.1562
 4047TIP3    H233633   3.787   6.662   0.648  1.0456  0.1183  0.5031
 4048TIP3   OH233634   6.256   3.033  16.202 -0.2628  0.2823  0.0862
 4048TIP3    H133635   6.279   2.990  16.120  0.2759  1.4086 -0.3791
 4048TIP3    H233636   6.340   3.052  16.244 -0.4564  1.4467 -0.0332
 4049TIP3   OH233637   3.488   6.099  16.015  0.3983  0.4141 -0.0786
 4049TIP3    H133638   3.434   6.028  16.049 -0.7641  0.0790 -2.3695
 4049TIP3    H233639   3.498   6.159  16.088 -0.1307 -1.2225  1.4016
 4050TIP3   OH233640   1.413   3.641  11.692  0.1708  0.0010  0.2001
 4050TIP3    H133641   1.397   3.660  11.599  1.3046  3.0964  0.5045
 4050TIP3    H233642   1.341   3.685  11.737  0.5748 -0.0227  0.8676
 4051TIP3   OH233643   4.928   6.611   3.228  0.0589  0.1502 -0.3869
 4051TIP3    H133644   5.009   6.594   3.181  0.4757 -1.0777  0.6949
 4051TIP3    H233645   4.869   6.541   3.200  0.5669 -1.0751  1.3996
 4052TIP3   OH233646   0.352   1.428  11.877 -0.2721  0.1364 -0.3131
 4052TIP3    H133647   0.263   1.460  11.863  0.0206 -0.0826 -3.2679
 4052TIP3    H233648   0.408   1.492  11.833  1.1676  0.6343  2.0557
 4053TIP3   OH233649   0.250   1.237  10.660 -0.1063 -0.4752  0.0812
 4053TIP3    H133650   0.265   1.232  10.566 -1.0538  0.0078 -0.1113
 4053TIP3    H233651   0.175   1.179  10.675 -1.1492  0.8557  0.2321
 4054TIP3   OH233652   3.444   0.581   5.731 -0.2256 -0.1140 -0.1678
 4054TIP3    H133653   3.464   0.580   5.825 -1.3676  1.4776  0.1267
 4054TIP3    H233654   3.487   0.502   5.697  0.7620 -0.3802  1.5645
 4055TIP3   OH233655   4.371   0.252   5.846  0.2992 -0.7080 -0.3798
 4055TIP3    H133656   4.302   0.198   5.808  0.4950 -0.6519 -0.8246
 4055TIP3    H233657   4.418   0.287   5.770  1.0218 -1.0125 -0.0796
 4056TIP3   OH233658   4.449   5.036  10.403 -0.0583  0.7574  0.1996
 4056TIP3    H133659   4.357   5.015  10.390  0.4325 -0.4425 -1.6234
 4056TIP3    H233660   4.462   5.119  10.358 -0.2134  0.8318  0.2941
 4057TIP3   OH233661   2.007   5.857   4.523 -0.0334 -0.8530 -0.0266
 4057TIP3    H133662   2.066   5.911   4.576  1.3557 -1.8821 -0.4830
 4057TIP3    H233663   1.983   5.785   4.581  2.6358 -2.7767 -1.1276
 4058TIP3   OH233664   1.412   6.479   4.317 -0.4658 -0.6928 -0.0230
 4058TIP3    H133665   1.412   6.571   4.344 -1.5756 -0.6566 -0.1130
 4058TIP3    H233666   1.495   6.468   4.270 -0.1641  0.1681  0.2860
 4059TIP3   OH233667   0.742   1.459  16.117 -0.6109  0.0834 -0.0751
 4059TIP3    H133668   0.753   1.546  16.077 -0.9057 -0.1976 -0.7879
 4059TIP3    H233669   0.827   1.417  16.107  0.2056  1.0370  2.1860
 4060TIP3   OH233670   4.668   0.460  13.461 -0.1036 -0.4488 -0.4569
 4060TIP3    H133671   4.688   0.417  13.545  0.4259  0.7596  0.0463
 4060TIP3    H233672   4.684   0.392  13.396  1.0913 -0.9195  0.2909
 4061TIP3   OH233673   3.160   0.900   4.200 -0.1015  0.5227 -0.0531
 4061TIP3    H133674   3.129   0.961   4.134  0.6519  0.6302 -0.3221
 4061TIP3    H233675   3.082   0.852   4.227 -0.1190 -1.2074 -2.7394
 4062TIP3   OH233676   4.719   0.781  13.048  0.3507  0.0605  0.4655
 4062TIP3    H133677   4.659   0.735  13.107  0.8571  0.6800  1.4969
 4062TIP3    H233678   4.740   0.717  12.980 -0.8825 -0.4052  0.5056
 4063TIP3   OH233679   5.422   3.322  16.707  0.2529 -0.0901  0.1585
 4063TIP3    H133680   5.516   3.308  16.693 -0.0201 -1.4318 -0.5638
 4063TIP3    H233681   5.412   3.328  16.802  1.2400  1.5728  0.1855
 4064TIP3   OH233682   2.140   4.136   4.434  0.2352  0.3840 -0.5967
 4064TIP3    H133683   2.195   4.066   4.468 -0.2026  1.0240  1.5412
 4064TIP3    H233684   2.053   4.098   4.429 -0.3153  1.1511  2.0521
 4065TIP3   OH233685   2.659   4.963   2.292 -0.2069  0.1107 -0.4508
 4065TIP3    H133686   2.733   5.021   2.271  0.1040  0.4921  1.5467
 4065TIP3    H233687   2.582   5.019   2.284 -0.1664  0.0765 -1.1625
 4066TIP3   OH233688   3.376   3.033  14.083 -0.4675  0.0928 -0.3159
 4066TIP3    H133689   3.399   3.116  14.041 -0.6601 -0.2565 -1.1278
 4066TIP3    H233690   3.434   3.029  14.160 -0.0142  0.6836 -0.6133
 4067TIP3   OH233691   1.521   1.177  17.164 -0.1028  0.2266  0.0719
 4067TIP3    H133692   1.487   1.194  17.076 -1.6613  0.2588  0.6369
 4067TIP3    H233693   1.443   1.174  17.219  0.6613 -1.8412  1.1468
 4068TIP3   OH233694   6.704   2.806   1.364 -0.3731  0.3166 -0.0021
 4068TIP3    H133695   6.613   2.789   1.339 -0.4308 -1.0411  0.9925
 4068TIP3    H233696   6.756   2.759   1.299 -0.4866 -1.5511  1.1680
 4069TIP3   OH233697   4.038   1.091  11.016  0.0664  0.2511 -0.3153
 4069TIP3    H133698   4.117   1.138  10.988 -0.3427  0.6965 -0.7370
 4069TIP3    H233699   4.035   1.104  11.110  1.4169 -1.1903 -0.0286
 4070TIP3   OH233700   6.727   1.939   1.905  0.2161 -0.8093  0.1156
 4070TIP3    H133701   6.724   1.969   1.996  1.1808 -0.5535  0.0743
 4070TIP3    H233702   6.799   1.989   1.866 -0.7006 -0.3318 -1.0052
 4071TIP3   OH233703   0.677   6.477  13.385 -0.2418 -0.7486 -0.1355
 4071TIP3    H133704   0.733   6.465  13.462 -0.3780 -0.7940 -0.0437
 4071TIP3    H233705   0.730   6.443  13.312 -0.5593 -1.7761  0.0947
 4072TIP3   OH233706   1.320   0.376  11.473  0.5756 -0.0776 -0.0552
 4072TIP3    H133707   1.358   0.378  11.561  1.3410 -1.2789 -0.3341
 4072TIP3    H233708   1.304   0.283  11.456 -2.1027  0.3168 -0.1497
 4073TIP3   OH233709   0.135   5.021  11.929 -0.0693 -0.1386 -0.4525
 4073TIP3    H133710   0.089   5.076  11.866 -1.5525 -1.7901 -0.9259
 4073TIP3    H233711   0.097   4.934  11.916  1.5691 -1.1060  0.8193
 4074TIP3   OH233712   1.198   3.484   3.316 -0.0511 -0.1319  0.4152
 4074TIP3    H133713   1.123   3.442   3.274  1.5807 -1.6759 -1.1549
 4074TIP3    H233714   1.231   3.418   3.378 -0.1071  0.6199  1.2603
 4075TIP3   OH233715   2.580   3.825   0.789  0.5426  0.0354  0.5077
 4075TIP3    H133716   2.616   3.824   0.700  0.3658  0.7926  0.4155
 4075TIP3    H233717   2.535   3.910   0.795 -2.7770 -1.5464  0.0048
 4076TIP3   OH233718   0.515   5.509  16.474  0.6337  0.7293 -0.2049
 4076TIP3    H133719   0.607   5.485  16.474  0.4157 -0.1391 -1.1451
 4076TIP3    H233720   0.479   5.468  16.553  1.3246  2.2981  0.9945
 4077TIP3   OH233721   4.124   2.444   4.159 -0.5598 -0.1836  0.4146
 4077TIP3    H133722   4.037   2.466   4.126 -0.3621 -0.2564 -0.1607
 4077TIP3    H233723   4.151   2.369   4.106  0.1243  0.2412  0.1631
 4078TIP3   OH233724   3.869   0.507  15.797 -0.5489  0.1666  0.5376
 4078TIP3    H133725   3.849   0.434  15.740  1.5721  1.5516 -2.2534
 4078TIP3    H233726   3.946   0.478  15.847  0.4403  0.4821 -0.7393
 4079TIP3   OH233727   0.292   1.161   2.061 -0.1099  0.0008  0.2481
 4079TIP3    H133728   0.356   1.144   2.130 -0.1068 -0.2227  0.1938
 4079TIP3    H233729   0.234   1.085   2.063 -0.1054 -0.0119  0.0025
 4080TIP3   OH233730   3.268   6.585   1.411  0.3636 -0.2330 -0.5094
 4080TIP3    H133731   3.295   6.626   1.494  2.9090  0.3180 -1.4974
 4080TIP3    H233732   3.248   6.494   1.435  1.6695 -0.2564  0.6473
 4081TIP3   OH233733   1.851   0.294   5.755  0.3529 -0.0780  0.4597
 4081TIP3    H133734   1.803   0.215   5.730 -0.6585 -0.6380  3.6969
 4081TIP3    H233735   1.938   0.263   5.780 -0.1588 -0.2910  2.0821
 4082TIP3   OH233736   3.837   5.264   4.265 -0.4436  0.5549 -0.6822
 4082TIP3    H133737   3.844   5.174   4.232  1.4609  0.8883 -1.3172
 4082TIP3    H233738   3.811   5.315   4.188  0.9893  0.8927 -0.9621
 4083TIP3   OH233739   0.434   3.108   3.750 -0.3060 -0.0089 -0.3033
 4083TIP3    H133740   0.369   3.164   3.793 -1.0603 -1.1021  0.0216
 4083TIP3    H233741   0.392   3.022   3.744  0.4419 -0.3070 -1.6959
 4084TIP3   OH233742   1.926   2.540  14.673  0.6047  0.4388 -0.2754
 4084TIP3    H133743   1.838   2.531  14.635  1.0212 -0.7287 -1.0186
 4084TIP3    H233744   1.978   2.578  14.603  0.7561  0.8981  0.0832
 4085TIP3   OH233745   1.456   0.421  16.846 -0.1025 -0.3021 -0.1459
 4085TIP3    H133746   1.471   0.459  16.932  2.1042 -0.6498 -0.3193
 4085TIP3    H233747   1.457   0.495  16.786 -2.4050  0.0366  0.1259
 4086TIP3   OH233748   6.163   3.980  15.443 -0.4999 -0.1036 -0.3368
 4086TIP3    H133749   6.133   3.953  15.530  2.0478  0.0797  0.6888
 4086TIP3    H233750   6.172   4.075  15.449  1.0565 -0.2258 -0.2815
 4087TIP3   OH233751   0.207   1.265   1.818 -0.5602  0.2775 -0.8354
 4087TIP3    H133752   0.185   1.186   1.768  1.1286  0.9096 -2.6964
 4087TIP3    H233753   0.247   1.233   1.899 -0.5264 -0.7697 -1.2612
 4088TIP3   OH233754   5.166   2.432   1.958  0.0031 -0.1762  0.1044
 4088TIP3    H133755   5.105   2.370   1.998 -1.9610  2.2497  1.1265
 4088TIP3    H233756   5.115   2.513   1.949  2.3053  1.2014 -1.5453
 4089TIP3   OH233757   4.068   0.230  15.533  0.5702 -0.0540  0.5190
 4089TIP3    H133758   4.133   0.159  15.538 -0.7568 -1.3227  0.3009
 4089TIP3    H233759   4.004   0.209  15.601 -1.9848 -1.3388 -2.0623
 4090TIP3   OH233760   5.181   4.328  11.472 -0.3154  0.0621 -0.3813
 4090TIP3    H133761   5.245   4.379  11.423  0.1344 -1.3458 -1.3147
 4090TIP3    H233762   5.226   4.245  11.491 -1.0120 -0.0006  1.1100
 4091TIP3   OH233763   1.186   2.937   1.521 -0.5839 -0.1774  0.1255
 4091TIP3    H133764   1.180   3.030   1.502 -0.4925 -0.7274 -3.2366
 4091TIP3    H233765   1.279   2.917   1.516 -0.5530 -0.4012  1.3286
 4092TIP3   OH233766   3.849   0.633  14.456 -0.1545  0.1919 -0.6130
 4092TIP3    H133767   3.817   0.616  14.545  0.8195  0.3376 -0.2188
 4092TIP3    H233768   3.913   0.565  14.440  0.7065  0.9911 -0.6524
 4093TIP3   OH233769   2.903   2.986   2.191 -0.1309  0.1708 -0.0558
 4093TIP3    H133770   2.897   2.908   2.136  0.0800  0.4923 -0.5338
 4093TIP3    H233771   2.918   2.952   2.279  0.5972 -0.3009 -0.3608
 4094TIP3   OH233772   3.269   5.680  10.684  0.3755  0.6751  0.2060
 4094TIP3    H133773   3.179   5.690  10.714 -0.3809 -1.5605 -1.0484
 4094TIP3    H233774   3.280   5.747  10.617 -1.2840 -0.5697 -1.4192
 4095TIP3   OH233775   0.619   2.499  16.952 -0.4006 -0.3110  0.5065
 4095TIP3    H133776   0.536   2.546  16.958 -0.6201 -0.3815 -1.4385
 4095TIP3    H233777   0.631   2.481  16.858  1.3591 -1.1155  0.8284
 4096TIP3   OH233778   0.675   2.248   1.255  0.0813  0.0999  0.1927
 4096TIP3    H133779   0.672   2.344   1.264  0.3961 -0.0050  1.8898
 4096TIP3    H233780   0.697   2.217   1.343  0.9755 -1.4964 -0.5456
 4097TIP3   OH233781   1.749   0.498  13.417  0.0285  0.2767 -0.2139
 4097TIP3    H133782   1.772   0.547  13.338 -1.2843  0.5292 -0.4598
 4097TIP3    H233783   1.733   0.565  13.483  1.3294  0.0599  0.3566
 4098TIP3   OH233784   1.791   5.521   6.530  0.1020 -0.4181 -0.1357
 4098TIP3    H133785   1.747   5.604   6.514  0.2236  0.1592  2.1301
 4098TIP3    H233786   1.873   5.545   6.574  0.4635 -1.6921 -0.0661
 4099TIP3   OH233787   3.503   4.070   4.149  0.6837 -0.4546 -0.4824
 4099TIP3    H133788   3.572   4.111   4.097  1.5759 -0.6501  0.4964
 4099TIP3    H233789   3.537   3.982   4.167  0.0426 -0.6542 -0.2301
 4100TIP3   OH233790   1.547   2.223   4.092 -0.5357 -0.5490  1.1751
 4100TIP3    H133791   1.476   2.255   4.036 -0.9667  0.0658  2.0503
 4100TIP3    H233792   1.528   2.260   4.178  0.2186 -1.3230  1.6901
 4101TIP3   OH233793   6.514   3.936  13.380 -0.0271 -0.5925  0.0161
 4101TIP3    H133794   6.495   4.022  13.343 -1.1793 -0.5844  0.5658
 4101TIP3    H233795   6.584   3.901  13.325 -0.9702 -0.1633 -1.5423
 4102TIP3   OH233796   3.256   4.794  11.663 -0.1150 -0.3160 -0.3053
 4102TIP3    H133797   3.230   4.841  11.741  2.5896  0.1158  0.4329
 4102TIP3    H233798   3.334   4.745  11.689  0.6763 -0.4261 -2.6380
 4103TIP3   OH233799   0.623   1.292  14.037 -0.3005 -0.2973  0.1070
 4103TIP3    H133800   0.594   1.201  14.026  1.8015 -1.0653  0.6168
 4103TIP3    H233801   0.679   1.290  14.114 -2.3744  2.0157  1.8422
 4104TIP3   OH233802   4.810   1.167  14.984  0.2848 -0.0825  0.0162
 4104TIP3    H133803   4.900   1.195  14.999  1.0325 -1.6267 -1.2672
 4104TIP3    H233804   4.788   1.203  14.898  0.5335 -1.5812 -0.7116
 4105TIP3   OH233805   4.000   1.521   2.827  0.3083 -0.2635  0.7106
 4105TIP3    H133806   3.958   1.444   2.791 -0.5002 -0.1470  1.3623
 4105TIP3    H233807   3.942   1.594   2.804  1.7096  0.3827 -1.0364
 4106TIP3   OH233808   3.686   5.399  12.984  0.1703 -0.0679  0.1130
 4106TIP3    H133809   3.646   5.408  12.897 -0.2332 -2.0684  0.0611
 4106TIP3    H233810   3.762   5.456  12.981  0.4486 -0.4881 -1.7398
 4107TIP3   OH233811   3.444   2.856  11.156 -0.3050 -0.3788 -0.1909
 4107TIP3    H133812   3.430   2.762  11.143 -0.8521 -0.2614 -0.4954
 4107TIP3    H233813   3.409   2.896  11.076 -1.3525  0.1865  0.5355
 4108TIP3   OH233814   0.048   5.646   0.630  0.0352  0.1280 -0.7112
 4108TIP3    H133815   0.095   5.705   0.572  0.6002  1.7191  1.2630
 4108TIP3    H233816   0.100   5.566   0.630  1.5445  1.0686 -0.3126
 4109TIP3   OH233817   6.574   3.518   3.742 -0.0798  0.2056  0.0955
 4109TIP3    H133818   6.662   3.522   3.703  0.2497  0.1138  0.8183
 4109TIP3    H233819   6.535   3.439   3.704  1.2232 -1.4300  1.9181
 4110TIP3   OH233820   1.822   2.851  14.882 -0.3062  0.3587 -0.0760
 4110TIP3    H133821   1.847   2.911  14.812 -1.4878 -0.0943 -0.9262
 4110TIP3    H233822   1.789   2.907  14.951  1.8908  0.8977  0.6377
 4111TIP3   OH233823   4.296   4.421   5.655  0.4698  0.4901  0.1170
 4111TIP3    H133824   4.342   4.505   5.657 -0.7212  1.1449  0.9210
 4111TIP3    H233825   4.341   4.371   5.587  3.5055  0.4317  1.9481
 4112TIP3   OH233826   5.111   2.577   0.823 -0.0934  0.0807  0.5132
 4112TIP3    H133827   5.175   2.599   0.755 -1.3013  1.2028 -0.3177
 4112TIP3    H233828   5.164   2.554   0.900  1.2958  0.3377 -0.3356
 4113TIP3   OH233829   5.334   2.139  11.795 -0.1651 -0.2627  0.2925
 4113TIP3    H133830   5.409   2.166  11.742  0.4023 -1.6216  0.3447
 4113TIP3    H233831   5.337   2.194  11.873  1.8531 -1.4592  1.1244
 4114TIP3   OH233832   0.461   5.723   0.656 -0.5579  0.0774  0.1744
 4114TIP3    H133833   0.392   5.656   0.653 -0.0815 -0.4118 -3.0796
 4114TIP3    H233834   0.450   5.772   0.575  2.0378  0.9174  0.2571
 4115TIP3   OH233835   0.068   4.280  11.251  0.3225 -0.3467 -0.3075
 4115TIP3    H133836  -0.014   4.235  11.268 -0.4216  1.1666  0.3025
 4115TIP3    H233837   0.116   4.222  11.192  0.7996 -3.4499  2.7813
 4116TIP3   OH233838   0.211   5.085  14.223  0.6429  0.0706 -0.2699
 4116TIP3    H133839   0.186   5.070  14.132  1.0957  0.6009 -0.4919
 4116TIP3    H233840   0.128   5.098  14.269  0.3260 -1.5490 -0.3319
 4117TIP3   OH233841   0.261   4.457   6.456 -0.0803  0.2384  0.2842
 4117TIP3    H133842   0.250   4.363   6.466  3.2524 -0.7411 -2.9646
 4117TIP3    H233843   0.297   4.485   6.540  1.6798 -2.0367  0.3945
 4118TIP3   OH233844   1.593   1.021  16.877 -0.2936  0.1297  0.4183
 4118TIP3    H133845   1.640   1.081  16.934 -1.5308  0.7282  0.8370
 4118TIP3    H233846   1.647   0.942  16.875  1.0089  1.0012  0.4064
 4119TIP3   OH233847   4.041   2.219   1.986 -0.0819 -0.2140 -0.1966
 4119TIP3    H133848   3.953   2.188   1.962  0.2730 -0.4523 -1.2642
 4119TIP3    H233849   4.050   2.195   2.078 -1.5640  0.8451  0.2590
 4120TIP3   OH233850   2.189   4.578   5.014 -0.3944  0.0900  0.0000
 4120TIP3    H133851   2.259   4.584   4.949 -0.5298 -2.2816 -0.4342
 4120TIP3    H233852   2.202   4.494   5.057 -1.1236  0.9948  2.1412
 4121TIP3   OH233853   6.451   4.894   4.984  0.0210  0.2793 -0.0450
 4121TIP3    H133854   6.462   4.872   4.891 -1.5985 -3.0832  0.3999
 4121TIP3    H233855   6.364   4.860   5.006 -1.1256  3.9275  2.0286
 4122TIP3   OH233856   4.551   0.397  14.944  0.2470 -0.4513  0.1356
 4122TIP3    H133857   4.557   0.438  15.030  0.0631  1.3108 -0.6587
 4122TIP3    H233858   4.513   0.310  14.961 -2.0742  0.7485  1.6006
 4123TIP3   OH233859   5.470   0.656   1.077  0.0578  0.2731  0.2423
 4123TIP3    H133860   5.409   0.728   1.062  1.5592  1.6627  0.5485
 4123TIP3    H233861   5.463   0.638   1.171 -1.8218 -1.4593 -0.1484
 4124TIP3   OH233862   6.470   3.976   3.657  0.1841 -0.1078 -0.4129
 4124TIP3    H133863   6.556   3.935   3.668 -0.1981 -1.3978 -1.9403
 4124TIP3    H233864   6.457   3.980   3.563 -1.6416 -0.3948 -0.2114
 4125TIP3   OH233865   1.463   4.948   3.750 -0.0124 -0.3423 -0.1916
 4125TIP3    H133866   1.385   4.922   3.799  0.1835  0.8801  0.8379
 4125TIP3    H233867   1.438   5.032   3.709  1.1306  0.7059  1.1777
 4126TIP3   OH233868   1.248   3.099   0.338  0.5813  0.4453  0.0852
 4126TIP3    H133869   1.323   3.041   0.328 -1.2386 -2.0640  0.0773
 4126TIP3    H233870   1.177   3.043   0.368 -1.5085  2.5558 -0.5337
 4127TIP3   OH233871   5.382   2.494   6.048 -0.3030  0.1073 -0.1524
 4127TIP3    H133872   5.425   2.528   6.126 -0.2899  0.4011 -0.2867
 4127TIP3    H233873   5.290   2.486   6.072 -0.0510 -1.3768  0.4333
 4128TIP3   OH233874   6.561   6.489   3.195  0.0812 -0.3943  0.2391
 4128TIP3    H133875   6.607   6.505   3.277  0.9719  0.0650 -0.3398
 4128TIP3    H233876   6.624   6.512   3.126  0.5431 -3.7834 -0.6720
 4129TIP3   OH233877   3.185   0.493   3.730 -0.0740  0.0831 -0.5277
 4129TIP3    H133878   3.223   0.406   3.743  2.3073  1.3763  2.5721
 4129TIP3    H233879   3.096   0.486   3.765  0.5398 -0.8434  0.9264
 4130TIP3   OH233880   1.264   4.835  13.015  0.6671 -0.1589 -0.1758
 4130TIP3    H133881   1.202   4.807  13.083  0.3535 -1.7172 -1.0492
 4130TIP3    H233882   1.223   4.911  12.975 -0.0091 -0.3179  0.1900
 4131TIP3   OH233883   2.793   3.860   3.415 -0.0473  0.4052  0.4273
 4131TIP3    H133884   2.869   3.802   3.406 -0.4896 -0.2229  0.7095
 4131TIP3    H233885   2.771   3.856   3.508 -0.1379  0.9589  0.4314
 4132TIP3   OH233886   3.173   2.381   4.379 -0.3824  0.1924 -0.4727
 4132TIP3    H133887   3.206   2.382   4.289  2.3486  0.2647  0.4442
 4132TIP3    H233888   3.212   2.302   4.418 -2.4990 -0.5147  0.3544
 4133TIP3   OH233889   6.053   3.199  13.593  0.1982  0.3596  0.3886
 4133TIP3    H133890   6.120   3.244  13.542 -0.4808  0.5016 -0.3918
 4133TIP3    H233891   6.059   3.238  13.681  0.1752  1.3824 -0.0548
 4134TIP3   OH233892   3.826   2.409   1.265 -0.3720  0.4541  0.6312
 4134TIP3    H133893   3.917   2.384   1.250 -1.2758 -2.6046 -0.4238
 4134TIP3    H233894   3.810   2.387   1.357 -0.3828 -0.1847  0.4764
 4135TIP3   OH233895   4.650   3.843   5.342 -0.1296 -0.6196 -0.2692
 4135TIP3    H133896   4.648   3.819   5.435  0.6703 -1.0535 -0.3582
 4135TIP3    H233897   4.687   3.767   5.298  0.6987  0.0504 -0.7783
 4136TIP3   OH233898   1.545   5.131  13.925  0.0462  0.1626  0.4977
 4136TIP3    H133899   1.620   5.149  13.869  1.2055 -1.9813  1.2541
 4136TIP3    H233900   1.496   5.062  13.878 -1.3033  1.2911  0.1778
 4137TIP3   OH233901   5.832   5.299  14.394  0.2538 -0.2761 -0.0312
 4137TIP3    H133902   5.759   5.356  14.372  1.2728  0.8592 -0.5622
 4137TIP3    H233903   5.905   5.358  14.410  1.6098 -1.4226 -1.5620
 4138TIP3   OH233904   5.178   6.539   3.048 -0.0100 -0.4715 -0.6818
 4138TIP3    H133905   5.156   6.513   2.958 -1.2707 -1.2372 -0.1823
 4138TIP3    H233906   5.259   6.491   3.067 -0.2134 -1.0015 -1.1096
 4139TIP3   OH233907   5.128   2.250   0.980 -0.1145  0.6374  0.0042
 4139TIP3    H133908   5.061   2.214   1.038 -0.3080  1.4272  0.2732
 4139TIP3    H233909   5.084   2.258   0.895  0.3327 -1.0614 -0.4326
 4140TIP3   OH233910   0.627   4.846   2.931  0.0263 -0.0629 -0.2627
 4140TIP3    H133911   0.534   4.825   2.944  0.2070 -0.5127  0.4086
 4140TIP3    H233912   0.634   4.868   2.839 -0.5804 -0.9487 -0.5391
 4141TIP3   OH233913   0.334   0.286   3.597 -0.0650  0.3293  0.5684
 4141TIP3    H133914   0.322   0.197   3.566  1.2936 -0.0747  1.1150
 4141TIP3    H233915   0.400   0.279   3.666  0.5731  1.8368  0.1629
 4142TIP3   OH233916   0.957   6.289   4.751  0.0683  0.5211 -0.0164
 4142TIP3    H133917   0.981   6.302   4.659 -1.0966 -2.6124 -0.8835
 4142TIP3    H233918   0.870   6.328   4.759 -0.1328  0.1831 -0.4737
 4143TIP3   OH233919   5.917   0.053  12.407  0.2909  0.1569 -0.2088
 4143TIP3    H133920   5.840   0.106  12.388  0.0015 -0.4019 -0.6249
 4143TIP3    H233921   5.989   0.116  12.412 -0.0895  0.6129 -0.4268
 4144TIP3   OH233922   2.316   1.500  15.005  0.1519  0.0869 -0.2851
 4144TIP3    H133923   2.335   1.407  14.993 -1.4915 -0.1712 -1.0733
 4144TIP3    H233924   2.398   1.536  15.039  0.5317 -1.8070  0.9607
 4145TIP3   OH233925   4.252   5.047  14.161  0.3495 -0.4486 -0.2868
 4145TIP3    H133926   4.292   5.056  14.248  0.0619  0.9239 -0.2725
 4145TIP3    H233927   4.289   5.120  14.110  0.0755 -0.9011 -1.1398
 4146TIP3   OH233928   6.481   3.835  13.856  0.0669 -0.2638  0.8794
 4146TIP3    H133929   6.540   3.775  13.810 -1.1215 -0.3078 -0.6419
 4146TIP3    H233930   6.428   3.779  13.913  1.4349 -0.2222  2.2798
 4147TIP3   OH233931   2.195   2.855  12.003 -0.1645  0.3736 -0.0993
 4147TIP3    H133932   2.119   2.825  12.052 -0.3320  1.2950  0.2207
 4147TIP3    H233933   2.169   2.848  11.911  0.0257 -1.0170 -0.0684
 4148TIP3   OH233934   0.504   5.582  11.312  0.3931 -0.1782 -0.1771
 4148TIP3    H133935   0.574   5.535  11.359  0.9648  1.0400  0.2355
 4148TIP3    H233936   0.435   5.516  11.300  0.4486 -0.6947  1.8956
 4149TIP3   OH233937   0.610   4.796   0.672  0.1900  0.1803 -0.5821
 4149TIP3    H133938   0.625   4.711   0.714  1.4078  0.6058 -0.0940
 4149TIP3    H233939   0.663   4.857   0.723 -1.0864  1.3379 -0.6033
 4150TIP3   OH233940   5.651   2.704   0.536 -0.6398  0.0049 -0.4313
 4150TIP3    H133941   5.680   2.724   0.624  1.1169  0.2996 -1.0532
 4150TIP3    H233942   5.605   2.620   0.544 -0.3761 -0.0355  0.7263
 4151TIP3   OH233943   2.421   5.248   6.384  0.4907  0.1576 -0.6858
 4151TIP3    H133944   2.440   5.156   6.370 -2.4366 -1.0517  1.9778
 4151TIP3    H233945   2.433   5.289   6.299 -0.5192 -3.2062 -2.6092
 4152TIP3   OH233946   5.495   1.795  15.084  0.3545  0.0831 -0.3793
 4152TIP3    H133947   5.531   1.711  15.054  0.3875  0.1310 -0.4757
 4152TIP3    H233948   5.416   1.807  15.030 -0.7585 -0.8279  0.9790
 4153TIP3   OH233949   3.017   4.876   1.931 -0.3607  0.1431  0.2480
 4153TIP3    H133950   2.927   4.908   1.926 -0.7028 -0.8700 -0.4270
 4153TIP3    H233951   3.027   4.821   1.853 -0.2417 -2.4319  1.9316
 4154TIP3   OH233952   5.280   6.283   3.638 -0.2304  0.7639 -0.1344
 4154TIP3    H133953   5.200   6.236   3.617 -1.0551  1.6173  0.9962
 4154TIP3    H233954   5.350   6.225   3.609 -1.2350  0.4763 -2.1529
 4155TIP3   OH233955   5.211   3.405  11.593  0.2832  0.2638 -0.0246
 4155TIP3    H133956   5.277   3.360  11.541 -1.0491 -0.8781 -0.7923
 4155TIP3    H233957   5.194   3.487  11.546 -1.0893 -0.8657 -1.6174
 4156TIP3   OH233958   2.188   5.378   1.492  0.4819 -0.0205 -0.1530
 4156TIP3    H133959   2.253   5.369   1.561 -1.0137 -2.7670  1.0527
 4156TIP3    H233960   2.183   5.473   1.475  2.1180  0.5743  2.2546
 4157TIP3   OH233961   1.939   2.574  12.910  0.5788 -0.2559 -0.1400
 4157TIP3    H133962   2.001   2.631  12.866  0.1291 -0.4754 -1.0887
 4157TIP3    H233963   1.863   2.572  12.852  0.0785 -0.7769  0.5178
 4158TIP3   OH233964   0.589   0.598   1.885  0.3593 -0.5596 -0.2025
 4158TIP3    H133965   0.620   0.670   1.831 -0.1064 -0.5304 -0.4277
 4158TIP3    H233966   0.543   0.540   1.824 -0.2465 -0.4809  0.1814
 4159TIP3   OH233967   0.479   4.100   5.507 -0.0287  0.0682 -0.0443
 4159TIP3    H133968   0.542   4.037   5.540  1.2425  0.8535 -0.8849
 4159TIP3    H233969   0.460   4.158   5.581  0.8236  0.2781  0.0121
 4160TIP3   OH233970   3.194   0.594   5.443  0.2680 -0.2634  0.2784
 4160TIP3    H133971   3.154   0.583   5.529  1.1492  0.0606  0.7477
 4160TIP3    H233972   3.192   0.507   5.404  2.1337 -1.0275  1.6718
 4161TIP3   OH233973   2.050   6.778   0.850 -0.5728 -0.3285 -0.3015
 4161TIP3    H133974   2.110   6.724   0.799 -0.1392 -1.9725  1.8029
 4161TIP3    H233975   2.094   6.862   0.858  0.5447 -0.8792 -0.4526
 4162TIP3   OH233976   4.618   0.207  10.658 -0.2385  0.1744  0.1253
 4162TIP3    H133977   4.561   0.147  10.609  0.5361 -0.6198  0.1842
 4162TIP3    H233978   4.705   0.167  10.653  0.1136  0.8178  0.9591
 4163TIP3   OH233979   2.123   5.486  15.738  0.5301 -0.1766 -0.0742
 4163TIP3    H133980   2.120   5.507  15.831 -0.9160 -3.7936  0.8439
 4163TIP3    H233981   2.169   5.402  15.734 -0.7163 -0.8187 -2.4490
 4164TIP3   OH233982   6.724   3.875   2.559 -0.1094 -0.0820  0.6853
 4164TIP3    H133983   6.755   3.792   2.596  0.6259  0.2001  0.7205
 4164TIP3    H233984   6.631   3.877   2.579 -0.9031 -2.3637 -2.0112
 4165TIP3   OH233985   1.922   4.557   0.149  0.0859  0.3840  0.0069
 4165TIP3    H133986   1.934   4.618   0.222 -0.7439 -0.4720  0.8925
 4165TIP3    H233987   1.993   4.578   0.089  0.3176  1.6471  0.6829
 4166TIP3   OH233988   4.878   0.368   1.579  0.2079  0.1383 -0.1719
 4166TIP3    H133989   4.790   0.356   1.544 -0.1447  0.7216  0.4858
 4166TIP3    H233990   4.871   0.446   1.635  1.5406  1.2434 -1.4685
 4167TIP3   OH233991   1.797   5.596   0.519  0.2322  0.3845  0.4461
 4167TIP3    H133992   1.746   5.516   0.529  0.5884  0.1566  0.4601
 4167TIP3    H233993   1.845   5.584   0.437  0.8450  0.2682  0.8186
 4168TIP3   OH233994   0.402   3.465  11.048  0.1804 -0.5532  0.2015
 4168TIP3    H133995   0.454   3.520  10.990 -1.0720  0.3162 -0.1317
 4168TIP3    H233996   0.448   3.381  11.049  1.2129 -0.0149 -0.5945
 4169TIP3   OH233997   5.603   4.294  11.288 -0.8836 -0.6532 -0.1418
 4169TIP3    H133998   5.668   4.231  11.320  0.5778 -0.1003 -1.8363
 4169TIP3    H233999   5.558   4.246  11.218 -1.2346 -0.5055 -0.0171
 4170TIP3   OH234000   2.630   2.713  13.297  0.0560 -0.0755  0.1342
 4170TIP3    H134001   2.628   2.795  13.346 -0.9427 -0.6532  1.0993
 4170TIP3    H234002   2.545   2.709  13.254  0.7662  0.2307 -1.3969
 4171TIP3   OH234003   0.722   3.785  13.925 -0.2069  0.0143  0.4084
 4171TIP3    H134004   0.810   3.752  13.945  0.1622  0.6050 -0.1699
 4171TIP3    H234005   0.733   3.880  13.925 -0.5584  0.0685 -0.8959
 4172TIP3   OH234006   2.828   6.098   3.748 -0.1348  0.4104  0.1602
 4172TIP3    H134007   2.873   6.055   3.820  1.9948  1.0304 -0.7142
 4172TIP3    H234008   2.875   6.069   3.670 -1.1139  1.3001 -0.7925
 4173TIP3   OH234009   0.651   4.652   0.432  0.3703 -0.0518 -0.5233
 4173TIP3    H134010   0.729   4.606   0.461 -1.6569 -2.2264  1.9232
 4173TIP3    H234011   0.635   4.718   0.500  0.2935  0.6719 -1.2291
 4174TIP3   OH234012   2.405   3.655  17.136  0.4212  0.2469  0.2835
 4174TIP3    H134013   2.369   3.658  17.225  0.2571  0.4903  0.2111
 4174TIP3    H234014   2.483   3.600  17.143 -0.1970 -0.6346  0.3571
 4175TIP3   OH234015   6.812   1.553  13.290  0.2180  0.2173 -0.3447
 4175TIP3    H134016   6.895   1.595  13.311  0.5288 -0.7287  0.3984
 4175TIP3    H234017   6.810   1.474  13.345 -1.7186  0.8564  0.6031
 4176TIP3   OH234018   5.341   6.799   3.349  0.4047 -0.1994  0.6672
 4176TIP3    H134019   5.370   6.711   3.371  1.5035 -0.2448 -0.8057
 4176TIP3    H234020   5.354   6.850   3.429  0.7629 -1.1339  1.2087
 4177TIP3   OH234021   4.875   5.945  12.825 -0.0627 -0.1761 -0.1283
 4177TIP3    H134022   4.966   5.968  12.804 -0.2858 -0.4072 -1.3761
 4177TIP3    H234023   4.822   6.006  12.774 -0.6184 -0.0145  0.6300
 4178TIP3   OH234024   2.429   5.542   4.821  0.2742 -0.1326  0.3880
 4178TIP3    H134025   2.338   5.519   4.840  0.6147 -0.5646  1.5799
 4178TIP3    H234026   2.469   5.460   4.795  0.0308  0.2933 -1.4683
 4179TIP3   OH234027   0.709   3.813   1.942 -0.3517 -0.0917 -0.1071
 4179TIP3    H134028   0.785   3.865   1.914  0.6749 -0.1144  2.3579
 4179TIP3    H234029   0.637   3.876   1.945  0.4265  0.7870  0.9900
 4180TIP3   OH234030   5.013   4.503  14.849 -0.1828  0.0815  0.1682
 4180TIP3    H134031   5.054   4.586  14.826  0.5897  0.0211  1.2429
 4180TIP3    H234032   5.085   4.448  14.880 -0.5459 -1.3060 -1.3293
 4181TIP3   OH234033   4.063   5.470   5.656 -0.3009  0.2457 -0.0038
 4181TIP3    H134034   3.972   5.456   5.630 -0.7607 -1.9227  2.3563
 4181TIP3    H234035   4.057   5.528   5.732  0.4366  1.0650 -0.5434
 4182TIP3   OH234036   6.088   6.669  16.341 -0.5121  0.2881  0.0954
 4182TIP3    H134037   6.039   6.586  16.346  0.1792 -0.2401 -1.2420
 4182TIP3    H234038   6.050   6.714  16.266  1.3818 -0.4043 -1.3575
 4183TIP3   OH234039   4.558   1.768  17.047  0.1647 -0.3248  0.2645
 4183TIP3    H134040   4.649   1.739  17.037 -0.4238 -1.8246 -1.4313
 4183TIP3    H234041   4.507   1.687  17.039 -1.4175  0.7305 -0.9788
 4184TIP3   OH234042   2.636   1.957   0.678  0.1249  0.2913  0.2416
 4184TIP3    H134043   2.654   1.963   0.585  0.2466  0.8954  0.3003
 4184TIP3    H234044   2.562   2.016   0.693 -0.0094  0.0664  0.5030
 4185TIP3   OH234045   5.190   1.934  16.151  0.1419  0.0565 -0.2122
 4185TIP3    H134046   5.268   1.979  16.120 -0.2508  1.0390  0.1913
 4185TIP3    H234047   5.145   1.998  16.206  0.1485 -1.1797  1.3270
 4186TIP3   OH234048   2.255   3.671  13.420 -0.1440  0.0920 -0.0816
 4186TIP3    H134049   2.332   3.729  13.416  2.1237 -2.6520  0.3249
 4186TIP3    H234050   2.227   3.662  13.329 -0.9228  2.1725 -0.1025
 4187TIP3   OH234051   5.559   5.087   3.937  0.4209  0.4590 -0.4703
 4187TIP3    H134052   5.543   4.993   3.943 -0.4747  0.6265 -0.0357
 4187TIP3    H234053   5.651   5.097   3.960 -0.1812 -0.0249  2.6400
 4188TIP3   OH234054   2.321   2.975   2.554 -0.2868  0.6934 -0.5279
 4188TIP3    H134055   2.327   3.056   2.503  1.2503  0.8613 -0.1119
 4188TIP3    H234056   2.291   3.004   2.640 -0.3727  0.7343 -0.5710
 4189TIP3   OH234057   5.860   0.487   3.917 -0.3622 -0.5999  0.1817
 4189TIP3    H134058   5.777   0.524   3.946 -2.0156 -3.2899 -0.7361
 4189TIP3    H234059   5.856   0.491   3.822  0.6354 -0.6388  0.1308
 4190TIP3   OH234060   3.947   2.485  14.296 -0.2333 -0.1739  0.0492
 4190TIP3    H134061   3.984   2.440  14.372  0.8821 -0.7389 -0.7951
 4190TIP3    H234062   3.907   2.564  14.332  2.8846  1.1370  0.9375
 4191TIP3   OH234063   3.958   3.247   3.117 -0.1488 -0.6382 -0.3162
 4191TIP3    H134064   4.012   3.311   3.163 -1.0356 -0.1452  0.0658
 4191TIP3    H234065   3.942   3.285   3.031 -1.6533  0.2298  0.3183
 4192TIP3   OH234066   0.521   3.294  13.014 -0.0308  0.0056 -0.2159
 4192TIP3    H134067   0.498   3.213  12.968  1.1127 -0.2791 -0.2991
 4192TIP3    H234068   0.613   3.308  12.994 -0.0593  0.9990  0.3112
 4193TIP3   OH234069   3.132   1.614   5.900  0.4534  0.5057  0.1690
 4193TIP3    H134070   3.056   1.667   5.924  1.2354  0.9983  1.7023
 4193TIP3    H234071   3.200   1.639   5.963  2.5691  1.5394 -2.3468
 4194TIP3   OH234072   6.165   6.382  16.967 -0.0786 -0.2389  0.1686
 4194TIP3    H134073   6.249   6.412  17.003  0.1984 -1.5595  0.7164
 4194TIP3    H234074   6.135   6.316  17.029 -1.4127  0.0228 -0.1637
 4195TIP3   OH234075   4.288   2.467   6.224  0.1757 -0.1095  0.1032
 4195TIP3    H134076   4.288   2.389   6.168  0.2453  0.2167 -0.3636
 4195TIP3    H234077   4.379   2.497   6.221 -0.1871  0.9790 -1.1496
 4196TIP3   OH234078   3.762   4.217  14.028  0.2470  0.2239  0.1121
 4196TIP3    H134079   3.836   4.219  13.967 -0.7460  2.4148 -1.1319
 4196TIP3    H234080   3.782   4.285  14.093 -1.7958  2.8421 -1.7982
 4197TIP3   OH234081   1.649   2.265  11.613  0.1295 -0.3605 -0.9065
 4197TIP3    H134082   1.712   2.208  11.569  0.0064 -0.1426 -1.3661
 4197TIP3    H234083   1.570   2.211  11.622 -0.1272 -0.1303 -1.7203
 4198TIP3   OH234084   3.939   0.272  14.768  0.1406 -0.2975 -0.5614
 4198TIP3    H134085   4.031   0.286  14.743 -0.3275 -0.6314 -2.6887
 4198TIP3    H234086   3.909   0.359  14.795 -0.0398  0.8756 -4.0652
 4199TIP3   OH234087   5.050   3.871  13.866 -0.0853  0.0373 -0.2086
 4199TIP3    H134088   5.064   3.797  13.926 -0.8758  0.5044  0.5855
 4199TIP3    H234089   4.982   3.923  13.909 -0.6914  0.3799 -1.5335
 4200TIP3   OH234090   6.172   6.298   2.015  0.0414 -0.1042 -0.9475
 4200TIP3    H134091   6.256   6.340   2.032  0.4884 -0.9526 -1.0261
 4200TIP3    H234092   6.157   6.242   2.091 -0.3893 -0.0529 -0.9933
 4201TIP3   OH234093   1.550   2.047   4.879  0.2301  0.0327  0.3476
 4201TIP3    H134094   1.639   2.062   4.911  0.3329 -1.4642  0.8394
 4201TIP3    H234095   1.556   1.968   4.827 -0.7053  0.2701 -0.1471
 4202TIP3   OH234096   4.123   1.973   2.866 -0.5001  0.2942 -0.6758
 4202TIP3    H134097   4.038   2.017   2.871 -1.7418 -2.0156  0.6357
 4202TIP3    H234098   4.115   1.915   2.791  1.0182  2.0017 -2.2400
 4203TIP3   OH234099   4.373   3.447  17.142 -0.1530 -0.0681  0.0178
 4203TIP3    H134100   4.314   3.374  17.161 -1.9614  1.1683 -0.6304
 4203TIP3    H234101   4.385   3.444  17.047  0.9008 -0.3294  0.1455
 4204TIP3   OH234102   3.323   1.901   4.902  0.2421  0.7963  0.5024
 4204TIP3    H134103   3.372   1.956   4.963  0.2054  1.7910 -0.3381
 4204TIP3    H234104   3.390   1.868   4.842  0.2086  0.2151  0.7783
 4205TIP3   OH234105   3.485   6.190   4.202  0.7191  0.1473  0.2206
 4205TIP3    H134106   3.502   6.105   4.242  3.4016 -0.6376 -2.1902
 4205TIP3    H234107   3.571   6.230   4.192 -0.3975  2.8965  0.6178
 4206TIP3   OH234108   3.459   4.544  14.783 -0.3493 -0.0370  0.1602
 4206TIP3    H134109   3.420   4.496  14.710  0.0856 -1.0140  0.5545
 4206TIP3    H234110   3.514   4.610  14.742 -1.1461  0.2935 -0.3941
 4207TIP3   OH234111   4.950   1.680  15.855  0.7883 -0.0017 -0.4533
 4207TIP3    H134112   4.933   1.595  15.897 -0.2913  0.7747  0.7516
 4207TIP3    H234113   5.017   1.661  15.790  0.7399 -1.7417 -0.0527
 4208TIP3   OH234114   0.509   4.531   2.273 -0.2784  0.0413  0.3938
 4208TIP3    H134115   0.470   4.482   2.200  1.0245 -0.2741 -0.1145
 4208TIP3    H234116   0.587   4.481   2.296 -0.8596 -0.0745  2.2841
 4209TIP3   OH234117   4.042   2.484  16.335  0.1658  0.1629  0.7236
 4209TIP3    H134118   3.985   2.503  16.410 -1.7615 -1.2212 -0.3062
 4209TIP3    H234119   4.078   2.397  16.354  0.3524  0.1735  0.4177
 4210TIP3   OH234120   6.463   1.285  13.918  0.1619 -0.7626 -0.3180
 4210TIP3    H134121   6.431   1.343  13.987  0.7626 -0.3552 -0.3737
 4210TIP3    H234122   6.411   1.307  13.841 -0.3001 -1.0042 -0.0798
 4211TIP3   OH234123   2.836   2.868  11.508  1.4722 -0.3703  0.7371
 4211TIP3    H134124   2.829   2.961  11.527  1.4395 -0.2411  0.1183
 4211TIP3    H234125   2.924   2.844  11.537  0.8703 -0.5521  2.5405
 4212TIP3   OH234126   0.637   1.624   4.935 -0.4106  0.0111  0.0778
 4212TIP3    H134127   0.650   1.542   4.982  2.2252  1.6256  2.5401
 4212TIP3    H234128   0.712   1.630   4.876 -0.4458  0.7363  0.0955
 4213TIP3   OH234129   3.418   2.403   0.062 -0.3063  0.4773  0.4233
 4213TIP3    H134130   3.420   2.368  -0.028 -1.0548  3.3137 -0.8072
 4213TIP3    H234131   3.345   2.358   0.103  0.0143 -0.8439 -0.3799
 4214TIP3   OH234132   1.701   2.573   6.385  0.5465 -0.5088 -0.2843
 4214TIP3    H134133   1.715   2.631   6.460 -1.2481 -1.2345  0.6886
 4214TIP3    H234134   1.664   2.630   6.317 -2.6770 -0.6059  1.1749
 4215TIP3   OH234135   2.264   4.432   1.703  0.5265 -0.2929 -0.2615
 4215TIP3    H134136   2.355   4.449   1.726  0.5167 -1.2946  0.6004
 4215TIP3    H234137   2.222   4.411   1.787 -1.6246  4.5044  0.2323
 4216TIP3   OH234138   6.638   1.725   3.383  0.1814  0.4340 -0.0582
 4216TIP3    H134139   6.729   1.738   3.354  0.7457 -0.8725  1.0066
 4216TIP3    H234140   6.611   1.643   3.341  0.1732 -0.1886  1.1341
 4217TIP3   OH234141   2.519   3.761  14.242  0.0415  0.0442 -0.1464
 4217TIP3    H134142   2.495   3.730  14.154 -1.4638  0.2132  0.1787
 4217TIP3    H234143   2.506   3.856  14.238 -1.6798 -0.1151  0.7041
 4218TIP3   OH234144   6.480   3.579  13.131  0.0200  0.2148 -0.1593
 4218TIP3    H134145   6.392   3.542  13.124  0.4382 -0.7038 -0.6929
 4218TIP3    H234146   6.519   3.566  13.044  1.1945 -0.7204  0.4833
 4219TIP3   OH234147   2.703   2.576   5.829  0.3832 -0.1283  0.2334
 4219TIP3    H134148   2.734   2.485   5.826 -1.6976 -0.9412  1.0625
 4219TIP3    H234149   2.611   2.568   5.857 -0.5086  2.0904 -1.7985
 4220TIP3   OH234150   1.828   6.209   2.398  0.3331  0.4603 -0.7228
 4220TIP3    H134151   1.776   6.253   2.331 -1.5399  1.0847  1.0263
 4220TIP3    H234152   1.867   6.280   2.449 -0.2415  0.0781  0.2833
 4221TIP3   OH234153   2.827   6.671  16.853  0.5280  0.2304  0.0982
 4221TIP3    H134154   2.897   6.607  16.857  1.7479  1.4797 -0.3672
 4221TIP3    H234155   2.846   6.732  16.924 -0.4501  0.2408  0.3661
 4222TIP3   OH234156   0.291   5.504   2.311  0.1029  0.0014 -0.4115
 4222TIP3    H134157   0.243   5.585   2.322 -1.0680 -0.6664 -0.4397
 4222TIP3    H234158   0.354   5.522   2.241  1.4401  1.5454  1.0911
 4223TIP3   OH234159   5.334   2.555   4.585  0.4442  0.7488  0.4485
 4223TIP3    H134160   5.324   2.504   4.665  1.1405  0.4862  0.3800
 4223TIP3    H234161   5.256   2.536   4.533  2.2681 -3.3390 -1.2949
 4224TIP3   OH234162   1.777   6.621  10.418 -0.4180 -0.5399 -0.3500
 4224TIP3    H134163   1.759   6.546  10.475  0.0444 -0.1496  0.3373
 4224TIP3    H234164   1.715   6.689  10.448  1.0847  0.2990  1.0016
 4225TIP3   OH234165   5.261   2.268  11.459  0.1616  0.1241  0.7724
 4225TIP3    H134166   5.308   2.336  11.411  0.0539  0.7106  1.4799
 4225TIP3    H234167   5.180   2.254  11.409  1.4282 -1.5384 -0.9713
 4226TIP3   OH234168   4.481   1.154   3.500 -0.1539  0.3696 -0.2664
 4226TIP3    H134169   4.420   1.133   3.570 -0.2229 -1.0482 -0.7165
 4226TIP3    H234170   4.544   1.081   3.500 -0.2660  0.2457 -1.7738
 4227TIP3   OH234171   2.504   3.336  16.914  0.3502  0.5109  0.4668
 4227TIP3    H134172   2.570   3.370  16.975  0.3383 -0.8023  1.2402
 4227TIP3    H234173   2.460   3.266  16.962  0.0653 -0.3072 -0.9205
 4228TIP3   OH234174   2.152   5.975  16.053  0.3923 -0.4198  0.1837
 4228TIP3    H134175   2.133   5.902  15.996 -0.0886  0.9063 -1.4328
 4228TIP3    H234176   2.172   6.048  15.994  3.3343  0.1809  1.6908
 4229TIP3   OH234177   1.667   6.444   4.180  0.4365  0.7967  0.5688
 4229TIP3    H134178   1.755   6.482   4.171  2.1991 -2.4974  2.0771
 4229TIP3    H234179   1.681   6.350   4.170 -2.6185 -0.0338  2.8002
 4230TIP3   OH234180   5.666   4.665  11.461  0.2533 -0.1554 -0.2973
 4230TIP3    H134181   5.616   4.687  11.382 -0.2092 -0.7525 -0.1744
 4230TIP3    H234182   5.635   4.578  11.486 -0.5347  0.5510  1.2780
 4231TIP3   OH234183   0.119   1.443  10.936  0.2221 -0.3130 -0.1346
 4231TIP3    H134184   0.066   1.415  10.861 -0.7003 -0.2679  0.4904
 4231TIP3    H234185   0.117   1.539  10.931 -4.1217  0.0242  2.7265
 4232TIP3   OH234186   5.799   4.747  16.246  0.2029  0.6569 -0.4011
 4232TIP3    H134187   5.784   4.652  16.243 -0.0509  0.7001 -0.5079
 4232TIP3    H234188   5.839   4.768  16.162 -2.2180  1.0623 -1.5378
 4233TIP3   OH234189   4.820   4.648  11.398  0.1472 -0.3546 -0.3813
 4233TIP3    H134190   4.767   4.705  11.342 -0.0688 -1.0786 -0.9188
 4233TIP3    H234191   4.756   4.605  11.455  0.4237  0.9308  0.9567
 4234TIP3   OH234192   3.981   2.275  14.099  0.4956  0.5615  0.5001
 4234TIP3    H134193   3.934   2.335  14.156 -1.4436  0.5168 -0.9588
 4234TIP3    H234194   3.996   2.197  14.153 -0.3321  0.9204  1.2724
 4235TIP3   OH234195   2.884   0.477   1.644  0.1818 -0.1307  0.5079
 4235TIP3    H134196   2.846   0.561   1.671  0.2306  0.1241 -0.1936
 4235TIP3    H234197   2.967   0.473   1.690  0.5244  0.5631 -0.0239
 4236TIP3   OH234198   5.554   5.554   5.104  0.0539 -0.7540 -0.1761
 4236TIP3    H134199   5.498   5.626   5.075 -0.4470 -0.9889  0.2027
 4236TIP3    H234200   5.516   5.476   5.062 -0.2062 -0.9833  0.4807
 4237TIP3   OH234201   0.645   6.524  11.085 -0.2985  0.4273  0.3689
 4237TIP3    H134202   0.574   6.472  11.048  2.4534 -1.4670 -2.7722
 4237TIP3    H234203   0.654   6.598  11.026  0.7977  0.2170  0.2429
 4238TIP3   OH234204   4.677   0.710   3.048  0.5824 -0.2700 -0.1435
 4238TIP3    H134205   4.642   0.625   3.074 -0.4830  0.5406  1.2631
 4238TIP3    H234206   4.607   0.772   3.069  0.8907  0.8557 -2.1677
 4239TIP3   OH234207   0.651   2.137  14.611  0.1275 -0.6899  0.0437
 4239TIP3    H134208   0.671   2.219  14.566 -2.0003  0.5057  1.1398
 4239TIP3    H234209   0.643   2.073  14.540  1.8988 -0.0243 -0.8256
 4240TIP3   OH234210   3.862   6.270   0.422 -0.3191 -0.1558  0.2363
 4240TIP3    H134211   3.864   6.308   0.334 -0.5848 -0.7947 -0.0496
 4240TIP3    H234212   3.801   6.196   0.415 -0.6377  0.0181  1.0497
 4241TIP3   OH234213   2.431   3.716  11.770  0.2008 -0.0682 -0.6819
 4241TIP3    H134214   2.455   3.641  11.716 -0.0397 -0.7998  0.1998
 4241TIP3    H234215   2.413   3.786  11.707 -0.5626 -1.0350 -1.5762
 4242TIP3   OH234216   3.211   2.352   2.197 -0.1341 -0.0269  0.7096
 4242TIP3    H134217   3.174   2.338   2.110  1.2615 -1.5668  0.3046
 4242TIP3    H234218   3.267   2.276   2.211 -0.4308  0.1290  3.0254
 4243TIP3   OH234219   4.182   1.320   1.167  0.3979 -0.0370 -0.5582
 4243TIP3    H134220   4.221   1.320   1.254 -0.8118  2.3680  0.0651
 4243TIP3    H234221   4.088   1.332   1.183  0.3531  2.5301 -2.1697
 4244TIP3   OH234222   4.154   2.429  15.497  0.1910  0.1515 -0.1817
 4244TIP3    H134223   4.131   2.439  15.590 -2.6925  0.4363 -0.8048
 4244TIP3    H234224   4.152   2.518  15.462 -0.3874 -0.0930 -0.8052
 4245TIP3   OH234225   4.077   1.815   1.444 -0.4931 -0.0430 -0.2369
 4245TIP3    H134226   4.055   1.733   1.400  0.0124 -0.5792  0.4730
 4245TIP3    H234227   4.161   1.796   1.488 -1.1816  0.3153  1.3065
 4246TIP3   OH234228   2.654   0.992   1.322  0.2386  0.1341 -0.5413
 4246TIP3    H134229   2.662   1.036   1.406  1.8177 -0.6759 -0.2385
 4246TIP3    H234230   2.560   0.986   1.307 -0.0487  0.9918  0.7804
 4247TIP3   OH234231   3.786   3.409  13.185 -0.3073  0.1781  0.0265
 4247TIP3    H134232   3.749   3.363  13.259  0.9560 -0.9618 -0.0090
 4247TIP3    H234233   3.783   3.502  13.210  0.8227 -0.2265  1.8643
 4248TIP3   OH234234   3.650   2.391  11.160  0.4404 -0.1597  0.1729
 4248TIP3    H134235   3.740   2.363  11.141 -0.0013 -1.2546 -0.4087
 4248TIP3    H234236   3.603   2.309  11.178 -0.2558  0.4693  1.2966
 4249TIP3   OH234237   1.118   1.543  16.842 -0.3632  0.1767 -0.2488
 4249TIP3    H134238   1.061   1.479  16.885 -0.2272 -0.7757 -1.4171
 4249TIP3    H234239   1.200   1.495  16.828  0.4523  1.2551  0.6456
 4250TIP3   OH234240   2.114   0.628  13.176  0.1796  0.5129 -0.9084
 4250TIP3    H134241   2.045   0.563  13.162  1.8812 -1.7441  0.4900
 4250TIP3    H234242   2.103   0.655  13.267  0.8176  0.4860 -0.8202
 4251TIP3   OH234243   1.695   5.643  16.926  0.3764  0.7822  0.1226
 4251TIP3    H134244   1.772   5.598  16.962  1.1022  0.4959 -1.6831
 4251TIP3    H234245   1.633   5.646  16.999  1.5690 -0.2127  1.2333
 4252TIP3   OH234246   2.520   3.385   1.280  0.0656  0.0829 -0.3979
 4252TIP3    H134247   2.425   3.378   1.269  0.1168 -0.0964 -0.7638
 4252TIP3    H234248   2.532   3.408   1.372 -0.2320 -2.4620  0.3422
 4253TIP3   OH234249   3.571   6.427  13.767 -0.1519  0.1282  0.0318
 4253TIP3    H134250   3.598   6.398  13.680  0.3432  0.2860  0.1302
 4253TIP3    H234251   3.483   6.463  13.754 -1.2818 -2.3884  0.0934
 4254TIP3   OH234252   6.689   6.814   3.465  0.3828  0.6274  0.8212
 4254TIP3    H134253   6.724   6.794   3.552 -3.1631 -1.5022  1.9551
 4254TIP3    H234254   6.718   6.742   3.410 -0.0542  0.2176  1.1157
 4255TIP3   OH234255   4.676   4.408   0.033 -0.0815 -0.8567 -0.2252
 4255TIP3    H134256   4.702   4.389   0.124  1.5047 -2.3808 -0.9486
 4255TIP3    H234257   4.591   4.450   0.041  0.2538 -0.4736  2.0068
 4256TIP3   OH234258   6.172   5.788   0.715 -0.2629 -0.2002  0.3739
 4256TIP3    H134259   6.092   5.745   0.686 -1.3246  1.1780  1.1313
 4256TIP3    H234260   6.186   5.756   0.804  0.1334 -0.5377  0.1990
 4257TIP3   OH234261   3.536   0.304   5.173 -0.5572  0.2753 -0.0313
 4257TIP3    H134262   3.492   0.219   5.174 -0.3089  0.1152  1.6193
 4257TIP3    H234263   3.500   0.350   5.098 -0.5705 -1.3513 -1.0762
 4258TIP3   OH234264   3.751   1.249  12.906  0.0447  0.2376 -0.3797
 4258TIP3    H134265   3.679   1.187  12.893 -0.8898  0.8241  1.5712
 4258TIP3    H234266   3.715   1.316  12.964  2.2014  0.4545  0.8323
 4259TIP3   OH234267   1.354   4.609   5.423  0.3020  0.3807 -0.7476
 4259TIP3    H134268   1.369   4.543   5.491  0.7733  0.7774 -0.4593
 4259TIP3    H234269   1.410   4.581   5.350 -0.1130  0.0205 -0.9335
 4260TIP3   OH234270   6.380   1.702  11.569  0.0500  0.2691  0.0959
 4260TIP3    H134271   6.396   1.796  11.581 -0.0564  0.3976 -0.7641
 4260TIP3    H234272   6.343   1.694  11.482  1.1051 -0.6879 -0.2916
 4261TIP3   OH234273   6.525   1.633   5.150 -0.2446  1.2687 -0.0254
 4261TIP3    H134274   6.449   1.679   5.186 -0.7666 -0.2414  0.8854
 4261TIP3    H234275   6.495   1.544   5.134  0.8564  1.0920 -1.3658
 4262TIP3   OH234276   4.272   6.106  11.702 -0.2017 -0.1015  0.8797
 4262TIP3    H134277   4.328   6.155  11.643 -0.6751 -0.2981  0.2527
 4262TIP3    H234278   4.326   6.033  11.732  2.0853  2.8902  5.2027
 4263TIP3   OH234279   4.456   5.578   5.749  0.0244 -0.2093 -0.4411
 4263TIP3    H134280   4.515   5.653   5.744 -1.0040  0.5364 -2.9821
 4263TIP3    H234281   4.405   5.593   5.828  1.1611  0.7227  0.1486
 4264TIP3   OH234282   5.422   3.375   0.159 -0.2762  0.1386  0.1433
 4264TIP3    H134283   5.410   3.340   0.247 -0.5413 -0.6747 -0.2127
 4264TIP3    H234284   5.334   3.374   0.121  0.0019 -0.5043 -0.4959
 4265TIP3   OH234285   0.643   3.884   0.252  0.7246  0.3712  0.2971
 4265TIP3    H134286   0.582   3.952   0.224  4.0136  2.6718 -2.0281
 4265TIP3    H234287   0.670   3.910   0.340  1.1761  1.5824 -0.1782
 4266TIP3   OH234288   2.423   3.693  16.796  0.1326  0.4231 -0.9163
 4266TIP3    H134289   2.518   3.709  16.801  0.4267 -1.3712  2.0800
 4266TIP3    H234290   2.384   3.762  16.849  0.0868 -0.3559  0.1124
 4267TIP3   OH234291   3.778   0.875  14.545  0.4321  0.4535 -0.1808
 4267TIP3    H134292   3.825   0.930  14.482 -1.7846  1.1958 -1.2722
 4267TIP3    H234293   3.788   0.786  14.512  0.7019  0.6513 -0.6333
 4268TIP3   OH234294   4.257   0.740   5.455  0.1548  0.0262 -1.0850
 4268TIP3    H134295   4.221   0.703   5.375 -3.4962 -1.2160  0.9150
 4268TIP3    H234296   4.247   0.835   5.444  1.1867 -0.0110 -2.6524
 4269TIP3   OH234297   3.611   6.569   3.141  0.0728  0.3822  0.4741
 4269TIP3    H134298   3.692   6.527   3.112 -0.2829  0.4177 -0.6053
 4269TIP3    H234299   3.595   6.533   3.228  1.8553  1.2339  1.1954
 4270TIP3   OH234300   1.777   5.637   1.727 -0.7463 -0.0003 -0.0044
 4270TIP3    H134301   1.774   5.711   1.666  0.3612  0.4165  0.4245
 4270TIP3    H234302   1.768   5.677   1.813  2.4226 -0.0181  0.4351
 4271TIP3   OH234303   2.886   3.476   6.161 -0.1690 -0.0415  0.4037
 4271TIP3    H134304   2.960   3.422   6.134  0.3809  0.8107  0.1648
 4271TIP3    H234305   2.865   3.446   6.249  2.2734  1.5532  1.6113
 4272TIP3   OH234306   1.115   5.704  14.574 -0.1464  0.5785  0.3246
 4272TIP3    H134307   1.036   5.746  14.608  0.1028 -0.0046  1.7072
 4272TIP3    H234308   1.187   5.761  14.604  0.2139 -0.8717  2.4343
 4273TIP3   OH234309   4.977   2.448   4.164  0.5004 -0.2993 -0.2798
 4273TIP3    H134310   4.996   2.460   4.257 -2.4407  1.5127  0.2367
 4273TIP3    H234311   5.001   2.531   4.124 -0.1278 -0.3309 -0.7342
 4274TIP3   OH234312   3.015   1.974  15.590 -0.0116  0.0969  0.1612
 4274TIP3    H134313   3.105   2.007  15.592  0.7136 -1.7568  1.5993
 4274TIP3    H234314   3.018   1.898  15.533 -0.1428 -1.1862  1.7755
 4275TIP3   OH234315   3.721   6.300  13.546 -0.0803 -0.0538  0.2506
 4275TIP3    H134316   3.747   6.218  13.504  0.4134 -0.0508  0.5444
 4275TIP3    H234317   3.803   6.340  13.574 -0.0033  2.0207 -2.5405
 4276TIP3   OH234318   4.574   0.507   2.786  0.0028  0.2619  0.1963
 4276TIP3    H134319   4.647   0.494   2.725 -0.5243  1.7009 -0.8061
 4276TIP3    H234320   4.579   0.599   2.811 -1.5831  0.4613 -0.0893
 4277TIP3   OH234321   6.230   4.564  13.349 -0.1158  0.5242 -0.3245
 4277TIP3    H134322   6.206   4.650  13.382 -1.7222 -0.5811  1.6353
 4277TIP3    H234323   6.197   4.564  13.258 -0.3895  1.8420 -0.2469
 4278TIP3   OH234324   1.396   1.477  15.423  0.1264 -0.3280  0.4709
 4278TIP3    H134325   1.313   1.453  15.382  0.5341 -0.2004 -0.4495
 4278TIP3    H234326   1.462   1.460  15.356  0.9661 -1.2978  1.4892
 4279TIP3   OH234327   2.430   6.063  12.538 -0.0650 -0.1314 -0.1074
 4279TIP3    H134328   2.457   6.048  12.629  1.7335  0.3110 -0.5327
 4279TIP3    H234329   2.449   6.155  12.522  1.0298 -0.5495 -1.3585
 4280TIP3   OH234330   4.643   1.876  14.716  0.2286 -0.5912  1.0978
 4280TIP3    H134331   4.573   1.819  14.685  1.3226 -0.5000 -1.8766
 4280TIP3    H234332   4.679   1.831  14.792 -0.4060 -2.7198  0.2038
 4281TIP3   OH234333   1.902   3.139  13.902  0.1601 -0.2812 -0.6088
 4281TIP3    H134334   1.872   3.223  13.866 -2.3478 -0.9324 -0.1921
 4281TIP3    H234335   1.953   3.163  13.980 -0.6018  0.8523 -0.4421
 4282TIP3   OH234336   5.605   4.408   3.546  0.6015 -1.0465  0.3568
 4282TIP3    H134337   5.641   4.496   3.532  0.2547 -0.9379  0.1469
 4282TIP3    H234338   5.521   4.409   3.502 -0.5176 -0.7017  2.3787
 4283TIP3   OH234339   1.540   5.295  12.621 -0.1707  0.2412 -0.1891
 4283TIP3    H134340   1.462   5.348  12.600  0.7085  1.4002 -0.6267
 4283TIP3    H234341   1.598   5.355  12.667  1.2028 -0.0975 -1.4321
 4284TIP3   OH234342   1.344   2.448   0.869  0.2340  0.0174 -0.3254
 4284TIP3    H134343   1.428   2.491   0.852 -0.6541  1.3790 -1.5269
 4284TIP3    H234344   1.325   2.401   0.788  0.5162 -1.5621  0.4820
 4285TIP3   OH234345   2.331   6.708   1.029  0.1985 -0.4067  0.1830
 4285TIP3    H134346   2.244   6.748   1.032  0.6304  0.5449  0.4697
 4285TIP3    H234347   2.320   6.629   0.977 -0.3001  1.0665 -2.0774
 4286TIP3   OH234348   4.516   6.335  14.166  0.0019 -0.4043  0.4196
 4286TIP3    H134349   4.435   6.291  14.192 -1.1755  1.9992  1.0208
 4286TIP3    H234350   4.493   6.382  14.086  1.9738 -2.8638 -1.7853
 4287TIP3   OH234351   1.215   2.620   5.056  0.0752 -0.0737  0.9197
 4287TIP3    H134352   1.251   2.665   5.133  2.1490  1.1090 -0.6458
 4287TIP3    H234353   1.287   2.566   5.024 -1.3184 -1.9598  0.7754
 4288TIP3   OH234354   3.027   5.485  11.222 -0.2057 -0.7539  0.2884
 4288TIP3    H134355   2.971   5.554  11.188  0.1748 -1.0961 -1.1163
 4288TIP3    H234356   3.094   5.473  11.154  1.5393 -0.3955  1.8650
 4289TIP3   OH234357   0.770   3.474   4.134 -0.4869 -0.2979  0.2959
 4289TIP3    H134358   0.726   3.441   4.056  0.3453 -2.1036  0.5268
 4289TIP3    H234359   0.714   3.445   4.207 -0.5309  0.1380  0.4356
 4290TIP3   OH234360   2.474   3.786   5.799 -0.4692  0.1826  0.2763
 4290TIP3    H134361   2.450   3.864   5.750  2.7528  1.6644  0.7740
 4290TIP3    H234362   2.426   3.715   5.757 -0.5107  1.8699 -2.8077
 4291TIP3   OH234363   0.438   5.705   4.506  0.3317 -0.0657  0.0157
 4291TIP3    H134364   0.476   5.782   4.549  0.5236 -0.0872 -0.1122
 4291TIP3    H234365   0.425   5.733   4.415  0.6453 -0.2681 -0.0925
 4292TIP3   OH234366   3.535   2.213  16.585 -0.2602  0.3145  0.2825
 4292TIP3    H134367   3.520   2.156  16.510  0.2108  0.3975  0.1206
 4292TIP3    H234368   3.475   2.181  16.652 -1.4976  0.9579 -0.4945
 4293TIP3   OH234369   3.637   4.778   5.671 -0.5784  0.3004  0.6043
 4293TIP3    H134370   3.646   4.774   5.766 -0.2521 -1.3922  0.5310
 4293TIP3    H234371   3.591   4.698   5.647  0.4080  0.0982 -0.7741
 4294TIP3   OH234372   4.047   5.868   3.091 -0.1178 -0.9648  0.0356
 4294TIP3    H134373   3.987   5.912   3.032  0.6747  0.8375  0.4845
 4294TIP3    H234374   4.007   5.878   3.178  1.7699  2.3679  0.7118
 4295TIP3   OH234375   3.622   4.783   0.515 -0.5939  0.1959  0.1268
 4295TIP3    H134376   3.637   4.757   0.424 -0.7366 -0.9727  0.4178
 4295TIP3    H234377   3.633   4.702   0.564 -0.9972  0.7262  1.1028
 4296TIP3   OH234378   4.869   4.918  14.304 -0.0430  0.1079 -0.4634
 4296TIP3    H134379   4.811   4.988  14.333  0.9079  0.9980 -0.6436
 4296TIP3    H234380   4.945   4.963  14.268 -0.2333 -0.9771 -2.3891
 4297TIP3   OH234381   1.445   2.958   3.902  0.5825 -0.4455  0.2458
 4297TIP3    H134382   1.414   2.867   3.896  1.0555 -0.6783  1.1748
 4297TIP3    H234383   1.440   2.991   3.813  0.4079 -1.3901 -0.1024
 4298TIP3   OH234384   5.550   6.100  15.512 -0.1360 -0.1080 -0.6077
 4298TIP3    H134385   5.619   6.152  15.471  0.0629 -0.7565 -1.1081
 4298TIP3    H234386   5.499   6.065  15.439  0.3612 -1.4693 -0.3418
 4299TIP3   OH234387   1.590   2.339   3.462 -0.5992  0.0848 -0.0492
 4299TIP3    H134388   1.507   2.319   3.504 -1.7514  2.5169 -0.9892
 4299TIP3    H234389   1.649   2.359   3.534 -0.3735 -2.8443  0.7058
 4300TIP3   OH234390   1.403   1.211  16.907 -0.2893  0.1217  0.0172
 4300TIP3    H134391   1.475   1.162  16.866 -0.1426  0.4620 -0.1318
 4300TIP3    H234392   1.394   1.290  16.854 -1.0077 -0.0818 -0.1841
 4301TIP3   OH234393   4.126   0.958  14.533  0.3975  0.2630  0.7063
 4301TIP3    H134394   4.175   0.903  14.595 -2.0475 -0.1621  2.4150
 4301TIP3    H234395   4.127   1.045  14.573  2.1734  1.0058 -0.7728
 4302TIP3   OH234396   3.818   0.363   3.760 -0.6058  0.1466 -0.0314
 4302TIP3    H134397   3.787   0.454   3.760 -0.2103  0.2833  0.3906
 4302TIP3    H234398   3.763   0.319   3.695 -1.2044  0.5485  0.1942
 4303TIP3   OH234399   6.173   1.290  13.089 -0.0343 -0.2979  0.4255
 4303TIP3    H134400   6.249   1.273  13.146  2.6108  1.1645 -2.3695
 4303TIP3    H234401   6.146   1.379  13.112  2.1342  0.9817 -1.5180
 4304TIP3   OH234402   1.865   5.251  15.806 -0.0637  0.2625  0.3503
 4304TIP3    H134403   1.959   5.245  15.790  0.0408 -0.6135  1.1776
 4304TIP3    H234404   1.856   5.320  15.872  0.3301 -1.5369  2.4236
 4305TIP3   OH234405   0.909   2.166   0.803  0.4524  0.2702  0.1052
 4305TIP3    H134406   0.908   2.086   0.856  1.1814 -0.9823 -1.6671
 4305TIP3    H234407   0.977   2.220   0.842 -0.3072  0.2380  1.5582
 4306TIP3   OH234408   2.782   1.531  16.338  0.2275  0.7235  0.1206
 4306TIP3    H134409   2.852   1.596  16.332 -0.6652  1.7894  0.9086
 4306TIP3    H234410   2.823   1.456  16.382  1.3121  0.6422 -0.9608
 4307TIP3   OH234411   5.726   3.205  10.186  0.1155 -0.0662 -0.1579
 4307TIP3    H134412   5.724   3.263  10.110 -0.6960 -1.0540 -0.9135
 4307TIP3    H234413   5.740   3.118  10.149 -2.3519 -0.8654  0.6230
 4308TIP3   OH234414   6.140   5.551  10.953  0.2198 -0.1681  1.1884
 4308TIP3    H134415   6.120   5.590  11.038  0.3950 -0.9877  1.6107
 4308TIP3    H234416   6.060   5.505  10.927  0.5177 -0.8188  1.4143
 4309TIP3   OH234417   0.054   3.367  15.073  0.2461  0.6093 -0.3349
 4309TIP3    H134418   0.011   3.427  15.133  1.4826  2.8272 -1.5211
 4309TIP3    H234419   0.003   3.286  15.078 -4.4467  3.1113 -1.9819
 4310TIP3   OH234420   4.800   6.798  15.074  0.0937 -0.1458  0.5038
 4310TIP3    H134421   4.757   6.714  15.089 -1.3922  0.6716  0.9525
 4310TIP3    H234422   4.837   6.822  15.159  0.3947 -0.2563  0.4084
 4311TIP3   OH234423   3.709   3.567   3.110 -0.0469  0.3369 -0.0140
 4311TIP3    H134424   3.765   3.517   3.051  1.2997  0.8092  0.8085
 4311TIP3    H234425   3.654   3.620   3.053 -1.2944 -1.8010 -0.8998
 4312TIP3   OH234426   0.162   1.957  10.752 -0.3364 -0.3416  0.4463
 4312TIP3    H134427   0.073   1.990  10.738  0.6060  1.9632 -0.6616
 4312TIP3    H234428   0.188   1.924  10.666  0.5629  0.9302  0.1997
 4313TIP3   OH234429   6.270   1.449  11.570 -0.1710 -0.3573 -0.2168
 4313TIP3    H134430   6.335   1.518  11.555  1.5187 -2.1329 -1.5736
 4313TIP3    H234431   6.319   1.367  11.557 -2.0430 -1.8519  1.4729
 4314TIP3   OH234432   6.678   3.069   5.524  0.8276 -0.0783 -0.4694
 4314TIP3    H134433   6.668   3.084   5.618  1.2132  0.1475 -0.4604
 4314TIP3    H234434   6.659   2.976   5.512  1.5946 -0.3028 -0.0372
 4315TIP3   OH234435   6.432   1.475  14.109  0.3012  0.2453 -0.0558
 4315TIP3    H134436   6.490   1.515  14.174  1.0438  0.3169 -0.7460
 4315TIP3    H234437   6.346   1.511  14.128  0.6405  0.8138  0.4349
 4316TIP3   OH234438   3.368   0.908  12.768 -0.4191 -0.0886 -0.0437
 4316TIP3    H134439   3.304   0.837  12.766  1.0496 -1.5238  1.0760
 4316TIP3    H234440   3.437   0.880  12.708  0.8244 -0.3120  1.4291
 4317TIP3   OH234441   2.115   0.507   0.550  0.7308  0.2285  0.5223
 4317TIP3    H134442   2.174   0.448   0.504  2.1328  1.0722  1.1575
 4317TIP3    H234443   2.105   0.582   0.491  0.9503  0.4505  0.7692
 4318TIP3   OH234444   3.639   4.880  17.115 -0.0057 -0.6785  0.3931
 4318TIP3    H134445   3.649   4.789  17.145  0.3913 -1.8733 -2.9533
 4318TIP3    H234446   3.549   4.885  17.083 -0.5502  0.6822  1.9490
 4319TIP3   OH234447   3.149   4.551   1.629 -0.6369  0.3298  0.5670
 4319TIP3    H134448   3.061   4.534   1.596 -0.8809  0.3441  1.1865
 4319TIP3    H234449   3.142   4.538   1.724 -0.3226  1.7228  0.8028
 4320TIP3   OH234450   1.659   0.780   1.916 -0.0522 -0.0462  0.7211
 4320TIP3    H134451   1.676   0.720   1.989 -1.3705 -0.2768  0.8606
 4320TIP3    H234452   1.711   0.744   1.844  1.7205  0.5130  1.6686
 4321TIP3   OH234453   2.295   3.322   3.867 -0.2287  0.2240 -0.4286
 4321TIP3    H134454   2.202   3.300   3.856 -0.1239 -0.7460  0.4919
 4321TIP3    H234455   2.342   3.251   3.822  0.0834 -0.2147  0.5637
 4322TIP3   OH234456   1.343   4.267  15.024  0.6181  0.7676  0.2767
 4322TIP3    H134457   1.350   4.181  15.067 -0.9206  0.5727  0.2113
 4322TIP3    H234458   1.408   4.264  14.954  1.5660  0.2031  1.1524
 4323TIP3   OH234459   6.546   0.986   2.490  0.1138 -0.6008 -0.0567
 4323TIP3    H134460   6.531   0.906   2.541 -1.6701 -0.4859 -0.3188
 4323TIP3    H234461   6.556   0.955   2.400  2.6907 -0.7552  0.2177
 4324TIP3   OH234462   5.281   4.502   3.224  0.1655  0.2084  0.2899
 4324TIP3    H134463   5.239   4.416   3.219  1.4922 -0.4254 -1.5205
 4324TIP3    H234464   5.248   4.549   3.148  1.1260  0.4460  0.0031
 4325TIP3   OH234465   3.823   4.756  11.355 -0.3255 -0.1177  0.3352
 4325TIP3    H134466   3.818   4.749  11.260 -0.8188 -1.7872  0.4587
 4325TIP3    H234467   3.831   4.850  11.372 -3.2296  0.5196 -1.2467
 4326TIP3   OH234468   6.277   3.016  17.067  1.0316  0.3513  0.5411
 4326TIP3    H134469   6.309   3.095  17.024 -0.3743  0.5547 -0.1963
 4326TIP3    H234470   6.292   2.946  17.003  0.7961  0.3070  0.5342
 4327TIP3   OH234471   4.895   0.235  14.192  0.5428  0.0358 -0.3468
 4327TIP3    H134472   4.842   0.155  14.200  0.9920 -0.5585 -2.5972
 4327TIP3    H234473   4.860   0.294  14.259 -2.2310 -0.7562 -0.9685
 4328TIP3   OH234474   3.098   4.268   1.015  0.3101  0.9095 -0.3465
 4328TIP3    H134475   3.006   4.291   1.004  0.4099  0.8511 -1.4133
 4328TIP3    H234476   3.114   4.202   0.948  0.5393 -0.8452  1.3418
 4329TIP3   OH234477   2.334   2.860   1.412 -0.3182 -0.6251  0.1148
 4329TIP3    H134478   2.245   2.885   1.387 -0.0057  0.3388 -0.0792
 4329TIP3    H234479   2.388   2.886   1.337  0.2366 -0.4389  0.5776
 4330TIP3   OH234480   3.219   2.610   6.458  0.3158 -0.2939  0.0587
 4330TIP3    H134481   3.152   2.580   6.519  0.5816 -0.5805  0.2180
 4330TIP3    H234482   3.244   2.696   6.491 -0.4672  0.1120 -0.4125
 4331TIP3   OH234483   4.935   1.427   2.135 -0.2672 -0.1765 -0.5243
 4331TIP3    H134484   5.020   1.397   2.166 -0.5263 -0.6859 -0.2971
 4331TIP3    H234485   4.952   1.514   2.097  0.0488  0.4754  1.0529
 4332TIP3   OH234486   4.996   2.255   2.295  0.3441 -0.1144  0.0361
 4332TIP3    H134487   5.038   2.170   2.277 -1.7879 -0.8462 -1.9567
 4332TIP3    H234488   4.947   2.240   2.376  2.5415  0.3142  1.5612
 4333TIP3   OH234489   0.734   2.422  15.959  0.4572 -0.3726 -0.0028
 4333TIP3    H134490   0.705   2.420  16.050 -1.1075  2.3218 -0.3196
 4333TIP3    H234491   0.734   2.330  15.932  0.4990 -1.2130  2.5381
 4334TIP3   OH234492   2.409   1.986  11.295  0.2168  0.2952 -0.0218
 4334TIP3    H134493   2.389   1.933  11.218  2.4089  1.3040 -1.4116
 4334TIP3    H234494   2.432   1.923  11.363 -2.1310 -0.6263  0.0030
 4335TIP3   OH234495   1.238   3.031  13.038 -0.4502 -0.0357  0.1756
 4335TIP3    H134496   1.314   3.049  12.982  0.0816 -0.1759  0.8327
 4335TIP3    H234497   1.212   2.942  13.015  0.5423 -0.5683  0.9963
 4336TIP3   OH234498   5.424   2.687   4.903  0.8235  0.6095  0.0187
 4336TIP3    H134499   5.338   2.708   4.865  0.0714  0.7943  1.7170
 4336TIP3    H234500   5.444   2.600   4.870 -0.2375  0.3714 -0.0391
 4337TIP3   OH234501   0.993   6.822   0.544  0.0176  0.1030  0.4068
 4337TIP3    H134502   0.938   6.885   0.497  0.4017  1.6716  1.9324
 4337TIP3    H234503   1.081   6.859   0.540  0.2169 -0.1955  1.5230
 4338TIP3   OH234504   3.063   6.317   4.733  0.7590 -0.6968  0.5447
 4338TIP3    H134505   3.084   6.316   4.826  0.6776 -3.4663  0.6071
 4338TIP3    H234506   2.970   6.297   4.729 -0.3223  3.4890 -0.0741
 4339TIP3   OH234507   5.194   5.472  14.197  0.2475  0.5773 -0.1891
 4339TIP3    H134508   5.275   5.493  14.151  0.3284  2.4071  0.7131
 4339TIP3    H234509   5.168   5.386  14.162  1.0822  1.2017 -2.5160
 4340TIP3   OH234510   1.038   4.585  16.991  0.4490  0.0519  0.2237
 4340TIP3    H134511   0.952   4.554  16.964  0.5765 -0.2704  0.1825
 4340TIP3    H234512   1.084   4.506  17.020 -0.4514  0.5892  3.5759
 4341TIP3   OH234513   2.395   0.288   3.734 -0.3913  0.7154  0.7451
 4341TIP3    H134514   2.452   0.213   3.751 -3.4995 -2.2494 -0.6931
 4341TIP3    H234515   2.427   0.325   3.652 -0.9254 -1.4569 -0.5182
 4342TIP3   OH234516   5.074   3.619   0.284  0.2493 -0.1300  0.3922
 4342TIP3    H134517   5.153   3.579   0.319  1.2909  1.5540  0.1164
 4342TIP3    H234518   5.030   3.658   0.360  0.6623  0.4970  0.3186
 4343TIP3   OH234519   1.718   5.258  11.230 -0.2275  0.4830  0.1943
 4343TIP3    H134520   1.725   5.175  11.277 -1.1270  0.4914  0.3471
 4343TIP3    H234521   1.675   5.237  11.148 -0.7636  0.8454  0.3745
 4344TIP3   OH234522   6.230   6.481  14.050 -0.1809  0.0228 -0.0194
 4344TIP3    H134523   6.248   6.405  13.994 -1.0515  0.1687 -0.5190
 4344TIP3    H234524   6.269   6.555  14.002 -0.4471  0.0697 -0.1647
 4345TIP3   OH234525   4.547   2.368   2.861  0.3629  0.6706  0.0567
 4345TIP3    H134526   4.601   2.405   2.930  1.7849  0.0614 -0.6845
 4345TIP3    H234527   4.461   2.410   2.872  0.8992  1.4791  1.4105
 4346TIP3   OH234528   6.293   1.875   3.574 -0.1993  0.5231  0.3545
 4346TIP3    H134529   6.238   1.828   3.637  0.7102 -1.9932 -0.5720
 4346TIP3    H234530   6.330   1.948   3.624 -0.5763 -0.5788  2.3665
 4347TIP3   OH234531   5.851   4.527  14.630 -0.0529  0.1760 -0.6664
 4347TIP3    H134532   5.870   4.584  14.704 -1.7088 -0.1057  0.0367
 4347TIP3    H234533   5.755   4.528  14.623  0.0075 -0.7372 -2.0600
 4348TIP3   OH234534   0.691   0.590  15.332  0.6759 -0.1852 -0.0955
 4348TIP3    H134535   0.661   0.550  15.414  1.2783 -0.2820  0.0802
 4348TIP3    H234536   0.616   0.642  15.302  0.3700 -0.3396  0.3914
 4349TIP3   OH234537   5.172   3.565   3.333  0.1334  0.5739 -0.2807
 4349TIP3    H134538   5.178   3.581   3.427  0.6886  0.7868 -0.3493
 4349TIP3    H234539   5.100   3.503   3.324  0.9495 -0.5092  0.4131
 4350TIP3   OH234540   5.544   1.396   3.587 -0.3698  0.2169 -0.0534
 4350TIP3    H134541   5.620   1.455   3.590 -0.7345  0.7003 -0.2019
 4350TIP3    H234542   5.500   1.418   3.505 -0.5490 -0.2192 -0.0760
 4351TIP3   OH234543   4.751   1.661   3.303  0.4575 -0.1797 -0.1895
 4351TIP3    H134544   4.738   1.593   3.369  0.9482  0.0093  0.1107
 4351TIP3    H234545   4.839   1.644   3.269 -0.0052 -0.6158 -1.2019
 4352TIP3   OH234546   3.270   3.766   5.403 -0.6398  0.3037  0.5946
 4352TIP3    H134547   3.287   3.850   5.361 -0.1079 -0.4927 -0.8521
 4352TIP3    H234548   3.198   3.728   5.353 -1.1819  0.0736  1.5145
 4353TIP3   OH234549   6.309   1.504   2.097 -0.2059 -0.1919  0.5153
 4353TIP3    H134550   6.319   1.458   2.180  0.6906  1.0564  1.1291
 4353TIP3    H234551   6.227   1.552   2.106 -0.2403 -0.2609  0.5702
 4354TIP3   OH234552   5.059   2.600   2.968  0.3583  0.2344 -0.0205
 4354TIP3    H134553   5.070   2.694   2.979 -2.1948  0.4302  2.0754
 4354TIP3    H234554   5.130   2.561   3.019  1.7002  0.9632 -1.2702
 4355TIP3   OH234555   5.593   2.123   1.618  0.3015 -0.2049 -0.3176
 4355TIP3    H134556   5.658   2.119   1.547  1.7187  2.2678  0.6919
 4355TIP3    H234557   5.592   2.035   1.654  1.7197 -0.7978 -1.5672
 4356TIP3   OH234558   5.662   5.902   5.825  0.2507 -0.3994  0.4146
 4356TIP3    H134559   5.686   5.838   5.892  2.2752  0.5145  0.6530
 4356TIP3    H234560   5.647   5.983   5.875 -0.1204 -0.1782 -0.0574
 4357TIP3   OH234561   5.098   4.607  15.710 -0.1535 -0.3253 -0.6348
 4357TIP3    H134562   5.135   4.687  15.746 -0.9642 -0.4470  0.5107
 4357TIP3    H234563   5.149   4.591  15.630  0.9437  0.5564 -0.1388
 4358TIP3   OH234564   0.205   2.276  16.288  0.0695 -0.3495  0.5446
 4358TIP3    H134565   0.194   2.336  16.362  0.7472 -0.4714  0.7484
 4358TIP3    H234566   0.278   2.220  16.313  0.9184  0.2035 -0.6067
 4359TIP3   OH234567   2.041   3.567  11.290 -0.2270 -0.5960  0.2273
 4359TIP3    H134568   2.088   3.509  11.230 -0.1627 -0.0118 -0.2970
 4359TIP3    H234569   1.951   3.565  11.260 -0.5577 -1.6941  1.2153
 4360TIP3   OH234570   5.000   1.615  10.900  0.3671 -0.5765  0.1171
 4360TIP3    H134571   4.993   1.523  10.873  0.2025 -0.2238 -1.1335
 4360TIP3    H234572   4.910   1.642  10.917  0.2851 -0.3485 -0.6307
 4361TIP3   OH234573   5.577   4.616   5.473 -0.1144 -0.6806 -0.2235
 4361TIP3    H134574   5.628   4.552   5.522 -0.9670 -1.6007 -0.5194
 4361TIP3    H234575   5.605   4.606   5.382 -0.4647 -0.8504 -0.3157
 4362TIP3   OH234576   4.810   4.925  11.582  0.2649 -0.9072  0.0953
 4362TIP3    H134577   4.863   4.906  11.659  2.3069  0.2287 -0.9550
 4362TIP3    H234578   4.752   4.849  11.573 -1.6384 -0.1277  3.9568
 4363TIP3   OH234579   5.940   2.587   4.286 -0.4581  0.1195 -0.1226
 4363TIP3    H134580   5.929   2.682   4.281  1.3366  0.5331  2.1066
 4363TIP3    H234581   5.906   2.563   4.372 -1.3360 -1.3757 -0.8396
 4364TIP3   OH234582   0.185   2.555  11.595  0.0623 -0.0442  0.1983
 4364TIP3    H134583   0.210   2.560  11.503 -1.4138  0.1722 -0.2233
 4364TIP3    H234584   0.268   2.544  11.642  0.7477 -1.4045 -1.2312
 4365TIP3   OH234585   5.422   3.063  15.043 -0.6481  0.3351 -0.0110
 4365TIP3    H134586   5.491   3.122  15.074  0.0197 -0.6221  0.3639
 4365TIP3    H234587   5.359   3.061  15.116 -2.0707  2.6592 -1.0638
 4366TIP3   OH234588   3.071   0.795  15.711 -0.4377  0.1188  0.0733
 4366TIP3    H134589   3.109   0.883  15.717  0.4483 -0.1957 -0.7080
 4366TIP3    H234590   3.147   0.737  15.704 -0.9624 -0.8144  1.6241
 4367TIP3   OH234591   6.370   4.628   3.066  0.2226  0.6675  0.0427
 4367TIP3    H134592   6.304   4.571   3.026 -0.3897  1.5201 -0.2003
 4367TIP3    H234593   6.443   4.570   3.087 -0.4839 -0.2421  0.0351
 4368TIP3   OH234594   5.498   0.435   4.537 -0.6730  0.2892  0.2656
 4368TIP3    H134595   5.556   0.360   4.525  0.3228  1.1654 -0.7148
 4368TIP3    H234596   5.414   0.406   4.502 -0.9063 -1.0370  1.8074
 4369TIP3   OH234597   4.071   1.217   0.949 -0.0963 -0.1027  0.0994
 4369TIP3    H134598   3.988   1.230   0.995  0.6211 -1.1311  1.7783
 4369TIP3    H234599   4.135   1.266   1.001  0.4728  0.1845 -0.8345
 4370TIP3   OH234600   0.947   4.137  15.429 -0.2022 -0.0432  0.1534
 4370TIP3    H134601   0.863   4.142  15.383 -0.1487 -0.0026  0.0585
 4370TIP3    H234602   1.011   4.125  15.359  0.0400  1.5180  0.0709
 4371TIP3   OH234603   1.137   3.050  11.444  0.1579  0.5087 -0.5331
 4371TIP3    H134604   1.065   2.988  11.432  1.1665 -1.1026  1.3477
 4371TIP3    H234605   1.097   3.136  11.427 -2.0327 -0.3793 -0.1808
 4372TIP3   OH234606   2.784   0.191  14.172 -0.0423 -0.0922 -0.1622
 4372TIP3    H134607   2.719   0.160  14.109 -0.7009  0.5134  0.2031
 4372TIP3    H234608   2.806   0.279  14.142 -2.1017  1.1523  1.7032
 4373TIP3   OH234609   5.258   5.072  12.511 -0.2918 -0.1916 -0.9218
 4373TIP3    H134610   5.197   4.999  12.499  0.2629 -0.4958 -2.0854
 4373TIP3    H234611   5.336   5.032  12.549 -0.4804  0.0344 -0.2953
 4374TIP3   OH234612   0.476   2.192  11.796 -0.2237 -0.2030 -0.2828
 4374TIP3    H134613   0.538   2.128  11.762  0.7186  1.2190 -1.3623
 4374TIP3    H234614   0.530   2.251  11.850 -0.9493  0.0733  0.1591
 4375TIP3   OH234615   5.368   0.581   5.476 -0.2490 -0.0535  0.4025
 4375TIP3    H134616   5.299   0.552   5.535 -0.1920 -2.1220 -0.4543
 4375TIP3    H234617   5.327   0.582   5.389  0.8731 -2.0200 -0.2369
 4376TIP3   OH234618   4.990   1.822  15.097  0.1010 -0.0297  0.1878
 4376TIP3    H134619   4.903   1.851  15.125 -0.2489 -0.9200  0.0392
 4376TIP3    H234620   4.998   1.733  15.129  0.9290  0.0136  0.1178
 4377TIP3   OH234621   6.660   3.347  15.385  0.5562  0.2191  0.1114
 4377TIP3    H134622   6.682   3.260  15.351  2.2568 -0.1515  1.9237
 4377TIP3    H234623   6.734   3.369  15.442 -1.0633  1.7044  1.7732
 4378TIP3   OH234624   1.779   3.029  15.095 -0.0662  0.5592 -0.0202
 4378TIP3    H134625   1.821   3.114  15.111 -0.5257  0.6137  0.9856
 4378TIP3    H234626   1.803   2.976  15.171  0.3174 -0.2618 -0.7017
 4379TIP3   OH234627   0.594   3.655   0.075 -0.1441 -0.4072 -0.0094
 4379TIP3    H134628   0.501   3.642   0.094  0.1171  0.1155  1.8588
 4379TIP3    H234629   0.618   3.732   0.127  1.5425 -1.0769  0.2573
 4380TIP3   OH234630   5.877   6.092   0.922  0.0733  0.4014  0.4677
 4380TIP3    H134631   5.812   6.155   0.891  0.5101  0.8319  0.4314
 4380TIP3    H234632   5.854   6.078   1.014 -0.8090 -0.3699  0.1492
 4381TIP3   OH234633   3.873   3.079   3.315  0.5322 -0.6094 -1.0051
 4381TIP3    H134634   3.882   3.137   3.391 -1.4128  0.7196 -1.7074
 4381TIP3    H234635   3.906   3.130   3.241 -1.4446 -0.2118 -1.6773
 4382TIP3   OH234636   5.536   3.484  12.143 -0.1700 -0.1917  0.2893
 4382TIP3    H134637   5.447   3.477  12.175  0.1846  1.0254  1.6935
 4382TIP3    H234638   5.541   3.572  12.106  0.7002  0.1632  1.1868
 4383TIP3   OH234639   2.576   2.986  16.351  0.4500 -0.3800  0.0982
 4383TIP3    H134640   2.539   2.907  16.312  0.1540 -0.7797  1.1543
 4383TIP3    H234641   2.529   3.058  16.309 -0.8514 -0.8460  0.6950
 4384TIP3   OH234642   3.978   1.121  13.961  0.0129 -0.2988  0.4793
 4384TIP3    H134643   3.888   1.148  13.942  0.2563 -0.4482 -1.0265
 4384TIP3    H234644   3.971   1.028  13.983 -0.2276 -0.2749  0.5075
 4385TIP3   OH234645   6.646   1.280  11.112  0.2418 -0.2398  0.5961
 4385TIP3    H134646   6.737   1.258  11.130  0.4423 -0.7263 -0.9094
 4385TIP3    H234647   6.649   1.348  11.046 -0.4777 -1.5320 -0.8252
 4386TIP3   OH234648   3.643   2.469  12.021  0.4786  0.1621 -0.0471
 4386TIP3    H134649   3.716   2.531  12.032  0.1367  0.2795  1.7725
 4386TIP3    H234650   3.678   2.385  12.052  0.5321 -0.3206 -1.3259
 4387TIP3   OH234651   2.734   4.628  15.185 -0.0498 -0.2357 -0.0400
 4387TIP3    H134652   2.649   4.649  15.146 -1.6555 -0.7900  2.9110
 4387TIP3    H234653   2.771   4.713  15.207 -1.8451  0.0341  2.4342
 4388TIP3   OH234654   4.907   1.628  13.571  0.1498  0.3145  0.0193
 4388TIP3    H134655   4.889   1.587  13.656 -1.3663 -2.8891 -1.6781
 4388TIP3    H234656   4.825   1.672  13.549 -0.0424 -0.2892 -0.4905
 4389TIP3   OH234657   5.623   3.428  12.814  0.0652 -0.2874 -0.3274
 4389TIP3    H134658   5.644   3.521  12.821  0.9597 -0.5875  1.4194
 4389TIP3    H234659   5.628   3.395  12.904  0.1731 -2.1147 -0.9648
 4390TIP3   OH234660   2.579   2.436   6.092  0.5610  0.3028  0.3417
 4390TIP3    H134661   2.513   2.428   6.023  2.6099  0.3488 -1.7759
 4390TIP3    H234662   2.548   2.507   6.148 -1.1809  0.2744 -0.5336
 4391TIP3   OH234663   2.634   1.695  11.120 -0.6079 -0.7662 -0.2410
 4391TIP3    H134664   2.576   1.659  11.188 -0.9286 -0.1471 -0.1719
 4391TIP3    H234665   2.722   1.681  11.154 -0.7883  0.4677  0.8176
 4392TIP3   OH234666   3.986   2.107  13.649 -0.2199  0.5786  0.4301
 4392TIP3    H134667   4.031   2.070  13.573  1.1727  1.6672  0.6653
 4392TIP3    H234668   4.048   2.172  13.683 -0.4977 -0.4079  2.9544
 4393TIP3   OH234669   0.365   0.252  14.232 -0.5502 -0.3906  0.1976
 4393TIP3    H134670   0.344   0.346  14.237 -0.4720 -0.3233 -0.6323
 4393TIP3    H234671   0.458   0.247  14.251 -0.9788 -0.5557  2.5726
 4394TIP3   OH234672   0.971   6.425  10.457 -0.4628  0.3326  0.0334
 4394TIP3    H134673   0.998   6.508  10.497  1.3458 -0.5891  0.8454
 4394TIP3    H234674   0.906   6.389  10.518 -0.7715  0.8351  0.0097
 4395TIP3   OH234675   6.576   4.888   6.661 -0.2265  0.5601  0.1032
 4395TIP3    H134676   6.643   4.832   6.699  0.1088  1.2187  0.5123
 4395TIP3    H234677   6.619   4.931   6.587 -1.1485 -1.4338 -1.6969
 4396TIP3   OH234678   5.786   4.552  17.098  0.5982 -0.0243 -0.2269
 4396TIP3    H134679   5.692   4.540  17.107  0.6949 -0.8631 -0.2235
 4396TIP3    H234680   5.823   4.468  17.124  1.4433  0.8053  1.4120
 4397TIP3   OH234681   4.879   5.351   1.148 -0.9224 -0.3729  0.0989
 4397TIP3    H134682   4.935   5.313   1.215  1.1519  2.6114  0.2355
 4397TIP3    H234683   4.791   5.320   1.169  0.4007 -4.1702  0.6787
 4398TIP3   OH234684   6.592   4.034  16.505 -0.0182  0.1423 -0.3055
 4398TIP3    H134685   6.566   4.005  16.593 -0.9784  1.1945 -0.2170
 4398TIP3    H234686   6.545   4.117  16.493 -1.3938 -0.8730 -2.5419
 4399TIP3   OH234687   1.748   5.092   5.394  0.0312 -0.4884  0.0097
 4399TIP3    H134688   1.656   5.102   5.370  0.0182  2.0666  0.7531
 4399TIP3    H234689   1.750   5.021   5.457 -1.0473 -2.1294 -1.7146
 4400TIP3   OH234690   5.800   5.072  11.403 -0.0892  0.0878 -0.3416
 4400TIP3    H134691   5.882   5.117  11.425  1.0749 -1.3403 -1.5171
 4400TIP3    H234692   5.822   5.020  11.326 -1.8725 -1.0660 -0.1185
 4401TIP3   OH234693   5.786   3.314   2.742  0.0485  0.2079 -0.0485
 4401TIP3    H134694   5.780   3.389   2.800 -0.1554 -0.0118  0.2183
 4401TIP3    H234695   5.742   3.341   2.661  2.1973  1.3005 -0.9497
 4402TIP3   OH234696   4.493   0.609   2.110 -0.2696  0.1672  0.4879
 4402TIP3    H134697   4.463   0.698   2.095  0.4532  0.4245  0.5019
 4402TIP3    H234698   4.451   0.557   2.041  1.8664  1.0905 -1.6728
 4403TIP3   OH234699   4.222   2.643  14.425 -0.0263 -0.3031 -0.1240
 4403TIP3    H134700   4.224   2.547  14.432 -1.1540 -0.2891  0.8537
 4403TIP3    H234701   4.178   2.671  14.506  0.3708  1.0463 -0.3577
 4404TIP3   OH234702   4.403   2.172  12.767  0.4968 -0.4591  0.3683
 4404TIP3    H134703   4.428   2.206  12.681  1.5687 -1.9521  0.0460
 4404TIP3    H234704   4.309   2.160  12.762  0.6108 -1.0094 -0.7840
 4405TIP3   OH234705   1.557   2.808  16.184  0.2941 -0.5403 -0.2443
 4405TIP3    H134706   1.526   2.762  16.106  0.2174  1.0766 -1.2214
 4405TIP3    H234707   1.650   2.822  16.169  0.8849 -2.5305  1.2052
 4406TIP3   OH234708   2.911   2.281  11.881 -0.6490 -0.3017 -0.2958
 4406TIP3    H134709   2.953   2.206  11.923 -0.1004  0.4490  0.5381
 4406TIP3    H234710   2.832   2.297  11.933  0.7413  1.5040  1.4534
 4407TIP3   OH234711   1.252   4.874  11.954 -0.4351  0.3051 -0.0881
 4407TIP3    H134712   1.299   4.952  11.924 -1.3560  1.0103  0.2674
 4407TIP3    H234713   1.240   4.887  12.048 -0.5023 -0.3253 -0.0008
 4408TIP3   OH234714   2.977   2.942  15.069 -0.2619  0.5782  0.1079
 4408TIP3    H134715   2.984   3.002  14.995 -2.3459  0.7512 -0.0033
 4408TIP3    H234716   2.892   2.899  15.058  0.5720 -1.4146  0.9346
 4409TIP3   OH234717   2.590   4.054   4.442  0.3386 -0.1995 -0.3644
 4409TIP3    H134718   2.531   4.072   4.369 -1.2710 -2.2748  0.3138
 4409TIP3    H234719   2.643   3.980   4.412  0.1866 -0.5751  0.2679
 4410TIP3   OH234720   0.054   0.394   5.211  0.3118  0.2755  0.0596
 4410TIP3    H134721  -0.004   0.318   5.218 -0.9711  1.1204 -0.8473
 4410TIP3    H234722  -0.003   0.465   5.181  2.1205  0.7594 -2.5548
 4411TIP3   OH234723   5.633   0.378  16.752 -0.0030  0.0112  0.6649
 4411TIP3    H134724   5.642   0.380  16.847 -2.2378 -0.9465  0.9741
 4411TIP3    H234725   5.698   0.315  16.723  2.9902  2.6120  1.0997
 4412TIP3   OH234726   3.557   0.576  13.372 -0.0403 -0.5597  0.4902
 4412TIP3    H134727   3.525   0.500  13.323 -0.7198 -1.3901  2.1306
 4412TIP3    H234728   3.634   0.606  13.323  0.1868 -2.2477 -0.2586
 4413TIP3   OH234729   1.832   0.628   5.254  0.3870 -0.1013 -0.2911
 4413TIP3    H134730   1.825   0.666   5.342  0.4587  0.0439 -0.3466
 4413TIP3    H234731   1.742   0.610   5.228  0.4234 -1.0683  0.2084
 4414TIP3   OH234732   4.257   0.665   2.995 -0.3232  0.1849 -0.4531
 4414TIP3    H134733   4.165   0.646   3.014  0.2083 -0.0766  2.2301
 4414TIP3    H234734   4.305   0.627   3.068  2.4941 -3.8791 -3.9118
 4415TIP3   OH234735   6.468   1.679   3.133 -0.1460 -0.1496  0.1237
 4415TIP3    H134736   6.438   1.588   3.127  1.5325 -0.9339  2.0161
 4415TIP3    H234737   6.433   1.710   3.216 -0.4040  0.8169 -0.3409
 4416TIP3   OH234738   0.891   5.937  14.539  0.2775 -0.2741 -0.7562
 4416TIP3    H134739   0.900   5.991  14.461 -1.9109  3.4471  1.2885
 4416TIP3    H234740   0.967   5.959  14.593 -0.0602 -0.0968 -0.3519
 4417TIP3   OH234741   0.228   4.201  11.529  0.0678 -0.4658 -0.0781
 4417TIP3    H134742   0.135   4.181  11.535 -0.2390  1.1911  1.4533
 4417TIP3    H234743   0.240   4.278  11.584  2.4333 -0.9208  0.1659
 4418TIP3   OH234744   4.601   0.959   2.065 -0.1109  0.0380 -0.1180
 4418TIP3    H134745   4.509   0.937   2.081 -0.1846 -0.0621 -0.6708
 4418TIP3    H234746   4.637   0.975   2.152 -0.1205 -2.0140  0.3161
 4419TIP3   OH234747   4.933   1.261   2.791  0.3089  0.5731  0.1290
 4419TIP3    H134748   4.848   1.306   2.793  0.5693  1.0614  2.3481
 4419TIP3    H234749   4.915   1.176   2.831  0.5184 -0.0540 -1.0656
 4420TIP3   OH234750   1.074   6.237   5.795  0.2770 -0.0225  0.1759
 4420TIP3    H134751   1.162   6.241   5.833  0.3339  0.6237 -0.0018
 4420TIP3    H234752   1.018   6.277   5.862  0.1056 -0.4764  0.3085
 4421TIP3   OH234753   1.271   2.377  14.307 -0.2511  0.3637 -1.1313
 4421TIP3    H134754   1.239   2.313  14.242 -1.2848 -0.1267 -0.1712
 4421TIP3    H234755   1.268   2.330  14.390  2.3559  0.5338 -0.8670
 4422TIP3   OH234756   3.633   5.180  12.461 -0.2083 -0.1276  0.2060
 4422TIP3    H134757   3.583   5.147  12.535 -0.0163  0.5652  0.6549
 4422TIP3    H234758   3.634   5.275  12.473  1.9046 -0.1522  0.6898
 4423TIP3   OH234759   5.478   3.508  11.284  0.0951 -0.2369  0.1760
 4423TIP3    H134760   5.546   3.557  11.330  0.9461 -1.5945  0.4279
 4423TIP3    H234761   5.411   3.491  11.350  0.5032 -0.6917  0.4798
 4424TIP3   OH234762   0.255   1.645  14.156 -0.8790 -0.0356  0.3096
 4424TIP3    H134763   0.297   1.577  14.105  0.6769  0.4826  0.8313
 4424TIP3    H234764   0.195   1.688  14.095  0.1431 -0.1092 -0.7837
 4425TIP3   OH234765   0.990   3.596   6.132  0.4718 -0.1264 -0.4880
 4425TIP3    H134766   1.058   3.531   6.117  0.1222 -0.3399 -1.1626
 4425TIP3    H234767   1.034   3.666   6.180  1.0810 -0.4202 -0.6153
 4426TIP3   OH234768   0.919   5.823  15.884 -0.1362 -0.1832 -0.2076
 4426TIP3    H134769   0.845   5.771  15.913 -1.0925  0.9176 -0.5819
 4426TIP3    H234770   0.972   5.764  15.831 -0.8581 -0.9268 -0.1066
 4427TIP3   OH234771   4.560   5.689  11.330 -0.4435  0.0039 -0.1853
 4427TIP3    H134772   4.592   5.774  11.301 -1.1040  0.9932  1.7714
 4427TIP3    H234773   4.547   5.639  11.250  2.0277  0.9608 -1.2689
 4428TIP3   OH234774   3.525   2.818   4.412 -0.4497 -0.0217 -0.4806
 4428TIP3    H134775   3.551   2.745   4.355  1.1949  0.5045 -0.4470
 4428TIP3    H234776   3.532   2.895   4.356 -1.2046  0.2343 -0.2303
 4429TIP3   OH234777   3.138   0.058   5.233  0.0321 -0.4277  0.2371
 4429TIP3    H134778   3.135  -0.004   5.307  2.2516 -0.4000  0.4004
 4429TIP3    H234779   3.067   0.029   5.175 -2.3214  0.0175  2.6706
 4430TIP3   OH234780   6.706   5.092   5.834  0.3707  0.6768 -0.5496
 4430TIP3    H134781   6.696   5.056   5.746 -0.1392 -2.4019  0.6396
 4430TIP3    H234782   6.625   5.141   5.849  0.0608  0.4657 -1.4645
 4431TIP3   OH234783   3.867   1.183   3.210 -0.0572 -0.3471  0.3601
 4431TIP3    H134784   3.907   1.129   3.278 -2.3307 -0.3274  1.8218
 4431TIP3    H234785   3.937   1.240   3.179  1.1036 -0.5102  2.5551
 4432TIP3   OH234786   4.074   2.932   0.004  0.0020 -0.0214  0.2531
 4432TIP3    H134787   4.137   2.947  -0.066 -0.4653 -0.7096 -0.3317
 4432TIP3    H234788   4.071   2.837   0.014 -1.9980 -0.1251 -0.7536
 4433TIP3   OH234789   2.751   3.114   1.648  0.3529 -0.5252  0.1433
 4433TIP3    H134790   2.698   3.041   1.615  0.5713 -0.8093  0.4119
 4433TIP3    H234791   2.767   3.168   1.571 -0.4569 -0.3515  0.0859
 4434TIP3   OH234792   3.984   5.455   2.497 -0.1329  0.2657  0.0016
 4434TIP3    H134793   3.950   5.378   2.543  0.7428  0.4252  0.9603
 4434TIP3    H234794   3.976   5.526   2.560  1.3595  0.4302  0.0316
 4435TIP3   OH234795   6.509   2.399   2.011  0.6973 -1.0189  0.0093
 4435TIP3    H134796   6.529   2.312   2.044  0.0354 -1.0501  0.3434
 4435TIP3    H234797   6.427   2.423   2.055  0.5602 -0.4752 -0.5359
 4436TIP3   OH234798   0.854   3.521  16.832  0.2923  0.1715 -0.2102
 4436TIP3    H134799   0.835   3.439  16.879 -1.9324  0.9141  0.3320
 4436TIP3    H234800   0.847   3.588  16.899  2.1898  0.8565 -0.6350
 4437TIP3   OH234801   2.509   4.045   1.541  0.5386  0.0119  0.2378
 4437TIP3    H134802   2.477   4.000   1.619 -0.1637  0.1122  0.0151
 4437TIP3    H234803   2.439   4.034   1.476  0.7273  0.6826 -0.0914
 4438TIP3   OH234804   4.846   5.227   4.780 -0.4565 -0.6225 -0.3291
 4438TIP3    H134805   4.869   5.181   4.861  0.3689 -0.5209 -0.5011
 4438TIP3    H234806   4.804   5.160   4.726 -1.9471 -0.4514  0.5585
 4439TIP3   OH234807   1.384   4.826  17.148  0.4577 -0.0965  0.2399
 4439TIP3    H134808   1.411   4.735  17.148  0.9330  0.0403 -0.0330
 4439TIP3    H234809   1.291   4.824  17.125  0.2936 -0.5518  0.9235
 4440TIP3   OH234810   4.218   3.212  16.015 -0.5659  0.1332  0.2322
 4440TIP3    H134811   4.279   3.218  15.941  0.7113 -0.4791  1.1895
 4440TIP3    H234812   4.223   3.298  16.057  0.4712 -0.2307  0.9031
 4441TIP3   OH234813   3.031   4.288   3.908 -0.3027 -0.0265 -0.3594
 4441TIP3    H134814   3.003   4.351   3.975 -0.7842 -1.0285  0.4078
 4441TIP3    H234815   2.975   4.212   3.922  0.8938 -0.9905 -0.6471
 4442TIP3   OH234816   4.585   0.942  13.826 -0.0369 -0.1756 -0.3413
 4442TIP3    H134817   4.604   1.014  13.886 -1.8092  1.3164 -1.4778
 4442TIP3    H234818   4.661   0.939  13.767  1.3095 -1.0876  1.3691
 4443TIP3   OH234819   3.839   1.503  14.932 -0.5149  0.5478 -0.1466
 4443TIP3    H134820   3.770   1.448  14.967  0.4020 -0.8140 -0.3973
 4443TIP3    H234821   3.876   1.453  14.859  0.8246  1.1538  0.0711
 4444TIP3   OH234822   1.638   2.042   5.788 -0.0653  1.1546 -0.0268
 4444TIP3    H134823   1.650   1.955   5.750  1.7158  1.8662 -1.2480
 4444TIP3    H234824   1.618   2.026   5.880 -1.4698 -0.5612 -0.5735
 4445TIP3   OH234825   0.259   3.710   2.236 -0.6246 -0.1475 -0.3328
 4445TIP3    H134826   0.313   3.753   2.170  1.0246 -0.1979  0.9132
 4445TIP3    H234827   0.178   3.761   2.239  0.7416  2.1407  0.2025
 4446TIP3   OH234828   0.801   1.323  14.544  0.0930 -0.4885  0.1088
 4446TIP3    H134829   0.889   1.287  14.554  0.1229 -0.4813 -0.1195
 4446TIP3    H234830   0.796   1.391  14.612  0.1148 -0.7679  0.3916
 4447TIP3   OH234831   4.666   6.007  11.942 -0.6951  0.1845  0.2105
 4447TIP3    H134832   4.695   5.931  11.890  0.3600  1.6548 -1.4492
 4447TIP3    H234833   4.715   5.999  12.024  0.6511 -0.0897 -0.5811
 4448TIP3   OH234834   4.377   5.014  11.199 -0.4771  0.7938  0.2342
 4448TIP3    H134835   4.291   5.046  11.174 -0.4164  0.6451 -0.1720
 4448TIP3    H234836   4.375   5.011  11.294 -0.6891  1.4387  0.2548
 4449TIP3   OH234837   0.533   4.059  13.047  0.3205  0.3081 -0.2928
 4449TIP3    H134838   0.481   4.091  12.973  0.7704 -1.3239 -1.3543
 4449TIP3    H234839   0.469   4.045  13.117 -0.4202 -0.0840 -1.0400
 4450TIP3   OH234840   2.078   0.549   0.984  0.1838 -0.0565 -0.0159
 4450TIP3    H134841   2.001   0.588   0.944  0.5371  0.9550  0.2504
 4450TIP3    H234842   2.135   0.528   0.910 -1.0847 -2.5979 -0.3840
 4451TIP3   OH234843   1.232   5.756  11.804  0.0291 -0.3604 -0.1904
 4451TIP3    H134844   1.149   5.754  11.757 -0.9203  0.7261  1.3419
 4451TIP3    H234845   1.213   5.715  11.889  0.5059  1.5522  0.9053
 4452TIP3   OH234846   1.900   0.485  14.956  0.2464 -0.4188 -0.1283
 4452TIP3    H134847   1.849   0.523  14.884 -0.5796 -1.0677  0.0925
 4452TIP3    H234848   1.838   0.426  14.999  1.4628 -1.9829 -0.4430
 4453TIP3   OH234849   0.296   3.416  13.806 -0.5030 -0.1587 -0.2297
 4453TIP3    H134850   0.227   3.358  13.836 -0.7353 -1.5579 -3.0729
 4453TIP3    H234851   0.377   3.369  13.826 -0.4646  0.4731  1.1503
 4454TIP3   OH234852   4.504   1.293  14.710  0.3241 -0.4000  0.5026
 4454TIP3    H134853   4.518   1.355  14.638  0.7277  0.3402  1.1966
 4454TIP3    H234854   4.467   1.215  14.668  1.0138 -0.1705 -0.5669
 4455TIP3   OH234855   2.936   4.135  12.024  0.0779  0.2848  0.2823
 4455TIP3    H134856   2.939   4.044  12.053 -0.9672  0.5496  1.2687
 4455TIP3    H234857   2.968   4.185  12.100  2.5757  0.6391 -0.9093
 4456TIP3   OH234858   4.914   0.973  11.640  0.3702  0.8852  0.7285
 4456TIP3    H134859   4.836   0.923  11.616  0.9596  0.9984 -1.6993
 4456TIP3    H234860   4.901   1.059  11.598  2.3448  0.4626 -0.9026
 4457TIP3   OH234861   3.393   4.317  14.630 -0.3514 -0.4714  0.0817
 4457TIP3    H134862   3.339   4.295  14.706  0.7579 -1.0031  0.7439
 4457TIP3    H234863   3.334   4.365  14.571 -0.6814  1.9142  2.2201
 4458TIP3   OH234864   5.890   5.053  12.083  0.5273  0.0453 -0.3654
 4458TIP3    H134865   5.830   5.105  12.136 -0.2368  0.1807 -1.3415
 4458TIP3    H234866   5.834   4.994  12.033  1.2496 -0.3130 -0.7736
 4459TIP3   OH234867   1.615   3.120  11.941  0.4714 -0.1242  0.6744
 4459TIP3    H134868   1.623   3.051  12.007  1.0916 -0.2896  0.4380
 4459TIP3    H234869   1.638   3.201  11.988  1.3871 -0.3029  0.5591
 4460TIP3   OH234870   0.509   5.902  15.319  0.2024  0.1847  0.1810
 4460TIP3    H134871   0.575   5.934  15.380  1.0804  0.3484 -0.8340
 4460TIP3    H234872   0.558   5.852  15.254 -0.6184  0.5468 -0.7511
 4461TIP3   OH234873   0.240   3.668  17.016  0.6108  0.0460  0.2053
 4461TIP3    H134874   0.333   3.655  17.036  0.7835  1.0629  0.1438
 4461TIP3    H234875   0.228   3.763  17.022 -0.0368  0.0941 -1.4687
 4462TIP3   OH234876   2.197   4.207   0.782 -0.1844  0.1416  0.2460
 4462TIP3    H134877   2.234   4.235   0.698  0.8066 -0.7291  0.3812
 4462TIP3    H234878   2.172   4.289   0.825 -1.2554  0.5834 -1.1193
 4463TIP3   OH234879   2.970   4.351  16.392 -0.5850  0.1716 -0.1257
 4463TIP3    H134880   3.048   4.295  16.395 -0.7747 -0.1580 -1.0922
 4463TIP3    H234881   3.005   4.439  16.379 -0.2165  0.4986  2.5917
 4464TIP3   OH234882   3.543   4.860  11.528 -0.2970  0.1365 -0.2678
 4464TIP3    H134883   3.544   4.867  11.623 -0.8529  1.2190 -0.3274
 4464TIP3    H234884   3.554   4.950  11.497  0.7862 -0.3076 -1.2421
 4465TIP3   OH234885   3.647   6.231   4.479  0.0528 -0.0341 -0.3939
 4465TIP3    H134886   3.693   6.225   4.396  0.1335  0.6761 -0.4056
 4465TIP3    H234887   3.573   6.289   4.462  0.6982  1.0278  0.2968
 4466TIP3   OH234888   4.042   4.822   4.259  0.1749 -0.2257 -0.2116
 4466TIP3    H134889   4.107   4.751   4.257  0.4314 -0.0134  0.2557
 4466TIP3    H234890   4.086   4.892   4.307  0.3500  0.6722 -1.6388
 4467TIP3   OH234891   2.344   5.689   3.877  0.4946  0.8060 -0.2651
 4467TIP3    H134892   2.394   5.705   3.957  0.4096  0.8957 -0.2310
 4467TIP3    H234893   2.264   5.645   3.907  1.1429 -0.5541 -0.4386
 4468TIP3   OH234894   4.920   5.548   0.566  0.1578  0.6434  0.3064
 4468TIP3    H134895   4.922   5.504   0.650 -0.6929  0.3459  0.1745
 4468TIP3    H234896   4.871   5.490   0.508 -1.6367  2.0556  0.3246
 4469TIP3   OH234897   6.584   6.583  14.580  0.0094 -0.1374  0.5058
 4469TIP3    H134898   6.534   6.503  14.595  0.3980 -0.6078 -0.6292
 4469TIP3    H234899   6.536   6.650  14.629 -2.3424 -0.3555 -1.2902
 4470TIP3   OH234900   5.620   1.154  11.251 -0.6106  0.2836 -0.6051
 4470TIP3    H134901   5.714   1.168  11.240  0.0473 -2.2156  1.0021
 4470TIP3    H234902   5.591   1.115  11.168 -0.3128  1.3687 -1.2228
 4471TIP3   OH234903   2.513   2.399  14.713 -0.0538 -0.2493 -0.4327
 4471TIP3    H134904   2.519   2.400  14.808 -0.0191  0.4299 -0.4359
 4471TIP3    H234905   2.425   2.366  14.695 -0.4944  0.7092 -0.1293
 4472TIP3   OH234906   1.703   1.416  14.923 -0.2726  0.0719  0.0243
 4472TIP3    H134907   1.694   1.493  14.867 -1.8231 -0.6115 -0.7382
 4472TIP3    H234908   1.628   1.420  14.982  0.0362 -0.4697  0.4646
 4473TIP3   OH234909   4.720   5.364  14.278  0.0533  0.4089 -0.1884
 4473TIP3    H134910   4.678   5.431  14.332 -1.7889 -1.2030  0.5110
 4473TIP3    H234911   4.682   5.375  14.191  0.2137  0.6566 -0.2270
 4474TIP3   OH234912   3.992   0.552  10.983  0.4228 -0.0567  0.3097
 4474TIP3    H134913   4.042   0.539  10.902  0.9331  0.1795  0.5853
 4474TIP3    H234914   4.057   0.583  11.046 -0.2306  1.0814  0.4419
 4475TIP3   OH234915   5.094   2.380   5.415 -0.0083 -0.2856  0.6127
 4475TIP3    H134916   5.023   2.390   5.352  0.7857 -0.7836 -0.3962
 4475TIP3    H234917   5.118   2.469   5.439 -1.1010 -0.1128  1.1436
 4476TIP3   OH234918   4.191   3.646   4.381  0.4274  0.3073  0.0106
 4476TIP3    H134919   4.208   3.570   4.436 -0.4100 -0.8563 -1.2843
 4476TIP3    H234920   4.111   3.685   4.418 -1.2532 -1.5762 -1.4178
 4477TIP3   OH234921   0.625   2.421  10.498 -0.3225  0.5211 -0.0639
 4477TIP3    H134922   0.572   2.377  10.432 -1.9077  1.8033  0.2784
 4477TIP3    H234923   0.705   2.447  10.452 -0.3959 -0.5924 -0.8592
 4478TIP3   OH234924   4.916   3.505  11.054 -0.0581  0.0216 -0.3228
 4478TIP3    H134925   4.892   3.532  10.965 -0.0757 -2.3450 -1.1127
 4478TIP3    H234926   4.858   3.431  11.073  1.1917 -0.6824  0.9448
 4479TIP3   OH234927   6.595   5.689  12.739  0.2881  0.4925  0.5626
 4479TIP3    H134928   6.615   5.724  12.653  0.7428  2.6033  1.4605
 4479TIP3    H234929   6.573   5.597  12.724 -0.1358  0.9338 -1.8424
 4480TIP3   OH234930   5.230   3.994   5.545 -0.2728  0.2073 -0.1377
 4480TIP3    H134931   5.154   4.021   5.596 -1.3270  0.0225 -1.5749
 4480TIP3    H234932   5.278   3.935   5.603 -0.8455  0.8498  1.0288
 4481TIP3   OH234933   2.704   4.970  15.718  0.1226  0.1897  0.5080
 4481TIP3    H134934   2.794   4.966  15.687 -0.4511  0.0868 -1.2203
 4481TIP3    H234935   2.703   5.043  15.780  1.2738  0.4956  0.1777
 4482TIP3   OH234936   6.339   6.613   1.855  0.2124  0.6653  0.3710
 4482TIP3    H134937   6.251   6.609   1.818 -0.4935 -1.0163  2.0658
 4482TIP3    H234938   6.327   6.659   1.938  1.3353  2.2173 -0.2764
 4483TIP3   OH234939   3.715   2.334   0.873 -0.2488  0.3448  1.0524
 4483TIP3    H134940   3.653   2.318   0.944 -0.6550  1.3459  0.9473
 4483TIP3    H234941   3.799   2.347   0.917 -0.2586 -0.2411  1.2533
 4484TIP3   OH234942   4.515   5.411   2.930 -0.4716 -0.3398 -0.2528
 4484TIP3    H134943   4.515   5.344   2.863  0.8174  0.8595 -1.5316
 4484TIP3    H234944   4.478   5.488   2.887 -1.8759 -0.1834  1.1592
 4485TIP3   OH234945   2.198   4.885  12.923  0.0665  0.5247 -0.2311
 4485TIP3    H134946   2.145   4.953  12.879  0.4733  0.4813 -0.8022
 4485TIP3    H234947   2.139   4.848  12.989 -1.1383 -0.5092 -1.7884
 4486TIP3   OH234948   3.477   3.832   5.905 -0.1783 -0.3421  0.1175
 4486TIP3    H134949   3.529   3.907   5.933 -0.7244  0.7055 -1.5172
 4486TIP3    H234950   3.423   3.810   5.981  0.7415  0.2395  0.9573
 4487TIP3   OH234951   3.839   0.327   0.343  0.4300  0.5559 -0.0044
 4487TIP3    H134952   3.861   0.243   0.384  2.1481  0.8442 -0.2935
 4487TIP3    H234953   3.921   0.375   0.339 -0.2308  1.6606 -1.2368
 4488TIP3   OH234954   3.556   1.162   4.723  0.2372  0.0604  0.5409
 4488TIP3    H134955   3.548   1.253   4.696 -0.9170 -0.0766  0.3812
 4488TIP3    H234956   3.539   1.111   4.644  0.7349 -0.3098  0.6588
 4489TIP3   OH234957   4.260   2.289   1.039 -0.3630  0.3750 -0.1585
 4489TIP3    H134958   4.195   2.336   1.091 -0.0905 -0.1235  0.6726
 4489TIP3    H234959   4.338   2.344   1.042 -0.6414  0.8134 -0.8729
 4490TIP3   OH234960   2.961   6.329  14.655  0.4031  0.0134  0.0325
 4490TIP3    H134961   2.999   6.409  14.691 -0.5980 -0.2412  1.7977
 4490TIP3    H234962   2.946   6.273  14.731 -0.8036 -1.0332 -0.9134
 4491TIP3   OH234963   6.640   2.849  11.338  0.3430  0.2533  0.1807
 4491TIP3    H134964   6.568   2.833  11.400  0.7013 -2.1144  0.0959
 4491TIP3    H234965   6.637   2.943  11.321 -2.7607  0.2658  0.1615
 4492TIP3   OH234966   0.516   0.245   3.800  0.0627  0.0469  0.1075
 4492TIP3    H134967   0.460   0.305   3.849 -0.0523 -0.8403  1.0886
 4492TIP3    H234968   0.594   0.235   3.854 -0.0219 -0.8676  0.0760
 4493TIP3   OH234969   3.457   6.298  13.506  0.3284  0.1263 -0.1270
 4493TIP3    H134970   3.456   6.386  13.469 -0.0209  0.1676 -0.0199
 4493TIP3    H234971   3.550   6.279  13.520  0.3788  0.6685  0.3180
 4494TIP3   OH234972   4.599   4.019  10.893  0.5719 -0.5188  0.2630
 4494TIP3    H134973   4.685   3.978  10.886 -0.0411 -1.8881  0.4729
 4494TIP3    H234974   4.571   4.033  10.803  0.2753 -1.7016  0.1588
 4495TIP3   OH234975   3.842   1.065   5.488 -0.5606  0.6506  0.1857
 4495TIP3    H134976   3.804   1.150   5.469 -0.7906  0.9005  1.6951
 4495TIP3    H234977   3.770   1.003   5.479 -0.4226  0.6151 -0.7808
 4496TIP3   OH234978   1.737   6.145  16.469 -0.1549 -0.4273  0.1282
 4496TIP3    H134979   1.762   6.213  16.406 -0.0920  1.3135  1.9477
 4496TIP3    H234980   1.674   6.091  16.421 -0.8093  1.3703 -1.1776
 4497TIP3   OH234981   6.597   3.239  15.042  0.6045 -1.1200  0.2099
 4497TIP3    H134982   6.624   3.189  15.119 -0.6621  0.2664  1.6454
 4497TIP3    H234983   6.505   3.261  15.060  1.2754  2.3242  0.0851
 4498TIP3   OH234984   3.885   2.130   2.727 -1.1409  0.3255  0.1639
 4498TIP3    H134985   3.929   2.177   2.656 -0.7478 -0.0330  0.1668
 4498TIP3    H234986   3.803   2.098   2.688  0.1244 -1.8853 -0.8377
 4499TIP3   OH234987   0.567   1.023   4.044  0.1866 -0.0513  0.4431
 4499TIP3    H134988   0.497   1.014   3.980 -0.0955 -0.5410  0.8143
 4499TIP3    H234989   0.529   0.992   4.126  1.0741 -1.0957  0.4825
 4500TIP3   OH234990   1.234   5.562   4.108  0.2071  0.0580 -0.3914
 4500TIP3    H134991   1.193   5.649   4.098 -0.0468 -0.0330 -0.1636
 4500TIP3    H234992   1.190   5.524   4.184  1.0153  0.1208  0.1166
 4501TIP3   OH234993   4.903   5.406  14.555  0.4994 -0.6853  0.0379
 4501TIP3    H134994   4.851   5.342  14.604 -2.2271  1.3814  0.0986
 4501TIP3    H234995   4.940   5.463  14.622  0.1452 -0.2492 -0.1349
 4502TIP3   OH234996   6.761   0.506   2.930  0.5374 -0.0141  0.4769
 4502TIP3    H134997   6.707   0.576   2.894 -0.4553 -0.7728  0.4405
 4502TIP3    H234998   6.804   0.467   2.854  2.3016  1.4819  0.6320
 4503TIP3   OH234999   3.617   4.870   2.858 -0.4480 -0.2873 -0.8664
 4503TIP3    H135000   3.575   4.785   2.846 -0.5033 -0.1040 -2.1179
 4503TIP3    H235001   3.613   4.911   2.771  1.0948  0.2890 -0.7007
 4504TIP3   OH235002   2.302   3.071   3.716 -0.1399  0.6760  0.0418
 4504TIP3    H135003   2.353   3.070   3.635 -0.0949 -1.6983  0.0289
 4504TIP3    H235004   2.213   3.091   3.689  0.0747  0.9965 -0.4362
 4505TIP3   OH235005   0.775   4.227   5.385  0.0255  0.0561  0.6199
 4505TIP3    H135006   0.847   4.288   5.371  0.7846 -0.4987  1.9045
 4505TIP3    H235007   0.775   4.212   5.480 -0.5424 -1.4485  0.4033
 4506TIP3   OH235008   5.719   5.377   1.801  0.3115 -0.3511 -0.1037
 4506TIP3    H135009   5.683   5.465   1.791 -2.1612 -1.0605  1.4128
 4506TIP3    H235010   5.791   5.387   1.863  0.1963  0.6326 -0.1102
 4507TIP3   OH235011   2.137   2.141   2.516  0.5896  0.1038 -0.5730
 4507TIP3    H135012   2.139   2.052   2.554  0.0158  1.0777  1.9540
 4507TIP3    H235013   2.219   2.181   2.545 -0.5704  1.3976  1.1223
 4508TIP3   OH235014   4.326   3.980   0.020  0.0992 -0.0897  0.5730
 4508TIP3    H135015   4.380   4.048   0.059  0.5453  0.4533 -0.9071
 4508TIP3    H235016   4.248   3.977   0.075  0.5918  0.7960  1.3513
 4509TIP3   OH235017   1.904   5.207  14.816  1.1688 -0.8527  0.3016
 4509TIP3    H135018   1.929   5.295  14.841 -0.3319 -0.6740  1.3596
 4509TIP3    H235019   1.837   5.219  14.749  1.3030 -1.1910  0.1066
 4510TIP3   OH235020   3.011   5.968   2.392 -0.2102 -0.5150 -0.1876
 4510TIP3    H135021   2.994   6.055   2.356  0.4495 -0.5358 -0.5763
 4510TIP3    H235022   3.037   5.983   2.483 -1.0711 -0.3945  0.0485
 4511TIP3   OH235023   2.099   1.689   3.433  0.0178 -0.2726  0.1343
 4511TIP3    H135024   2.087   1.594   3.429  0.2684 -0.2657 -1.5299
 4511TIP3    H235025   2.012   1.726   3.422 -0.4334 -0.2616  2.9588
 4512TIP3   OH235026   6.129   1.548  11.910 -0.3930  0.5254 -0.5198
 4512TIP3    H135027   6.210   1.513  11.945  0.1763 -0.1146 -2.3357
 4512TIP3    H235028   6.062   1.522  11.973  0.4032 -1.4892 -0.4247
 4513TIP3   OH235029   1.964   1.684   1.086 -0.3568  0.0510 -0.2191
 4513TIP3    H135030   1.998   1.609   1.038  0.8793  0.4855 -0.0460
 4513TIP3    H235031   1.869   1.676   1.078 -0.2135 -0.3697 -2.0072
 4514TIP3   OH235032   0.149   2.380  15.557 -0.0250  0.3116  0.0673
 4514TIP3    H135033   0.211   2.329  15.505  0.8991  0.5997  0.8577
 4514TIP3    H235034   0.063   2.355  15.523  0.5228  0.0635 -1.2018
 4515TIP3   OH235035   1.245   6.587  13.184  0.2661 -0.0744 -0.5655
 4515TIP3    H135036   1.212   6.675  13.168 -0.8169 -0.3606  0.0620
 4515TIP3    H235037   1.284   6.561  13.100  0.8785  1.1060 -0.6662
 4516TIP3   OH235038   3.693   3.790  15.559  0.9106 -0.1338  0.6836
 4516TIP3    H135039   3.664   3.838  15.637  1.2730  0.2153  0.6009
 4516TIP3    H235040   3.626   3.722  15.548 -0.7581  1.5659 -0.3838
 4517TIP3   OH235041   0.876   6.022   1.731  0.2242 -0.0966 -0.3160
 4517TIP3    H135042   0.802   5.962   1.739 -0.3497  0.7382  0.9277
 4517TIP3    H235043   0.953   5.966   1.729 -0.3980 -0.9495 -1.0094
 4518TIP3   OH235044   4.064   1.598  15.131  0.5879 -0.6654  0.4676
 4518TIP3    H135045   3.992   1.575  15.072 -1.0294 -1.4402  2.6266
 4518TIP3    H235046   4.141   1.603  15.073 -1.2137  0.7182 -2.0220
 4519TIP3   OH235047   0.482   1.816   4.281 -0.3748  0.1196 -0.0479
 4519TIP3    H135048   0.466   1.797   4.373 -2.0604 -0.9962 -0.5247
 4519TIP3    H235049   0.531   1.741   4.248  1.0673  0.9505  0.1158
 4520TIP3   OH235050   4.408   3.173   6.190 -0.5162  0.0856 -0.2167
 4520TIP3    H135051   4.372   3.088   6.165 -0.2419 -0.3990  0.9618
 4520TIP3    H235052   4.414   3.222   6.108 -0.8022 -0.9832 -0.8928
 4521TIP3   OH235053   2.101   1.434   3.550 -0.1517  0.5177 -0.3223
 4521TIP3    H135054   2.190   1.400   3.537 -0.2335  0.5085 -0.8521
 4521TIP3    H235055   2.101   1.463   3.641 -0.2783 -1.5129  0.3868
 4522TIP3   OH235056   0.312   4.846   2.992 -0.4277  0.1504 -0.1063
 4522TIP3    H135057   0.257   4.924   2.999  0.8499  1.1198 -0.4439
 4522TIP3    H235058   0.298   4.799   3.074 -2.7464 -0.3292 -0.7270
 4523TIP3   OH235059   1.209   3.385  12.195  0.2110  0.1910  0.1153
 4523TIP3    H135060   1.255   3.441  12.132  0.6440  0.7027  0.8650
 4523TIP3    H235061   1.189   3.444  12.269 -1.1728 -0.1497  0.0439
 4524TIP3   OH235062   2.040   5.798   3.646  0.0003  0.4084  0.5084
 4524TIP3    H135063   2.102   5.725   3.637 -0.7393 -0.7006  3.1760
 4524TIP3    H235064   2.068   5.843   3.726  0.0385  2.7299 -0.7336
 4525TIP3   OH235065   5.382   1.446  14.231  0.2705  1.0745 -0.0599
 4525TIP3    H135066   5.333   1.390  14.171  0.3158  0.1716  0.7121
 4525TIP3    H235067   5.382   1.532  14.190  0.1289  0.5241 -1.2464
 4526TIP3   OH235068   5.978   1.403   3.785  0.7961  0.5454  0.0278
 4526TIP3    H135069   6.018   1.439   3.864  1.4080  0.0750 -0.0608
 4526TIP3    H235070   6.030   1.325   3.765  0.7865  0.7771 -0.9626
 4527TIP3   OH235071   2.842   4.358   4.619 -0.0149  0.0547 -0.0498
 4527TIP3    H135072   2.794   4.318   4.546  0.1617 -1.0434  0.4128
 4527TIP3    H235073   2.786   4.431   4.648  0.4685  1.2900 -2.0262
 4528TIP3   OH235074   0.409   5.488  14.404 -0.1300  0.4702 -0.5363
 4528TIP3    H135075   0.334   5.445  14.444 -0.0218  1.4089  0.7211
 4528TIP3    H235076   0.456   5.528  14.477  1.7616 -0.3192 -1.2303
 4529TIP3   OH235077   2.171   3.901   0.085  0.4252  0.1995  0.1549
 4529TIP3    H135078   2.150   3.953   0.007 -0.2130  0.7891  0.7088
 4529TIP3    H235079   2.183   3.812   0.052 -2.5110 -0.1210 -0.2929
 4530TIP3   OH235080   0.455   6.402  16.907  0.0242 -0.3160  0.4940
 4530TIP3    H135081   0.499   6.469  16.958  0.2886 -1.5281  1.9135
 4530TIP3    H235082   0.367   6.438  16.891  0.7008  1.0723 -0.2625
 4531TIP3   OH235083   4.170   4.778  14.460  0.0017 -0.0714  0.0503
 4531TIP3    H135084   4.220   4.720  14.518 -0.7878 -2.2064 -1.2714
 4531TIP3    H235085   4.215   4.771  14.375 -0.4071  0.8902 -0.2566
 4532TIP3   OH235086   3.183   4.522  16.251 -0.1013 -0.5368  0.0166
 4532TIP3    H135087   3.158   4.523  16.158 -1.1703  0.1093  0.2900
 4532TIP3    H235088   3.221   4.435  16.265 -0.5691 -0.8929 -0.8594
 4533TIP3   OH235089   6.766   0.831   2.954 -0.1773  0.4980  0.3977
 4533TIP3    H135090   6.857   0.804   2.970 -0.8889 -3.0102 -0.6097
 4533TIP3    H235091   6.761   0.842   2.860 -0.3803  2.6943  0.6311
 4534TIP3   OH235092   0.794   1.544   2.814  0.3216  0.1655 -0.2989
 4534TIP3    H135093   0.831   1.632   2.822 -0.0889  0.5196 -1.8402
 4534TIP3    H235094   0.868   1.485   2.829  0.2046  0.6411  2.8718
 4535TIP3   OH235095   4.568   0.717  15.489  0.0801 -0.1162 -0.7647
 4535TIP3    H135096   4.588   0.686  15.401 -2.6108  2.3930 -2.4368
 4535TIP3    H235097   4.634   0.783  15.508  0.8887 -0.9252 -0.6947
 4536TIP3   OH235098   6.555   5.392  16.658 -0.0962 -0.1467 -0.2516
 4536TIP3    H135099   6.509   5.417  16.737 -0.7005 -4.3983  1.0202
 4536TIP3    H235100   6.648   5.398  16.681 -0.2569 -2.7558  1.4926
 4537TIP3   OH235101   0.233   3.294   4.246 -0.5194 -0.2541 -0.2872
 4537TIP3    H135102   0.284   3.375   4.252 -0.8700 -0.1527  2.5092
 4537TIP3    H235103   0.299   3.225   4.236 -0.0722  0.1636 -0.2286
 4538TIP3   OH235104   5.771   6.538  16.342 -0.2495 -0.1253 -0.1956
 4538TIP3    H135105   5.751   6.631  16.331 -1.9596 -0.6264 -1.6483
 4538TIP3    H235106   5.810   6.532  16.429 -1.0608  1.8048  0.3382
 4539TIP3   OH235107   0.392   1.884   4.021  0.0081 -0.1566  0.2579
 4539TIP3    H135108   0.475   1.890   3.975 -0.6641  0.8882 -0.8756
 4539TIP3    H235109   0.416   1.875   4.113  1.3714 -1.1817 -0.1770
 4540TIP3   OH235110   5.071   4.586  14.246  0.6552 -0.4879  0.3310
 4540TIP3    H135111   5.117   4.600  14.329  2.6752 -0.0142 -0.8050
 4540TIP3    H235112   5.051   4.492  14.246  2.7599 -0.9842  0.3625
 4541TIP3   OH235113   2.937   0.563   1.147  0.1210 -0.2507  0.0577
 4541TIP3    H135114   2.856   0.541   1.101 -0.2007  1.9721 -0.5673
 4541TIP3    H235115   3.001   0.579   1.077  0.1041  1.4441  0.4002
 4542TIP3   OH235116   2.625   4.664  14.738  0.2172  0.0872  0.1753
 4542TIP3    H135117   2.632   4.622  14.825 -0.2107 -0.9570 -0.2696
 4542TIP3    H235118   2.692   4.621  14.686  0.1549  0.3735 -0.1384
 4543TIP3   OH235119   1.240   6.014   3.729  0.5080  0.5038 -0.0446
 4543TIP3    H135120   1.271   6.063   3.805  0.3221  0.9134 -0.2288
 4543TIP3    H235121   1.292   5.934   3.729  1.3623  1.0515 -0.1860
 4544TIP3   OH235122   0.907   0.895  11.459 -0.0705 -0.6934 -0.3766
 4544TIP3    H135123   0.911   0.872  11.552  1.0397  2.8896  0.6472
 4544TIP3    H235124   0.822   0.864  11.430 -1.0402 -0.7405  2.2292
 4545TIP3   OH235125   2.106   0.768  12.316  0.1198 -0.3245 -0.7109
 4545TIP3    H135126   2.113   0.861  12.338  2.2412 -1.0308  2.0885
 4545TIP3    H235127   2.129   0.764  12.223  3.7021  1.6627 -0.0875
 4546TIP3   OH235128   0.319   0.845   4.785 -0.6704  0.0747 -0.0476
 4546TIP3    H135129   0.269   0.764   4.792  0.3791 -0.5291  0.7221
 4546TIP3    H235130   0.367   0.851   4.867  0.2221  0.8277 -0.6043
 4547TIP3   OH235131   3.409   2.704   0.103 -0.3470  0.0173  0.2549
 4547TIP3    H135132   3.440   2.695   0.013  0.1982 -1.1016  0.5350
 4547TIP3    H235133   3.361   2.623   0.120 -2.1559  1.0616  0.3487
 4548TIP3   OH235134   1.995   0.626  11.772 -0.0458 -0.6210 -0.3852
 4548TIP3    H135135   1.943   0.547  11.786  0.5188 -0.9494 -0.1309
 4548TIP3    H235136   1.980   0.680  11.850  0.0984 -0.7725 -0.2531
 4549TIP3   OH235137   3.739   0.460   2.305  0.0311  0.2014 -0.2847
 4549TIP3    H135138   3.751   0.552   2.326 -1.1979  0.3444 -0.1238
 4549TIP3    H235139   3.672   0.430   2.366  0.9285 -0.9952  0.1585
 4550TIP3   OH235140   1.324   3.967  17.007 -0.4053 -0.1321 -0.5129
 4550TIP3    H135141   1.243   3.918  17.025 -0.5754 -0.3481 -1.7891
 4550TIP3    H235142   1.394   3.909  17.038 -0.7391  0.4768  1.5382
 4551TIP3   OH235143   4.697   3.908  14.210  0.1617  0.5748  0.3532
 4551TIP3    H135144   4.778   3.867  14.241  0.2515 -0.1672 -0.8307
 4551TIP3    H235145   4.688   3.879  14.119 -0.0222  2.7833 -0.4042
 4552TIP3   OH235146   3.899   5.120   0.312  0.2560 -0.3575 -0.0012
 4552TIP3    H135147   3.879   5.175   0.388  1.1560  1.1580 -0.8030
 4552TIP3    H235148   3.977   5.070   0.338 -1.2507 -2.2587  1.1697
 4553TIP3   OH235149   6.650   3.590  11.344  0.0186 -0.1625  0.0434
 4553TIP3    H135150   6.574   3.561  11.395  0.8675  0.1187  1.5398
 4553TIP3    H235151   6.661   3.524  11.276 -1.8724  0.0706 -0.5450
 4554TIP3   OH235152   0.382   4.617  11.672 -0.0932  0.5710 -0.5696
 4554TIP3    H135153   0.321   4.565  11.723 -0.6091  0.6444 -1.1082
 4554TIP3    H235154   0.336   4.699  11.655  0.7239  1.2406  0.3015
 4555TIP3   OH235155   5.309   1.865  15.842 -0.2430  0.0653 -0.2503
 4555TIP3    H135156   5.343   1.790  15.794 -2.0722 -0.9630 -0.0567
 4555TIP3    H235157   5.361   1.870  15.922  0.1005 -0.8053 -0.4200
 4556TIP3   OH235158   3.649   1.814  15.587 -0.4018 -0.0875 -0.7576
 4556TIP3    H135159   3.631   1.898  15.545  0.9043 -0.6876 -2.6693
 4556TIP3    H235160   3.729   1.783  15.544  0.7723 -1.0078  1.9004
 4557TIP3   OH235161   3.142   5.651   0.672 -0.5802  0.1256 -0.0311
 4557TIP3    H135162   3.054   5.656   0.709  0.8909  0.4360  3.9070
 4557TIP3    H235163   3.180   5.736   0.690  1.1076 -0.6041  0.0020
 4558TIP3   OH235164   3.992   0.688   4.027  0.3255 -0.6583 -0.0107
 4558TIP3    H135165   4.077   0.731   4.011 -0.1474  0.0388 -0.7682
 4558TIP3    H235166   3.928   0.756   4.007 -0.4383 -1.5283 -0.5621
 4559TIP3   OH235167   4.284   5.618  17.043 -0.1170 -0.0296 -0.0958
 4559TIP3    H135168   4.277   5.595  16.951  0.1057  0.3063 -0.1958
 4559TIP3    H235169   4.366   5.578  17.072  0.1741  0.4619 -0.2229
 4560TIP3   OH235170   0.940   2.718  12.211  0.1800 -0.2647  1.1572
 4560TIP3    H135171   0.847   2.698  12.194  0.4486  0.2824 -1.3808
 4560TIP3    H235172   0.939   2.807  12.245 -0.1607  0.4693 -0.6586
 4561TIP3   OH235173   1.983   3.713   2.112  0.0053  0.0106 -0.2498
 4561TIP3    H135174   1.975   3.756   2.197 -0.6863 -0.5500 -0.0175
 4561TIP3    H235175   1.897   3.671   2.099  1.0329 -2.4303  0.1607
 4562TIP3   OH235176   4.390   5.777  13.282  0.4284 -0.2776 -0.2560
 4562TIP3    H135177   4.382   5.683  13.263 -0.6029 -0.3151  0.3009
 4562TIP3    H235178   4.314   5.797  13.336  0.9508  0.7654  0.1135
 4563TIP3   OH235179   3.774   0.221   1.815 -0.0177  0.2452 -0.0295
 4563TIP3    H135180   3.837   0.292   1.802  0.9205 -0.3928  0.8924
 4563TIP3    H235181   3.749   0.195   1.726 -1.1909  2.3921 -0.4015
 4564TIP3   OH235182   4.398   1.339   2.047 -0.2165  0.2475 -0.2414
 4564TIP3    H135183   4.373   1.425   2.080  1.4062 -0.1005  2.1686
 4564TIP3    H235184   4.350   1.277   2.102  0.2839 -0.3810 -0.4980
 4565TIP3   OH235185   6.355   3.908   5.785 -0.0187 -0.1147  0.5131
 4565TIP3    H135186   6.346   3.813   5.792  2.2336 -0.6261 -1.9108
 4565TIP3    H235187   6.304   3.931   5.707  0.1678  0.5328  0.5772
 4566TIP3   OH235188   6.378   0.573   3.366 -0.8967  0.0137 -0.1560
 4566TIP3    H135189   6.468   0.572   3.398 -1.4894 -0.8511  1.5979
 4566TIP3    H235190   6.382   0.527   3.282  0.2497 -0.3497  0.0782
 4567TIP3   OH235191   5.967   5.463   1.938 -0.1523 -0.3283 -0.4821
 4567TIP3    H135192   6.038   5.463   1.873 -1.5841  0.3840 -2.1502
 4567TIP3    H235193   6.001   5.514   2.011  0.8529  0.5135 -1.5010
 4568TIP3   OH235194   6.619   4.254  11.281 -0.2710 -0.4148  0.5649
 4568TIP3    H135195   6.553   4.290  11.340 -1.4408  0.0414 -0.9728
 4568TIP3    H235196   6.584   4.169  11.254 -0.1746 -0.2228 -0.1783
 4569TIP3   OH235197   0.319   3.797   2.503  0.3451 -0.0843  0.6518
 4569TIP3    H135198   0.273   3.881   2.508  1.8068  0.7591  0.5852
 4569TIP3    H235199   0.295   3.762   2.418 -0.5486  0.0940  0.8184
 4570TIP3   OH235200   5.879   3.451  16.502  0.1645  0.2891  0.1314
 4570TIP3    H135201   5.845   3.541  16.496 -0.8942 -0.1667 -1.3469
 4570TIP3    H235202   5.938   3.453  16.577  2.2098  2.8768 -1.3312
 4571TIP3   OH235203   4.005   4.320   3.892  0.1412  0.1615  0.2201
 4571TIP3    H135204   3.978   4.279   3.810  2.6320  0.5466 -0.8924
 4571TIP3    H235205   4.014   4.413   3.871  1.8370  0.1178  0.5688
 4572TIP3   OH235206   4.776   3.613   5.327 -0.2096 -0.3945  0.1334
 4572TIP3    H135207   4.780   3.606   5.232  1.2254  4.0522 -0.3943
 4572TIP3    H235208   4.862   3.585   5.357  0.7065  1.6409 -0.4052
 4573TIP3   OH235209   6.189   4.051   3.938 -0.3540 -0.3606  0.1753
 4573TIP3    H135210   6.126   4.056   3.865  0.7142  3.1630 -0.6664
 4573TIP3    H235211   6.275   4.052   3.896  0.3256 -2.0285  1.4260
 4574TIP3   OH235212   3.883   6.353   6.109  0.2775  0.4502 -0.1572
 4574TIP3    H135213   3.896   6.436   6.157 -0.5732  0.1358  0.6510
 4574TIP3    H235214   3.788   6.341   6.108  0.4256 -1.6296  1.7480
 4575TIP3   OH235215   4.440   5.137  15.778 -0.1899 -0.2646  0.9106
 4575TIP3    H135216   4.428   5.056  15.827 -0.8905 -1.8862 -1.7753
 4575TIP3    H235217   4.352   5.173  15.770 -0.2407 -0.5875 -0.0532
 4576TIP3   OH235218   6.415   2.666  16.121  0.0073  0.1402  0.4625
 4576TIP3    H135219   6.450   2.581  16.094 -1.0534 -0.1088 -0.1808
 4576TIP3    H235220   6.487   2.707  16.169  1.4636 -0.0629 -1.4006
 4577TIP3   OH235221   1.671   1.868  13.693  0.4115  0.5074 -0.0096
 4577TIP3    H135222   1.759   1.877  13.655  1.2869  0.6475  1.9331
 4577TIP3    H235223   1.626   1.949  13.668  1.7408  1.6553  1.1180
 4578TIP3   OH235224   3.353   0.825  11.954  0.2329 -0.3143 -0.0330
 4578TIP3    H135225   3.432   0.773  11.935 -0.7588 -1.3218 -1.7193
 4578TIP3    H235226   3.287   0.789  11.895 -1.1025  1.4915  0.2864
 4579TIP3   OH235227   5.250   2.490   3.136  0.2506  0.5930  0.1563
 4579TIP3    H135228   5.254   2.476   3.231  1.4731 -0.8233 -0.0695
 4579TIP3    H235229   5.312   2.427   3.100 -1.4119 -0.0773 -1.7143
 4580TIP3   OH235230   0.866   4.456   1.930 -0.0373  0.2133 -0.3883
 4580TIP3    H135231   0.812   4.532   1.910  0.3734  0.4203 -0.7207
 4580TIP3    H235232   0.941   4.492   1.977 -0.3941 -0.1261  0.4764
 4581TIP3   OH235233   3.394   4.041  11.696  0.1262  0.1779 -0.4976
 4581TIP3    H135234   3.319   4.078  11.741 -0.7930 -2.0046 -0.1540
 4581TIP3    H235235   3.370   4.044  11.603 -0.4621 -0.6087 -0.3818
 4582TIP3   OH235236   2.040   0.765  16.191  0.5075  0.2441 -0.1077
 4582TIP3    H135237   2.056   0.791  16.282 -1.0843  0.7644  0.0445
 4582TIP3    H235238   2.104   0.816  16.141  0.5145  0.9675  0.6119
 4583TIP3   OH235239   2.739   2.135  16.281  0.0194 -0.0627  0.1933
 4583TIP3    H135240   2.718   2.175  16.197  0.0772 -0.9589 -0.2593
 4583TIP3    H235241   2.811   2.075  16.263 -0.3715 -0.7256  0.7511
 4584TIP3   OH235242   4.555   1.663  15.341  0.1357  0.0455  0.2547
 4584TIP3    H135243   4.543   1.581  15.389  1.6994 -0.9346 -0.9318
 4584TIP3    H235244   4.558   1.730  15.410  2.0641 -1.2903  1.5779
 4585TIP3   OH235245   4.374   1.114   2.545  0.4508  0.3124 -1.3366
 4585TIP3    H135246   4.465   1.106   2.572 -0.2681  1.1042  1.6019
 4585TIP3    H235247   4.340   1.025   2.549 -0.0280  0.5323  2.2912
 4586TIP3   OH235248   4.772   6.040  13.119 -0.8764  0.0809  0.4814
 4586TIP3    H135249   4.734   5.959  13.084  0.5592 -1.0495  1.4175
 4586TIP3    H235250   4.770   6.101  13.045 -0.5792 -1.3118 -0.7252
 4587TIP3   OH235251   2.332   6.257  11.676  0.5939  0.3598 -0.4063
 4587TIP3    H135252   2.273   6.316  11.631 -0.5133  0.7747  1.4724
 4587TIP3    H235253   2.406   6.312  11.703  0.7691  0.3288 -0.8178
 4588TIP3   OH235254   3.369   0.068   2.990 -0.4771  0.2979 -0.3462
 4588TIP3    H135255   3.434   0.118   2.940  0.3271  0.7776  1.1155
 4588TIP3    H235256   3.339   0.128   3.057  0.1984 -1.0011  1.1992
 4589TIP3   OH235257   5.488   4.161  16.612 -0.2177 -0.3015  0.4186
 4589TIP3    H135258   5.529   4.203  16.536 -0.0622 -0.1144  0.6074
 4589TIP3    H235259   5.560   4.116  16.656 -0.2407 -0.0952  0.6667
 4590TIP3   OH235260   0.087   2.512  12.782 -0.6053  0.0828 -0.3870
 4590TIP3    H135261   0.023   2.583  12.787 -0.6894 -0.1069  3.3756
 4590TIP3    H235262   0.171   2.557  12.777 -0.5957  0.6064  2.8928
 4591TIP3   OH235263   1.118   6.331   0.439 -0.0870  0.1339  0.0429
 4591TIP3    H135264   1.212   6.349   0.446 -0.3501  1.6171  0.0663
 4591TIP3    H235265   1.076   6.405   0.484 -1.2821 -0.0735 -0.6952
 4592TIP3   OH235266   0.884   2.079  15.248  0.2938 -0.5614  0.1188
 4592TIP3    H135267   0.875   2.090  15.153 -2.3560  0.5689  0.3850
 4592TIP3    H235268   0.794   2.086  15.281  1.4041  3.9345  3.1431
 4593TIP3   OH235269   3.305   5.820  13.244 -0.2300  0.1629 -0.0340
 4593TIP3    H135270   3.237   5.806  13.310  0.2568 -0.5355  0.3251
 4593TIP3    H235271   3.338   5.909  13.261 -0.2832  0.0792  0.4982
 4594TIP3   OH235272   5.881   4.991   0.250  0.1751  0.5980 -0.4088
 4594TIP3    H135273   5.934   4.914   0.270 -0.9000  0.0310  0.3419
 4594TIP3    H235274   5.792   4.957   0.238 -0.1610  1.6121 -0.9692
 4595TIP3   OH235275   5.143   6.445   1.432  0.3371  0.3209 -0.2735
 4595TIP3    H135276   5.083   6.500   1.481  1.4049  0.4765  0.9111
 4595TIP3    H235277   5.202   6.408   1.498  0.1546 -1.6220 -1.1233
 4596TIP3   OH235278   3.516   1.581  15.576 -0.3020 -0.0567  0.1751
 4596TIP3    H135279   3.441   1.641  15.572  0.7060  1.2683  0.5341
 4596TIP3    H235280   3.591   1.638  15.591  0.5878 -1.5107  1.4673
 4597TIP3   OH235281   2.248   6.145   0.717 -0.0480 -0.2872  0.0224
 4597TIP3    H135282   2.227   6.229   0.677 -1.2013 -1.0090 -0.9806
 4597TIP3    H235283   2.164   6.098   0.720  0.4974 -1.2541  0.9013
 4598TIP3   OH235284   3.586   3.304  11.450  0.3846  0.3578  0.0170
 4598TIP3    H135285   3.611   3.250  11.375  0.0738 -0.0932  0.2309
 4598TIP3    H235286   3.511   3.354  11.421 -0.5127 -0.7186  0.3901
 4599TIP3   OH235287   0.683   0.177   2.965 -0.0686  0.8136  0.7829
 4599TIP3    H135288   0.733   0.220   2.895  0.5937 -0.0110  0.7367
 4599TIP3    H235289   0.707   0.225   3.045  1.7024 -0.2609  0.9446
 4600TIP3   OH235290   6.593   1.432  15.736  0.2983  0.4971 -0.1152
 4600TIP3    H135291   6.541   1.492  15.790 -0.8463 -0.9399  0.4170
 4600TIP3    H235292   6.671   1.415  15.789 -1.3959 -1.9173  1.7846
 4601TIP3   OH235293   3.143   0.711  13.132 -0.1320 -0.4315 -0.3812
 4601TIP3    H135294   3.233   0.728  13.104 -0.6383  0.5543 -1.4558
 4601TIP3    H235295   3.091   0.779  13.091 -1.3372 -0.7556  0.5441
 4602TIP3   OH235296   0.486   1.055  13.915  0.5058 -0.1833 -0.1563
 4602TIP3    H135297   0.440   1.007  13.847 -1.2412 -0.9211  1.4645
 4602TIP3    H235298   0.545   0.990  13.955 -0.0335 -0.3368  0.4058
 4603TIP3   OH235299   3.066   6.693  11.552 -0.1338 -0.5834  0.4166
 4603TIP3    H135300   3.153   6.711  11.517 -0.3254  2.1211  1.0681
 4603TIP3    H235301   3.006   6.714  11.481 -0.3685  1.5900  1.1801
 4604TIP3   OH235302   2.969   5.743   5.103 -0.3555 -0.4658 -0.4630
 4604TIP3    H135303   2.975   5.731   5.009 -0.1866  1.6144 -0.7790
 4604TIP3    H235304   2.899   5.809   5.114 -1.5950 -1.9349  1.0055
 4605TIP3   OH235305   1.920   0.130   5.167  0.2334 -0.3263  0.1277
 4605TIP3    H135306   2.009   0.147   5.196  0.1106  0.1710  0.2180
 4605TIP3    H235307   1.891   0.057   5.222  2.1132 -3.6477 -2.8641
 4606TIP3   OH235308   2.195   4.763   2.134 -0.0519  0.0840 -0.5926
 4606TIP3    H135309   2.239   4.679   2.131 -0.3407 -0.0561 -1.0657
 4606TIP3    H235310   2.208   4.800   2.046 -0.5063  0.2267 -0.6011
 4607TIP3   OH235311   3.896   2.527  13.960 -0.3945  0.0564 -0.5905
 4607TIP3    H135312   3.925   2.451  14.011  0.7600  0.9591  0.1418
 4607TIP3    H235313   3.802   2.513  13.948 -0.2797 -1.2895 -0.1469
 4608TIP3   OH235314   4.275   2.902   1.655 -0.3985 -0.1866 -0.1901
 4608TIP3    H135315   4.339   2.872   1.590  0.6510  0.6259  0.4293
 4608TIP3    H235316   4.325   2.908   1.737 -0.7191  2.4113 -0.1105
 4609TIP3   OH235317   1.520   0.111  15.184 -0.5266  0.0104 -0.6434
 4609TIP3    H135318   1.524   0.151  15.271  3.6463  2.4862 -1.6941
 4609TIP3    H235319   1.551   0.021  15.198  1.0035  0.6473  0.4001
 4610TIP3   OH235320   6.605   1.718   1.789  0.3495 -0.2884 -0.0700
 4610TIP3    H135321   6.667   1.765   1.845  1.0491  0.1819 -1.2252
 4610TIP3    H235322   6.588   1.636   1.836  1.5574 -0.2612  0.4436
 4611TIP3   OH235323   0.583   5.362   3.331 -0.1280 -0.4524  0.8134
 4611TIP3    H135324   0.487   5.370   3.334 -0.0312  0.7485  1.1962
 4611TIP3    H235325   0.605   5.372   3.239 -0.4562 -2.2235  0.4966
 4612TIP3   OH235326   3.832   6.699  15.291  0.3138 -0.6860 -0.2728
 4612TIP3    H135327   3.888   6.684  15.368  0.3358 -0.4693 -0.2465
 4612TIP3    H235328   3.748   6.725  15.328  0.4763 -0.0646 -0.3307
 4613TIP3   OH235329   2.439   6.281   3.444  0.1438  0.6093  0.8099
 4613TIP3    H135330   2.414   6.219   3.512  0.0480  1.3370  1.4491
 4613TIP3    H235331   2.471   6.358   3.492  0.5616  0.9320  0.0312
 4614TIP3   OH235332   5.633   4.006  14.285 -0.2311 -0.2149  0.0050
 4614TIP3    H135333   5.612   4.002  14.378 -0.6641  0.8297 -0.0342
 4614TIP3    H235334   5.719   3.963  14.278 -0.4152 -0.7402  0.8008
 4615TIP3   OH235335   2.837   5.254  13.393 -0.5697 -0.4375 -0.1174
 4615TIP3    H135336   2.752   5.230  13.356 -1.8687  1.5340  1.3971
 4615TIP3    H235337   2.888   5.285  13.318 -2.1547  0.8858 -0.7094
 4616TIP3   OH235338   4.231   4.860  15.711 -0.7331 -0.2147  0.3127
 4616TIP3    H135339   4.260   4.771  15.731  0.4068  0.2120  0.6600
 4616TIP3    H235340   4.171   4.850  15.637 -0.6621 -1.2686  0.3814
 4617TIP3   OH235341   6.241   3.670  14.570  0.4278 -0.3718  0.6784
 4617TIP3    H135342   6.278   3.600  14.518 -0.7520 -0.4176 -0.1467
 4617TIP3    H235343   6.217   3.737  14.506 -2.4032 -1.0355  0.9181
 4618TIP3   OH235344   2.579   5.037   0.861  0.5627 -0.5769 -0.2663
 4618TIP3    H135345   2.501   4.997   0.822  0.2362 -0.9825  0.7663
 4618TIP3    H235346   2.649   4.974   0.847  0.1023 -1.4483  1.1425
 4619TIP3   OH235347   3.264   3.811   0.564  0.0031 -0.7339  0.2109
 4619TIP3    H135348   3.183   3.801   0.613 -0.1595 -0.4987 -0.0049
 4619TIP3    H235349   3.329   3.763   0.615 -0.1684 -0.5209  0.6399
 4620TIP3   OH235350   0.623   3.833  12.728 -0.3071 -0.1466  0.5077
 4620TIP3    H135351   0.661   3.749  12.756 -0.2409  0.2770  1.7337
 4620TIP3    H235352   0.532   3.829  12.757 -0.1174  0.4857  1.2196
 4621TIP3   OH235353   1.700   6.648  12.342 -0.0296  0.0786 -0.0371
 4621TIP3    H135354   1.706   6.562  12.383  1.4865 -0.6983 -1.7735
 4621TIP3    H235355   1.751   6.705  12.400 -2.4495  0.2901  2.0700
 4622TIP3   OH235356   2.248   2.563  10.805  0.2999 -0.3055  0.0737
 4622TIP3    H135357   2.299   2.577  10.726  1.0312  0.1744  0.6159
 4622TIP3    H235358   2.296   2.495  10.853 -1.0046 -1.7891 -0.6184
 4623TIP3   OH235359   6.033   5.555   3.735 -0.3757 -0.1697  0.6305
 4623TIP3    H135360   5.971   5.628   3.737 -1.8472 -1.3608  0.4645
 4623TIP3    H235361   5.994   5.493   3.673  1.3472 -0.6662 -0.0026
 4624TIP3   OH235362   0.676   3.489   2.294  0.9415  0.0994  0.1411
 4624TIP3    H135363   0.666   3.528   2.381 -0.7584  0.2371 -0.0798
 4624TIP3    H235364   0.715   3.557   2.241  1.8750  0.0604  0.7516
 4625TIP3   OH235365   1.938   1.289   2.972 -0.5142 -0.0302  0.3094
 4625TIP3    H135366   1.947   1.384   2.974 -1.9201  0.1898  4.1016
 4625TIP3    H235367   2.013   1.256   3.021 -0.2309 -0.9058 -0.6641
 4626TIP3   OH235368   2.407   3.739  13.925  0.8544 -0.3026  0.2509
 4626TIP3    H135369   2.436   3.653  13.896  2.0144 -0.4124  1.5678
 4626TIP3    H235370   2.314   3.743  13.905  1.3700 -0.6769 -2.5264
 4627TIP3   OH235371   0.731   4.864  14.694 -0.7155  0.0944 -0.1024
 4627TIP3    H135372   0.814   4.876  14.648 -1.2945  1.6451 -0.8324
 4627TIP3    H235373   0.701   4.778  14.666  0.0216  0.0761 -0.8991
 4628TIP3   OH235374   2.064   5.910   0.489  0.0171 -0.2978 -0.3286
 4628TIP3    H135375   2.066   5.949   0.576  1.1278  0.1147 -0.5213
 4628TIP3    H235376   2.010   5.832   0.499 -2.2667  1.2283  0.0791
 4629TIP3   OH235377   2.798   0.875   1.776  0.4863  0.3763 -0.0220
 4629TIP3    H135378   2.843   0.953   1.808  0.7233  0.3668 -0.3301
 4629TIP3    H235379   2.709   0.883   1.811  0.2630  1.2104 -0.7291
 4630TIP3   OH235380   3.983   1.102  15.002 -0.2189 -0.0363 -0.1709
 4630TIP3    H135381   4.023   1.180  15.039  0.5317  0.0688 -1.1589
 4630TIP3    H235382   3.893   1.102  15.036  0.3785  0.1315  1.4731
 4631TIP3   OH235383   1.564   4.387  16.007 -0.0149  0.2751  0.1815
 4631TIP3    H135384   1.482   4.387  15.958 -1.2509 -2.8457  1.9228
 4631TIP3    H235385   1.624   4.336  15.953  0.1659  0.8389 -0.1637
 4632TIP3   OH235386   2.164   0.751  11.469 -0.2277 -0.0028  0.0635
 4632TIP3    H135387   2.120   0.704  11.398  0.1602  0.0029 -0.1809
 4632TIP3    H235388   2.191   0.834  11.430 -1.1058  0.5252  0.5532
 4633TIP3   OH235389   6.732   1.448   3.110 -0.0321 -0.3132 -0.1356
 4633TIP3    H135390   6.679   1.504   3.053  1.6557  0.7119 -0.7525
 4633TIP3    H235391   6.674   1.375   3.132 -2.2425  1.5159  0.5097
 4634TIP3   OH235392   0.445   2.342  12.103 -0.3231  0.1614  0.1509
 4634TIP3    H135393   0.522   2.332  12.047 -0.0505 -0.7824  0.6741
 4634TIP3    H235394   0.440   2.436  12.119 -0.3259  0.4469 -1.3276
 4635TIP3   OH235395   5.718   6.780   2.839  0.7011 -0.3515  0.1068
 4635TIP3    H135396   5.646   6.743   2.891 -0.2251  1.0894 -0.1023
 4635TIP3    H235397   5.713   6.734   2.755  0.4447 -0.7307  0.3267
 4636TIP3   OH235398   2.822   2.217   0.321  0.8228 -0.2507  0.8295
 4636TIP3    H135399   2.747   2.273   0.339 -0.8383 -2.3473  0.9487
 4636TIP3    H235400   2.839   2.228   0.227  1.6119  1.6044  1.1479
 4637TIP3   OH235401   4.974   3.920   5.115  0.3970 -0.3214 -0.0464
 4637TIP3    H135402   5.026   3.947   5.040 -0.4266  0.2864 -0.4109
 4637TIP3    H235403   5.039   3.902   5.183  1.0665  2.2933  0.1409
 4638TIP3   OH235404   3.177   0.639   1.561  0.3108  0.2455  0.5483
 4638TIP3    H135405   3.099   0.690   1.536  1.0503  0.9964 -0.3017
 4638TIP3    H235406   3.217   0.689   1.631 -1.1458 -1.2891  2.6088
 4639TIP3   OH235407   5.651   2.578  13.804  0.0918  0.1018 -0.4073
 4639TIP3    H135408   5.567   2.622  13.790 -0.8906 -1.3542  0.6864
 4639TIP3    H235409   5.692   2.628  13.875 -0.6989 -0.3062  0.3453
 4640TIP3   OH235410   2.091   4.006   5.042  0.0753  0.2107  0.7627
 4640TIP3    H135411   2.005   4.033   5.011  0.4728  0.2115 -0.3745
 4640TIP3    H235412   2.149   4.021   4.968  0.7441 -1.4452  0.8934
 4641TIP3   OH235413   6.605   3.631  11.753 -0.2012  0.0662 -0.2437
 4641TIP3    H135414   6.608   3.687  11.831 -1.4531 -1.6703  1.1695
 4641TIP3    H235415   6.520   3.648  11.714  0.2715  0.6517 -1.0555
 4642TIP3   OH235416   5.991   5.508  11.989  0.3092  0.1546 -1.0988
 4642TIP3    H135417   6.019   5.563  12.062 -0.3122  1.0664 -1.5332
 4642TIP3    H235418   6.046   5.429  11.996  0.9378  0.6527 -0.2397
 4643TIP3   OH235419   5.697   0.681   5.791 -0.8156 -0.0021 -0.2306
 4643TIP3    H135420   5.705   0.660   5.698 -1.5684  2.0915 -0.8359
 4643TIP3    H235421   5.772   0.738   5.810 -2.4497  2.4306 -0.5327
 4644TIP3   OH235422   4.052   5.496  12.771  0.0001 -0.0425 -0.4987
 4644TIP3    H135423   4.102   5.509  12.690  1.7462 -0.3339  0.5023
 4644TIP3    H235424   4.097   5.425  12.817 -0.1305  1.0087  1.3578
 4645TIP3   OH235425   6.051   5.497   5.583 -0.0773 -0.2153 -0.3420
 4645TIP3    H135426   6.024   5.478   5.493 -2.2855 -1.2018  0.4641
 4645TIP3    H235427   6.076   5.589   5.582 -2.3108  0.4367 -1.4857
 4646TIP3   OH235428   5.621   6.497   5.283  0.1422 -0.1692 -0.0144
 4646TIP3    H135429   5.676   6.531   5.212  0.2453 -0.4195 -0.0538
 4646TIP3    H235430   5.542   6.467   5.239  0.7531 -1.5687 -0.1985
 4647TIP3   OH235431   3.290   5.487   4.444  0.2656 -0.2041 -0.0967
 4647TIP3    H135432   3.379   5.501   4.410  1.3597  0.0574  2.6516
 4647TIP3    H235433   3.291   5.398   4.478 -0.5187 -0.1698  0.0273
 4648TIP3   OH235434   3.897   4.181   4.118 -0.3368  0.2534 -0.1457
 4648TIP3    H135435   3.959   4.201   4.189  1.6820 -0.3445 -1.6590
 4648TIP3    H235436   3.933   4.226   4.042  0.0315 -2.6211 -1.8167
 4649TIP3   OH235437   5.156   3.883   4.621 -0.1931  0.6805 -0.1246
 4649TIP3    H135438   5.188   3.944   4.554  0.1665 -1.8285 -2.4283
 4649TIP3    H235439   5.208   3.804   4.606 -1.1568 -0.4608  2.2242
 4650TIP3   OH235440   4.391   6.095   0.240 -0.4256 -0.5386  0.1868
 4650TIP3    H135441   4.394   6.008   0.279  2.6920 -1.3719 -1.5651
 4650TIP3    H235442   4.478   6.131   0.255 -1.9429  2.8279  1.7987
 4651TIP3   OH235443   6.745   4.413  13.765  0.1753 -0.1940 -0.2825
 4651TIP3    H135444   6.692   4.479  13.721 -0.2364 -0.1066  0.3314
 4651TIP3    H235445   6.811   4.464  13.813 -0.1844 -0.2176  0.2456
 4652TIP3   OH235446   4.648   0.103   4.241  0.2457  0.1309 -0.4154
 4652TIP3    H135447   4.559   0.098   4.274  0.7006  0.8455  1.0288
 4652TIP3    H235448   4.648   0.049   4.162 -1.2998 -0.3689 -0.1051
 4653TIP3   OH235449   1.211   0.264   0.820 -0.3199 -0.2135 -0.8623
 4653TIP3    H135450   1.119   0.252   0.843 -0.0560  0.0805  0.4641
 4653TIP3    H235451   1.244   0.325   0.886  0.3215  1.3878 -2.5627
 4654TIP3   OH235452   3.558   2.870  13.378 -0.2682  0.3270 -0.4799
 4654TIP3    H135453   3.545   2.942  13.440 -0.8721 -0.2961  0.1370
 4654TIP3    H235454   3.523   2.902  13.295  1.0871  1.3963 -0.6693
 4655TIP3   OH235455   2.835   0.788   1.506 -0.2218 -0.1398  0.0207
 4655TIP3    H135456   2.743   0.786   1.480  0.0469 -0.9169 -0.8921
 4655TIP3    H235457   2.833   0.800   1.601 -1.3054 -1.9134  0.2529
 4656TIP3   OH235458   2.560   5.496   5.383  0.2826 -0.4089  0.6328
 4656TIP3    H135459   2.466   5.514   5.387  0.5296  1.7208 -1.1783
 4656TIP3    H235460   2.574   5.428   5.449 -2.3962 -0.2867  1.4565
 4657TIP3   OH235461   0.061   6.139  12.459  0.0564  0.1370 -0.3093
 4657TIP3    H135462  -0.013   6.197  12.446 -0.5149 -1.1849 -3.8218
 4657TIP3    H235463   0.022   6.055  12.483  0.2796 -0.7292 -2.7787
 4658TIP3   OH235464   0.033   1.296  16.619 -0.0116 -0.3344 -0.2803
 4658TIP3    H135465   0.119   1.323  16.653 -0.7977  0.4068  1.2269
 4658TIP3    H235466   0.053   1.245  16.541  1.7545  0.6173 -0.4971
 4659TIP3   OH235467   2.103   3.992  13.608  0.6147  0.0088 -0.5449
 4659TIP3    H135468   2.037   3.925  13.626 -0.1546  0.6209 -1.0549
 4659TIP3    H235469   2.059   4.054  13.550  1.3320  0.9425 -0.1082
 4660TIP3   OH235470   5.473   3.650   4.791 -0.4785  0.1118 -0.4728
 4660TIP3    H135471   5.424   3.569   4.800 -0.1573 -0.1971 -1.4162
 4660TIP3    H235472   5.447   3.685   4.706 -0.4577  0.8934 -0.1719
 4661TIP3   OH235473   0.705   5.387   4.927 -0.2390 -0.4268 -0.0814
 4661TIP3    H135474   0.679   5.443   5.000 -1.0162 -1.0218  0.1027
 4661TIP3    H235475   0.623   5.354   4.892  0.1876 -0.9738 -0.5739
 4662TIP3   OH235476   4.601   4.216  13.403 -0.0264  0.0548 -0.6114
 4662TIP3    H135477   4.612   4.223  13.498 -0.8478 -0.9149 -0.4249
 4662TIP3    H235478   4.668   4.274  13.366  0.2932  0.4479  0.5567
 4663TIP3   OH235479   6.441   0.662  10.476 -0.4132  0.0655  0.5728
 4663TIP3    H135480   6.447   0.570  10.500  0.0611  0.3498  1.5812
 4663TIP3    H235481   6.506   0.673  10.406 -0.9402 -0.4938 -0.0218
 4664TIP3   OH235482   6.378   6.161   2.874  0.0220 -0.3788 -0.4130
 4664TIP3    H135483   6.411   6.170   2.785 -2.3045  0.6973 -1.2483
 4664TIP3    H235484   6.376   6.251   2.908 -0.4915 -0.5932  0.1497
 4665TIP3   OH235485   4.989   4.841   3.188 -0.0270 -0.2848 -0.1726
 4665TIP3    H135486   5.038   4.885   3.258 -0.7938 -2.3144  1.7847
 4665TIP3    H235487   4.917   4.901   3.169 -0.1546  0.0740  1.2734
 4666TIP3   OH235488   5.394   2.038  12.812 -0.0575 -0.0650 -0.3916
 4666TIP3    H135489   5.315   1.987  12.799 -1.7626  2.1044  0.7481
 4666TIP3    H235490   5.427   2.054  12.724 -0.3311 -1.7581 -0.8312
 4667TIP3   OH235491   0.491   6.756  15.496 -0.3054 -0.0101  0.4447
 4667TIP3    H135492   0.458   6.680  15.448  0.1437 -0.1182  0.3010
 4667TIP3    H235493   0.579   6.731  15.524  0.0796  0.6663 -0.1184
 4668TIP3   OH235494   3.968   5.308  16.672  0.3791 -0.2037 -0.4874
 4668TIP3    H135495   4.045   5.286  16.725  0.2689  0.6571  0.0373
 4668TIP3    H235496   3.894   5.295  16.731  0.2918  1.3212 -0.2279
 4669TIP3   OH235497   5.732   5.394  16.530  0.4270  0.3330  0.1976
 4669TIP3    H135498   5.809   5.392  16.474  0.1896  0.8569 -0.1500
 4669TIP3    H235499   5.767   5.393  16.619  0.8431  0.8179  0.0437
 4670TIP3   OH235500   4.420   2.295  14.452 -0.8489 -0.6118  0.0454
 4670TIP3    H135501   4.326   2.276  14.451 -1.1430  0.3014  2.2980
 4670TIP3    H235502   4.458   2.223  14.502 -0.3086 -1.0596 -0.9911
 4671TIP3   OH235503   5.878   2.087  14.480  0.0302 -0.8765 -0.8517
 4671TIP3    H135504   5.827   2.039  14.545 -0.8717 -1.4650 -1.9589
 4671TIP3    H235505   5.859   2.179  14.497  0.5558 -0.9573  0.2986
 4672TIP3   OH235506   2.566   2.343  15.791 -0.3488 -0.1146 -0.4128
 4672TIP3    H135507   2.504   2.316  15.859  0.6400 -1.4183 -0.0017
 4672TIP3    H235508   2.531   2.426  15.759 -1.9283 -0.4813  0.2809
 4673TIP3   OH235509   5.613   4.613   5.195  0.2591 -0.0401 -0.4688
 4673TIP3    H135510   5.524   4.577   5.195 -0.6333  1.9527 -1.1217
 4673TIP3    H235511   5.619   4.659   5.110  2.0319 -0.3979 -0.5628
 4674TIP3   OH235512   6.141   6.613   3.365 -0.2348  0.0142 -0.3817
 4674TIP3    H135513   6.201   6.686   3.382  1.0594 -1.1721  0.3534
 4674TIP3    H235514   6.097   6.637   3.283  0.6819  1.2793 -0.5389
 4675TIP3   OH235515   6.660   3.868   1.485 -0.3372  0.2065 -0.3352
 4675TIP3    H135516   6.677   3.899   1.396  1.0596  0.6078  0.0363
 4675TIP3    H235517   6.666   3.773   1.478  0.5863  0.2670 -0.5406
 4676TIP3   OH235518   6.469   2.317   3.874 -0.1279 -0.2610 -0.5469
 4676TIP3    H135519   6.402   2.374   3.835  0.6725  2.7997  2.0925
 4676TIP3    H235520   6.541   2.318   3.811 -0.7167  0.3981 -1.2328
 4677TIP3   OH235521   0.948   5.529   3.889 -0.4245  0.1473  0.0841
 4677TIP3    H135522   0.888   5.566   3.955 -0.6012  3.2995 -1.6405
 4677TIP3    H235523   1.025   5.586   3.893  1.0699 -1.7945 -0.0593
 4678TIP3   OH235524   6.317   4.177   2.792  0.0728  0.4207  0.2153
 4678TIP3    H135525   6.356   4.264   2.788  0.8908  0.0280 -3.2239
 4678TIP3    H235526   6.223   4.193   2.801  0.0076  1.8163 -2.1685
 4679TIP3   OH235527   4.783   1.360  17.114 -0.0984 -0.5650  0.0226
 4679TIP3    H135528   4.846   1.317  17.171 -2.4243 -3.3272  0.7336
 4679TIP3    H235529   4.780   1.305  17.035 -1.9445 -0.8244  0.2345
 4680TIP3   OH235530   3.145   1.605   1.173  0.0544  0.1540 -0.1284
 4680TIP3    H135531   3.204   1.540   1.212  0.3542  0.4280 -0.1194
 4680TIP3    H235532   3.127   1.667   1.244 -1.9932 -1.0930  0.5211
 4681TIP3   OH235533   3.402   5.160   2.880 -0.1878  0.6126 -0.4811
 4681TIP3    H135534   3.488   5.193   2.904 -0.6988  0.9753  0.9130
 4681TIP3    H235535   3.420   5.077   2.835  0.9550  1.4730 -1.7047
 4682TIP3   OH235536   2.827   6.367  14.420  0.3945 -0.1056 -0.3825
 4682TIP3    H135537   2.857   6.302  14.357  2.3706  1.9507 -1.7314
 4682TIP3    H235538   2.885   6.357  14.495 -0.2545 -0.8141  0.0408
 4683TIP3   OH235539   6.141   4.195   0.892  0.2147  0.4070  0.3061
 4683TIP3    H135540   6.219   4.146   0.864  0.6556  0.6727  1.0348
 4683TIP3    H235541   6.068   4.140   0.865  0.7158 -1.1067  1.8319
 4684TIP3   OH235542   3.796   0.359  11.045  0.1080 -0.3353  0.2738
 4684TIP3    H135543   3.821   0.290  10.983  0.9956 -0.7135  1.0229
 4684TIP3    H235544   3.874   0.413  11.052 -0.1851  0.0427  0.6189
 4685TIP3   OH235545   3.740   0.691  11.007 -0.1607  0.1836  0.1443
 4685TIP3    H135546   3.826   0.654  10.983  0.7884  2.6354 -0.4916
 4685TIP3    H235547   3.695   0.704  10.924  0.5758  2.7409  0.0640
 4686TIP3   OH235548   2.989   4.048   0.235 -0.6085 -0.1500 -0.5161
 4686TIP3    H135549   3.015   4.129   0.192  1.4230 -0.7166 -0.4358
 4686TIP3    H235550   2.997   4.066   0.328  1.2649 -0.8192 -0.5048
 4687TIP3   OH235551   2.261   6.437  12.177  0.1188  0.0690 -0.3749
 4687TIP3    H135552   2.229   6.364  12.229 -1.4023  0.4708 -0.6922
 4687TIP3    H235553   2.258   6.406  12.087 -1.0421  0.6641 -0.5643
 4688TIP3   OH235554   0.002   4.040  16.184 -0.1188 -0.6505  0.4448
 4688TIP3    H135555  -0.090   4.014  16.191 -0.8432  0.6229 -2.8415
 4688TIP3    H235556   0.016   4.097  16.260 -2.5152  0.3367  0.2321
 4689TIP3   OH235557   1.733   1.218  11.168 -0.4363 -0.0831 -0.6539
 4689TIP3    H135558   1.698   1.245  11.253  2.5583  0.8700  0.4165
 4689TIP3    H235559   1.759   1.126  11.181  0.2690  0.1422 -0.4113
 4690TIP3   OH235560   4.680   0.114   0.408 -0.1798  0.1325 -0.1009
 4690TIP3    H135561   4.747   0.085   0.347  0.4838  0.3641  0.5065
 4690TIP3    H235562   4.619   0.040   0.414  0.3343 -0.3005 -0.2074
 4691TIP3   OH235563   5.974   4.516  16.214 -0.8165 -0.2751 -0.2744
 4691TIP3    H135564   5.992   4.436  16.165 -0.7961 -0.5113  0.1167
 4691TIP3    H235565   5.977   4.585  16.148  2.9982 -0.0521 -0.1357
 4692TIP3   OH235566   5.429   4.280   1.961 -0.5316 -0.1821 -0.1739
 4692TIP3    H135567   5.516   4.319   1.966  0.3221 -1.8364 -1.2724
 4692TIP3    H235568   5.378   4.341   1.909  0.0907  0.6072  0.1319
 4693TIP3   OH235569   3.928   4.277   5.367 -0.4117 -0.1072 -0.5038
 4693TIP3    H135570   3.962   4.336   5.300  0.1665 -1.0783 -1.0828
 4693TIP3    H235571   3.861   4.226   5.322 -0.1569 -0.6322 -0.2963
 4694TIP3   OH235572   6.416   4.570   4.365 -0.2564 -0.2563 -0.1255
 4694TIP3    H135573   6.324   4.578   4.339 -0.3213 -0.9144 -0.1218
 4694TIP3    H235574   6.417   4.497   4.427  0.3233 -0.5060 -0.4214
 4695TIP3   OH235575   2.746   2.685  11.919 -0.3246 -0.3371 -0.0279
 4695TIP3    H135576   2.824   2.644  11.882  0.1325 -0.6408  1.2196
 4695TIP3    H235577   2.765   2.694  12.012 -2.0038 -0.9205  0.4116
 4696TIP3   OH235578   5.370   5.067   5.209 -0.2551  0.0278 -0.2400
 4696TIP3    H135579   5.338   5.029   5.128 -2.3940 -1.7143  1.3208
 4696TIP3    H235580   5.415   4.995   5.253 -1.3040  0.2164  1.2032
 4697TIP3   OH235581   6.262   2.377   6.288  0.1484 -0.2880 -0.2312
 4697TIP3    H135582   6.278   2.283   6.276  0.5657 -0.0436 -1.8036
 4697TIP3    H235583   6.303   2.399   6.372 -1.7938 -1.9101  1.2627
 4698TIP3   OH235584   3.714   5.396   1.579 -0.3046 -0.4610  0.2511
 4698TIP3    H135585   3.643   5.431   1.525  0.2067 -0.7333 -0.6164
 4698TIP3    H235586   3.731   5.466   1.643 -1.3641 -0.4081  0.5045
 4699TIP3   OH235587   1.221   5.264   4.025 -0.7149  0.7559 -0.1528
 4699TIP3    H135588   1.167   5.294   4.098  0.0860  2.0032 -0.0620
 4699TIP3    H235589   1.157   5.234   3.960 -1.4930 -3.2737  2.1087
 4700TIP3   OH235590   6.265   4.193  11.934 -0.3832  0.2444  0.0020
 4700TIP3    H135591   6.349   4.239  11.929  0.0695 -0.2754  1.9950
 4700TIP3    H235592   6.203   4.258  11.966 -0.3770  0.2144  0.0754
 4701TIP3   OH235593   3.467   1.072   3.644 -0.0652 -0.3777  0.2738
 4701TIP3    H135594   3.499   1.081   3.734 -1.7708  1.3572  0.7567
 4701TIP3    H235595   3.372   1.083   3.651 -0.3377 -1.1574 -1.6406
 4702TIP3   OH235596   4.190   0.371   4.307  0.2414 -0.4371 -0.0136
 4702TIP3    H135597   4.140   0.347   4.385  1.0023 -2.3400 -0.0677
 4702TIP3    H235598   4.277   0.394   4.340 -0.1268  1.1916 -0.0913
 4703TIP3   OH235599   4.314   2.915   5.716  0.0831  0.6598 -0.0127
 4703TIP3    H135600   4.262   2.995   5.726 -0.1691  0.7854 -2.0451
 4703TIP3    H235601   4.372   2.933   5.642  0.2855 -0.9200 -0.2691
 4704TIP3   OH235602   4.218   0.203  11.273  0.5257  0.3584 -0.2033
 4704TIP3    H135603   4.240   0.246  11.191  1.2165  0.5043  0.0472
 4704TIP3    H235604   4.240   0.268  11.340  0.9124 -0.1231  0.1425
 4705TIP3   OH235605   3.631   6.698  13.244 -0.6056 -0.6970 -0.1484
 4705TIP3    H135606   3.619   6.789  13.271  1.4567 -0.7924  1.2949
 4705TIP3    H235607   3.618   6.699  13.149  0.8295  1.3999 -0.3671
 4706TIP3   OH235608   0.204   1.543   2.284  0.0642  0.0365  0.0372
 4706TIP3    H135609   0.133   1.554   2.346  2.1080  0.0173  2.5602
 4706TIP3    H235610   0.252   1.626   2.287  0.7923 -0.3286 -0.7469
 4707TIP3   OH235611   3.979   2.794   5.648 -0.4804  0.6118  0.1045
 4707TIP3    H135612   4.073   2.790   5.661 -0.2367  2.0727 -0.9720
 4707TIP3    H235613   3.953   2.880   5.680 -1.5836 -0.0341  1.0482
 4708TIP3   OH235614   2.380   4.197  12.649  0.3701  0.0151 -0.4293
 4708TIP3    H135615   2.454   4.141  12.626  0.4424  0.0137 -0.1980
 4708TIP3    H235616   2.323   4.195  12.572  0.6649  0.1036 -0.6536
 4709TIP3   OH235617   5.437   4.205  11.075  0.0299  0.2961  0.2477
 4709TIP3    H135618   5.384   4.128  11.096  1.5870 -0.8086  0.2757
 4709TIP3    H235619   5.382   4.257  11.017 -0.6959 -1.3225 -0.5652
 4710TIP3   OH235620   4.677   2.650   5.123  0.6374  0.6525  0.1492
 4710TIP3    H135621   4.626   2.572   5.101  0.2412  0.4673  1.5924
 4710TIP3    H235622   4.761   2.637   5.078  0.9512 -1.1234  1.1406
 4711TIP3   OH235623   6.304   6.519   5.443 -0.1878  0.3434 -0.5198
 4711TIP3    H135624   6.360   6.516   5.365  0.6144  0.3454  0.0451
 4711TIP3    H235625   6.228   6.570   5.416  1.4255  2.9436 -0.4633
 4712TIP3   OH235626   5.867   6.008   5.616  0.2924  0.1332  0.2868
 4712TIP3    H135627   5.914   6.006   5.699 -1.0875  1.5250  1.1556
 4712TIP3    H235628   5.779   6.038   5.639 -0.3169 -0.0938 -1.5935
 4713TIP3   OH235629   0.253   3.557  16.277  0.1128  0.0413  1.0892
 4713TIP3    H135630   0.232   3.640  16.320  0.6918  0.2476  0.9850
 4713TIP3    H235631   0.179   3.499  16.298 -0.2371  0.5447  1.2587
 4714TIP3   OH235632   5.495   3.626   3.028  0.0424  0.7535 -0.4612
 4714TIP3    H135633   5.516   3.622   3.121  0.7558 -0.3786 -0.6541
 4714TIP3    H235634   5.469   3.717   3.013 -0.3235  0.8865  0.8874
 4715TIP3   OH235635   5.784   2.470   2.687 -0.3035  0.2620 -0.0930
 4715TIP3    H135636   5.764   2.386   2.646  0.6926 -0.2278  0.3818
 4715TIP3    H235637   5.880   2.473   2.690 -0.2968  1.7935 -0.8599
 4716TIP3   OH235638   3.574   1.650   2.738  0.2387 -0.3268 -0.6654
 4716TIP3    H135639   3.612   1.663   2.651  0.9845 -0.4703 -0.3736
 4716TIP3    H235640   3.556   1.738   2.770 -0.8608 -0.3037 -1.3086
 4717TIP3   OH235641   0.756   1.580   3.322  0.7898 -0.2730  0.6052
 4717TIP3    H135642   0.722   1.491   3.330  0.1078  0.0230  1.0966
 4717TIP3    H235643   0.851   1.571   3.335  0.8204 -1.0078 -0.0293
 4718TIP3   OH235644   5.194   5.863   1.673  0.4838 -0.3679  0.3633
 4718TIP3    H135645   5.143   5.934   1.634  1.0307 -0.9042 -1.4698
 4718TIP3    H235646   5.198   5.883   1.766 -2.5080  0.0374  0.4945
 4719TIP3   OH235647   3.067   4.566  15.997  0.8093 -0.5079 -0.2972
 4719TIP3    H135648   3.135   4.569  15.930  0.9122 -1.5030 -0.2515
 4719TIP3    H235649   3.007   4.636  15.973  2.0260  0.6247 -0.1332
 4720TIP3   OH235650   2.615   0.486  13.192  0.2758  0.0900  0.0724
 4720TIP3    H135651   2.600   0.469  13.099  0.6859  0.4782 -0.0697
 4720TIP3    H235652   2.541   0.541  13.219 -0.2584 -0.6591  0.1722
 4721TIP3   OH235653   4.268   0.374   1.442 -0.1582 -0.1012 -0.1811
 4721TIP3    H135654   4.196   0.411   1.390 -1.1108 -2.0423 -0.3225
 4721TIP3    H235655   4.346   0.392   1.390 -0.4807  2.0338 -0.0340
 4722TIP3   OH235656   6.258   4.962   4.477  0.3486  0.0138  0.1949
 4722TIP3    H135657   6.342   4.947   4.435 -0.9829 -1.4385 -2.1133
 4722TIP3    H235658   6.209   5.016   4.415 -1.0383 -0.6134  0.7031
 4723TIP3   OH235659   4.740   6.576   4.552 -0.2638 -0.3739 -0.4414
 4723TIP3    H135660   4.698   6.640   4.609 -1.8040  0.3988 -2.3315
 4723TIP3    H235661   4.668   6.534   4.505  0.6805 -3.5824  0.6977
 4724TIP3   OH235662   0.700   1.823   3.612  0.0507 -0.1075 -0.4508
 4724TIP3    H135663   0.789   1.846   3.638 -0.1019  1.0779 -0.9053
 4724TIP3    H235664   0.703   1.821   3.516 -0.6180  0.8904 -0.5079
 4725TIP3   OH235665   4.560   4.769  13.228  0.0816 -0.3271  0.2146
 4725TIP3    H135666   4.502   4.750  13.302 -0.7100 -1.6365 -0.6818
 4725TIP3    H235667   4.588   4.859  13.241 -1.3491 -0.0003  1.2267
 4726TIP3   OH235668   5.317   2.844  16.590  0.3830  0.4064  0.2649
 4726TIP3    H135669   5.293   2.936  16.590  1.4921  0.7242  1.0515
 4726TIP3    H235670   5.365   2.831  16.508 -0.1421  0.4100 -0.0492
 4727TIP3   OH235671   1.646   1.626  14.257  0.1713  0.7334 -0.2371
 4727TIP3    H135672   1.665   1.572  14.180  1.9917  2.5863 -1.1911
 4727TIP3    H235673   1.609   1.565  14.320  2.6114 -1.7907 -1.0142
 4728TIP3   OH235674   5.067   3.480   2.119 -0.0803  0.2455 -0.0557
 4728TIP3    H135675   4.979   3.447   2.100 -0.0880  0.2975 -0.1093
 4728TIP3    H235676   5.099   3.511   2.035  0.3003 -0.5135 -0.1985
 4729TIP3   OH235677   0.459   6.156  11.992  0.1464 -0.5306  0.7091
 4729TIP3    H135678   0.380   6.103  12.001  0.4999 -1.4551 -1.0933
 4729TIP3    H235679   0.513   6.108  11.928  0.1520  2.2912 -1.6342
 4730TIP3   OH235680   2.042   6.363  11.670  0.2904 -0.0498  0.2690
 4730TIP3    H135681   2.075   6.430  11.730 -0.0548  0.2849  0.0957
 4730TIP3    H235682   1.974   6.317  11.721  0.7128 -0.4505  0.4781
 4731TIP3   OH235683   1.397   3.838  14.261  0.0166  0.7214  0.0487
 4731TIP3    H135684   1.461   3.776  14.227  1.4725  1.2337  1.6813
 4731TIP3    H235685   1.404   3.913  14.201  0.0271  0.2884 -0.5064
 4732TIP3   OH235686   2.901   1.512   1.767 -0.2361  0.2890 -0.2081
 4732TIP3    H135687   2.894   1.578   1.837  0.7305 -1.2930  1.4747
 4732TIP3    H235688   2.993   1.515   1.741 -0.5241  0.6454 -1.2268
 4733TIP3   OH235689   5.110   2.715   2.167 -0.5320  0.2578  0.0426
 4733TIP3    H135690   5.111   2.622   2.189 -1.0663  0.1815 -0.2341
 4733TIP3    H235691   5.039   2.751   2.221 -1.2391  0.2416 -0.8646
 4734TIP3   OH235692   5.830   4.001  15.334  0.6763  0.5891 -0.8647
 4734TIP3    H135693   5.854   4.091  15.356  0.2516  0.0576  2.2141
 4734TIP3    H235694   5.780   3.970  15.409  1.0766 -2.3455 -1.6621
 4735TIP3   OH235695   3.638   2.466   2.408 -0.5260 -0.5571 -0.7993
 4735TIP3    H135696   3.641   2.546   2.355 -1.2276 -0.1079 -0.1678
 4735TIP3    H235697   3.666   2.494   2.495 -1.2165 -0.9000 -0.4601
 4736TIP3   OH235698   3.471   4.564  13.999 -0.1166  0.5643  0.4526
 4736TIP3    H135699   3.463   4.501  14.071  0.6583 -0.2363 -0.1524
 4736TIP3    H235700   3.461   4.512  13.920 -2.2150  1.6046 -0.0589
 4737TIP3   OH235701   1.907   2.338   2.343 -0.2810  0.1147 -0.8886
 4737TIP3    H135702   2.002   2.331   2.337 -0.2816 -0.9318 -0.0319
 4737TIP3    H235703   1.877   2.339   2.252  0.4983 -0.4977 -1.1637
 4738TIP3   OH235704   3.385   1.846   0.964  0.0860 -0.0518 -0.1790
 4738TIP3    H135705   3.291   1.833   0.947 -0.3260  0.0927  1.7449
 4738TIP3    H235706   3.398   1.940   0.956 -0.5984  0.3250  2.2546
 4739TIP3   OH235707   3.942   3.571   2.651  0.0960 -0.3280 -0.5606
 4739TIP3    H135708   3.913   3.516   2.578  1.3807 -1.7676 -0.0209
 4739TIP3    H235709   3.995   3.639   2.610  1.4437 -1.5718 -0.9299
 4740TIP3   OH235710   1.586   5.681  17.191  0.1849  0.3297 -0.4372
 4740TIP3    H135711   1.492   5.691  17.204  0.1514  0.1027 -0.4977
 4740TIP3    H235712   1.598   5.588  17.169  0.5187  0.1573  0.4303
 4741TIP3   OH235713   4.779   5.511   5.641 -0.3233  0.3972  0.4266
 4741TIP3    H135714   4.796   5.438   5.699  1.8197  1.3575  1.1283
 4741TIP3    H235715   4.865   5.550   5.626 -1.4084  2.9477  0.3211
 4742TIP3   OH235716   5.222   2.125  15.087 -0.5956 -0.1101  0.1231
 4742TIP3    H135717   5.270   2.079  15.155 -1.9149  0.6488  1.6190
 4742TIP3    H235718   5.213   2.060  15.017  0.5998 -0.9741  0.7174
 4743TIP3   OH235719   5.147   6.208  11.618  0.6027 -0.4075 -0.2775
 4743TIP3    H135720   5.174   6.283  11.672  2.5736  0.4749 -2.3245
 4743TIP3    H235721   5.057   6.190  11.645  0.8672  1.1878  1.9229
 4744TIP3   OH235722   4.689   3.425   1.389  0.2411 -0.2857  0.1839
 4744TIP3    H135723   4.753   3.485   1.428  0.5521 -1.4004  1.4467
 4744TIP3    H235724   4.605   3.469   1.401  0.6085  0.5688 -0.2684
 4745TIP3   OH235725   0.040   6.238  11.516 -0.4934  0.6736 -0.1323
 4745TIP3    H135726   0.016   6.213  11.605 -0.3030 -0.2718 -0.3390
 4745TIP3    H235727  -0.040   6.279  11.481 -0.8785  0.1803  0.1520
 4746TIP3   OH235728   6.356   3.829   4.623  0.3040 -0.1542  0.1480
 4746TIP3    H135729   6.331   3.745   4.585  0.8720  0.2193 -1.0975
 4746TIP3    H235730   6.286   3.889   4.596  0.5210  0.0386  0.0145
 4747TIP3   OH235731   3.912   2.608   0.982  0.2808  0.5204 -0.0227
 4747TIP3    H135732   3.914   2.702   0.964  0.0178  0.0341 -3.1870
 4747TIP3    H235733   4.003   2.585   1.002  0.3908  1.3907  0.5040
 4748TIP3   OH235734   1.417   5.934  12.844  0.4407 -0.3273 -0.2738
 4748TIP3    H135735   1.348   5.953  12.907 -0.9591 -0.5298 -1.6838
 4748TIP3    H235736   1.476   6.009  12.849 -0.3248  0.2431  0.3594
 4749TIP3   OH235737   1.631   6.118   4.989 -0.1551  0.7784 -0.9665
 4749TIP3    H135738   1.679   6.115   4.906  1.3455 -1.3779 -0.0932
 4749TIP3    H235739   1.643   6.031   5.028 -0.8484  1.7001  1.5111
 4750TIP3   OH235740   4.049   0.979  12.412 -0.0083  0.1085 -0.3367
 4750TIP3    H135741   4.057   1.017  12.325  0.8597  1.5536  0.3312
 4750TIP3    H235742   4.139   0.978  12.445 -0.4364  0.3620  0.8644
 4751TIP3   OH235743   0.113   4.306  12.300  0.1268  0.3369 -0.4398
 4751TIP3    H135744   0.146   4.297  12.389 -0.0623  0.8347 -0.3150
 4751TIP3    H235745   0.165   4.377  12.263 -0.9315  1.2822 -0.1709
 4752TIP3   OH235746   3.749   5.622  14.233 -0.6619  0.1899 -0.0968
 4752TIP3    H135747   3.759   5.539  14.186 -1.4949 -0.9232  1.5997
 4752TIP3    H235748   3.803   5.684  14.183  0.5600 -1.5202 -1.0088
 4753TIP3   OH235749   4.623   3.354   4.930 -0.6179 -0.4889 -0.2076
 4753TIP3    H135750   4.568   3.433   4.941  1.7117  0.9327  2.8748
 4753TIP3    H235751   4.708   3.388   4.902  0.0235 -2.1024 -0.2933
 4754TIP3   OH235752   0.246   0.642  15.771  0.1876  0.6170  0.5429
 4754TIP3    H135753   0.260   0.554  15.807  1.9770  0.7131  0.1766
 4754TIP3    H235754   0.333   0.673  15.749 -0.5779  1.7887 -1.0375
 4755TIP3   OH235755   1.643   2.487   2.529 -0.7579  0.1027 -0.1395
 4755TIP3    H135756   1.673   2.460   2.443  1.8442 -1.2554  1.0869
 4755TIP3    H235757   1.632   2.405   2.578  0.3664  0.9155  1.5753
 4756TIP3   OH235758   6.142   0.111   0.236 -0.3514  0.2189 -0.3323
 4756TIP3    H135759   6.156   0.019   0.260  1.8595  1.2677  3.1376
 4756TIP3    H235760   6.230   0.149   0.237 -1.3447  2.6634 -0.3614
 4757TIP3   OH235761   1.342   1.369  11.693  0.6628 -0.1342 -0.2679
 4757TIP3    H135762   1.409   1.360  11.761  0.0229  0.4841  0.4599
 4757TIP3    H235763   1.384   1.336  11.613  2.4236  1.7705 -0.2081
 4758TIP3   OH235764   2.450   6.536  17.096 -0.3758 -0.6472  0.1216
 4758TIP3    H135765   2.416   6.622  17.121  1.3244  0.0283  0.2709
 4758TIP3    H235766   2.436   6.481  17.173  3.8521  1.1280  2.4765
 4759TIP3   OH235767   5.946   5.009   3.469 -0.0676 -0.1056  0.2727
 4759TIP3    H135768   6.025   4.959   3.487 -1.2557 -1.8833  0.8832
 4759TIP3    H235769   5.964   5.055   3.387  1.1954 -1.3087 -0.1579
 4760TIP3   OH235770   6.604   2.013  15.827 -0.1225 -0.4380 -0.3228
 4760TIP3    H135771   6.668   1.943  15.810  0.4134  0.1548 -0.7928
 4760TIP3    H235772   6.572   2.038  15.741 -0.2596 -0.0546 -0.1609
 4761TIP3   OH235773   1.017   3.584  13.266  0.3467  0.1057  0.3387
 4761TIP3    H135774   0.990   3.659  13.214 -0.6804 -0.5636 -0.1110
 4761TIP3    H235775   1.105   3.563  13.233  0.3263  0.6238 -0.0600
 4762TIP3   OH235776   5.479   1.044  16.919  0.6977 -0.1079 -0.6466
 4762TIP3    H135777   5.491   0.950  16.925 -2.5127 -0.6773 -1.7689
 4762TIP3    H235778   5.409   1.064  16.981 -0.6038  1.0418 -2.3927
 4763TIP3   OH235779   6.346   5.466  10.614 -0.2709 -0.3865  0.3091
 4763TIP3    H135780   6.420   5.406  10.617  0.2985  0.3180  2.2839
 4763TIP3    H235781   6.276   5.416  10.573  0.9741 -1.4307 -0.6415
 4764TIP3   OH235782   5.967   1.193   4.836 -0.4147  1.0200 -0.3266
 4764TIP3    H135783   5.931   1.213   4.749 -0.7159  0.2077 -0.4001
 4764TIP3    H235784   6.060   1.214   4.829  0.1200 -1.4071 -1.6757
 4765TIP3   OH235785   0.021   0.242  12.660 -0.2950  0.2546  0.1101
 4765TIP3    H135786  -0.059   0.292  12.645  0.5151  2.0722  1.4858
 4765TIP3    H235787   0.082   0.273  12.594  0.0846  0.8048  0.7119
 4766TIP3   OH235788   4.947   3.430   3.882 -0.1876  0.8597 -0.2990
 4766TIP3    H135789   4.864   3.427   3.929  0.0405  2.7664  0.3026
 4766TIP3    H235790   4.930   3.487   3.807  0.4471  0.8561 -0.4489
 4767TIP3   OH235791   2.310   1.495   6.316 -0.4732  0.1192 -0.6626
 4767TIP3    H135792   2.241   1.562   6.312  0.5925  1.2506 -0.6954
 4767TIP3    H235793   2.391   1.545   6.323  0.2599 -1.1960  0.8337
 4768TIP3   OH235794   2.414   3.374  14.826  0.5187 -0.3713  0.3514
 4768TIP3    H135795   2.462   3.297  14.794 -0.0027 -0.1014 -1.1529
 4768TIP3    H235796   2.383   3.418  14.747  2.1251  2.2792  1.0651
 4769TIP3   OH235797   4.250   1.956   4.784 -0.3046  0.0876  0.0828
 4769TIP3    H135798   4.241   1.863   4.804 -0.9371  0.1401  0.0605
 4769TIP3    H235799   4.194   2.000   4.849  1.1969  0.5699  1.1082
 4770TIP3   OH235800   5.731   5.922  13.993 -0.7180 -0.6639  0.8464
 4770TIP3    H135801   5.770   5.980  13.927 -2.0729  0.4988  1.0303
 4770TIP3    H235802   5.804   5.867  14.022 -0.3201 -2.0897 -2.4857
 4771TIP3   OH235803   1.989   3.076  15.797  0.2335 -0.2950 -0.2735
 4771TIP3    H135804   1.932   3.153  15.788  2.1680  1.2649  0.2282
 4771TIP3    H235805   1.948   3.010  15.740 -1.6027  0.9978 -0.5603
 4772TIP3   OH235806   3.913   1.483   5.390  0.5829  0.1873 -0.5747
 4772TIP3    H135807   3.940   1.455   5.478  0.4640  2.2959  0.1927
 4772TIP3    H235808   3.991   1.469   5.336  0.8125 -0.6772 -0.0548
 4773TIP3   OH235809   3.424   4.640   3.346 -0.3494 -0.2555  0.9239
 4773TIP3    H135810   3.365   4.715   3.356 -0.3610 -0.3567  1.7249
 4773TIP3    H235811   3.386   4.572   3.402 -1.0623 -1.3303 -0.8001
 4774TIP3   OH235812   0.838   0.606  15.585  0.0819  0.1712 -0.9010
 4774TIP3    H135813   0.853   0.677  15.648 -1.0763 -0.5740  0.2634
 4774TIP3    H235814   0.800   0.649  15.509 -2.5492  0.6109  0.5704
 4775TIP3   OH235815   2.524   4.277   4.982 -0.0693 -0.0488 -0.5483
 4775TIP3    H135816   2.619   4.281   4.969 -0.1943  0.7242 -1.3594
 4775TIP3    H235817   2.491   4.235   4.903 -0.3862 -0.5225 -0.1652
 4776TIP3   OH235818   5.614   6.641   2.034  0.1796  0.2557  0.9429
 4776TIP3    H135819   5.706   6.665   2.029  0.2363 -0.1470 -1.9449
 4776TIP3    H235820   5.567   6.724   2.040  0.6626  0.6885 -0.8017
 4777TIP3   OH235821   0.977   4.942   4.053 -0.4550  0.1259  0.3596
 4777TIP3    H135822   0.968   5.033   4.083 -0.4740  0.1858  0.1739
 4777TIP3    H235823   1.026   4.899   4.123 -0.6267  0.2301  0.5430
 4778TIP3   OH235824   0.387   0.260   2.910 -0.4067 -0.6593 -0.8572
 4778TIP3    H135825   0.418   0.191   2.850  0.4237 -1.4224  0.3961
 4778TIP3    H235826   0.436   0.245   2.991 -0.1295  1.4874 -0.5661
 4779TIP3   OH235827   4.941   3.637  15.197  0.7616 -0.1834 -0.0736
 4779TIP3    H135828   5.024   3.664  15.157  0.0349  1.8804 -0.2936
 4779TIP3    H235829   4.962   3.556  15.243  3.3533  1.1541  1.3309
 4780TIP3   OH235830   2.713   0.963  13.078 -0.0248 -0.1418  0.1310
 4780TIP3    H135831   2.678   1.051  13.065 -0.4188 -0.4090 -0.7037
 4780TIP3    H235832   2.781   0.954  13.012 -0.1401 -0.5459  0.0639
 4781TIP3   OH235833   6.017   3.130  14.133  0.2416  0.0045 -0.5802
 4781TIP3    H135834   5.969   3.173  14.062  0.1177  0.5337 -0.1796
 4781TIP3    H235835   6.101   3.176  14.136  0.6271 -0.6591 -1.0220
 4782TIP3   OH235836   2.939   3.308   2.470  0.3736  0.4448  0.5072
 4782TIP3    H135837   2.947   3.330   2.563 -0.8640 -0.6995  0.9176
 4782TIP3    H235838   2.854   3.264   2.463  1.4182 -1.5528 -0.7381
 4783TIP3   OH235839   0.954   1.026  10.899 -0.1420 -0.4983  0.6395
 4783TIP3    H135840   0.916   1.104  10.940  1.1956  0.7550 -0.3936
 4783TIP3    H235841   0.917   1.025  10.811  0.7749 -0.3004  0.2364
 4784TIP3   OH235842   3.866   1.497  11.404  0.2778  0.0282 -0.2874
 4784TIP3    H135843   3.798   1.564  11.395 -1.2814 -1.3916  0.3732
 4784TIP3    H235844   3.935   1.525  11.345 -0.6421  1.8189 -0.5910
 4785TIP3   OH235845   5.980   0.773  13.330 -0.2334 -0.1311 -0.7989
 4785TIP3    H135846   6.028   0.847  13.294 -0.3443 -0.1684 -1.0300
 4785TIP3    H235847   5.919   0.748  13.260 -2.3816  1.4938  0.3909
 4786TIP3   OH235848   2.690   6.715   4.299  0.0021  0.0993 -0.0405
 4786TIP3    H135849   2.687   6.697   4.205 -1.3684 -3.0041  0.4593
 4786TIP3    H235850   2.777   6.686   4.326 -0.7037 -2.1459  0.0545
 4787TIP3   OH235851   0.112   2.967   4.447 -0.0295  0.0062  0.0338
 4787TIP3    H135852   0.075   2.943   4.363  0.8454  1.8704 -0.9378
 4787TIP3    H235853   0.083   2.898   4.507 -0.6221 -1.3948 -1.7829
 4788TIP3   OH235854   5.705   4.597  12.333  0.2814  0.6459 -0.2870
 4788TIP3    H135855   5.707   4.657  12.408  1.0922  0.7439 -0.3810
 4788TIP3    H235856   5.718   4.654  12.257  1.3002  0.3430 -0.3585
 4789TIP3   OH235857   1.549   0.305   4.631 -0.0993  0.0334  0.1696
 4789TIP3    H135858   1.548   0.397   4.607  1.2087 -0.3209 -1.4462
 4789TIP3    H235859   1.466   0.271   4.599 -1.1268  0.8537  1.8411
 4790TIP3   OH235860   5.351   4.907   2.445  0.3676  0.3342  0.0602
 4790TIP3    H135861   5.332   4.823   2.404 -0.1467  0.1507  0.6496
 4790TIP3    H235862   5.383   4.884   2.532 -1.1347  0.7570  0.7624
 4791TIP3   OH235863   5.079   3.343  13.270  0.1344  0.0912 -0.4123
 4791TIP3    H135864   5.161   3.310  13.308  1.0278  0.6941 -1.7359
 4791TIP3    H235865   5.108   3.404  13.203 -1.4434  2.4064  0.8993
 4792TIP3   OH235866   5.007   6.278   2.567  0.4806 -0.7596  0.0354
 4792TIP3    H135867   5.061   6.200   2.553  0.3081 -0.5464 -2.2859
 4792TIP3    H235868   5.011   6.325   2.483 -0.9873  0.7364  0.7465
 4793TIP3   OH235869   6.771   6.185   3.247 -0.2431 -0.3747  0.1721
 4793TIP3    H135870   6.689   6.175   3.197 -1.7866  1.4627  2.1044
 4793TIP3    H235871   6.815   6.259   3.206 -0.5856 -0.0759  0.3284
 4794TIP3   OH235872   0.227   1.809  12.970  0.7876  0.5047  0.6654
 4794TIP3    H135873   0.295   1.742  12.968 -0.2093 -0.6471  2.7357
 4794TIP3    H235874   0.146   1.762  12.989 -0.0830  2.1934  1.4368
 4795TIP3   OH235875   1.251   1.945   1.755  0.3736  0.7637  0.0276
 4795TIP3    H135876   1.256   1.877   1.822  2.3697 -0.9636 -1.7219
 4795TIP3    H235877   1.290   2.022   1.796  0.3762  0.1429  1.2437
 4796TIP3   OH235878   6.698   5.381  14.360 -0.9331 -0.3850  0.7038
 4796TIP3    H135879   6.637   5.435  14.308 -0.7142  0.6447  1.4836
 4796TIP3    H235880   6.776   5.374  14.305 -0.6834  0.7397  0.8911
 4797TIP3   OH235881   0.035   3.306   3.326  0.2798 -0.1919 -0.1030
 4797TIP3    H135882  -0.024   3.296   3.400  1.2978 -0.7148  0.6634
 4797TIP3    H235883  -0.021   3.295   3.249 -1.1251  2.0902  0.5096
 4798TIP3   OH235884   6.295   1.578  17.144  0.6362  0.1809  0.1697
 4798TIP3    H135885   6.305   1.582  17.049  0.6707 -1.5303  0.0716
 4798TIP3    H235886   6.360   1.514  17.173  0.3972  0.4222  1.3007
 4799TIP3   OH235887   1.404   3.058   4.574  0.5505  0.0094  0.1659
 4799TIP3    H135888   1.448   3.135   4.612  0.8560 -0.3167  0.4785
 4799TIP3    H235889   1.436   2.984   4.626 -0.5935 -0.2039  0.5825
 4800TIP3   OH235890   2.574   2.188  16.828  0.1443 -0.1330  0.1781
 4800TIP3    H135891   2.532   2.254  16.773 -2.4227  0.0288  2.1526
 4800TIP3    H235892   2.542   2.104  16.794 -0.6869 -0.0797  0.8123
 4801TIP3   OH235893   1.430   5.942   4.774  0.5604  0.1980  0.2741
 4801TIP3    H135894   1.396   5.856   4.750 -0.6642  0.9820 -0.9604
 4801TIP3    H235895   1.525   5.935   4.762  0.3831 -0.7055 -0.6869
 4802TIP3   OH235896   6.360   6.635  13.854 -0.6312  0.0562  0.4571
 4802TIP3    H135897   6.351   6.728  13.836  1.9986  0.0853 -1.3189
 4802TIP3    H235898   6.334   6.592  13.773 -3.0654 -0.9427  1.6604
 4803TIP3   OH235899   5.035   1.744   0.654 -0.0723 -0.0435 -0.1969
 4803TIP3    H135900   5.094   1.698   0.714 -0.8472 -0.2340  0.4309
 4803TIP3    H235901   4.947   1.727   0.688 -0.7641 -2.1367 -2.7055
 4804TIP3   OH235902   3.623   3.100  12.104  0.1021 -0.1823 -0.2357
 4804TIP3    H135903   3.559   3.147  12.051 -0.2142 -0.5857 -0.2204
 4804TIP3    H235904   3.598   3.119  12.194 -1.0603 -1.7005 -0.1965
 4805TIP3   OH235905   2.381   1.118  13.834  0.2872  0.2009  0.0375
 4805TIP3    H135906   2.319   1.050  13.807 -0.1485  0.5732  0.0881
 4805TIP3    H235907   2.363   1.132  13.927  1.1688 -0.4349  0.3097
 4806TIP3   OH235908   4.332   2.676  10.747  0.0365 -0.3102 -0.0007
 4806TIP3    H135909   4.258   2.651  10.692 -0.0906 -2.3592  1.0176
 4806TIP3    H235910   4.304   2.755  10.791 -0.5026  0.4250 -1.5739
 4807TIP3   OH235911   1.729   0.767  15.061 -0.5570 -0.0926 -0.2154
 4807TIP3    H135912   1.687   0.788  14.977  0.9745  0.9775 -0.7647
 4807TIP3    H235913   1.820   0.746  15.037 -0.7581 -2.4799  0.9057
 4808TIP3   OH235914   5.957   1.895  16.611  0.2262  0.4522 -0.1751
 4808TIP3    H135915   5.880   1.881  16.666 -0.2181  0.0391 -0.8788
 4808TIP3    H235916   5.967   1.990  16.606 -0.2716  0.5089 -0.1237
 4809TIP3   OH235917   3.426   6.440   1.213 -0.2051  0.0592 -0.0176
 4809TIP3    H135918   3.362   6.475   1.150 -1.5461 -1.2553  0.5598
 4809TIP3    H235919   3.385   6.454   1.299  0.5871 -0.1991  0.4103
 4810TIP3   OH235920   2.298   0.357   0.144 -0.4721 -0.0138  0.2554
 4810TIP3    H135921   2.378   0.317   0.110 -0.7880 -1.1064  0.7456
 4810TIP3    H235922   2.252   0.388   0.066  0.7876  1.3463  0.0329
 4811TIP3   OH235923   3.548   2.243  12.248 -0.5483 -0.0537  0.5738
 4811TIP3    H135924   3.567   2.333  12.277 -0.2977  0.3648 -0.8376
 4811TIP3    H235925   3.624   2.218  12.197  1.2512 -2.5820  4.0467
 4812TIP3   OH235926   4.569   4.833  16.000 -1.0577 -0.0573 -0.3247
 4812TIP3    H135927   4.606   4.880  16.075  0.2346 -2.2220  0.4853
 4812TIP3    H235928   4.476   4.854  16.003 -0.6770  1.6820  0.5357
 4813TIP3   OH235929   3.387   5.845   2.302  0.4238 -0.1884 -0.2892
 4813TIP3    H135930   3.447   5.909   2.264  1.7426 -0.3818  1.3458
 4813TIP3    H235931   3.420   5.760   2.272 -0.4776 -0.1965 -1.3057
 4814TIP3   OH235932   4.932   4.791   2.398  0.0349  0.5418  0.0054
 4814TIP3    H135933   4.941   4.814   2.306  0.1727 -0.7659 -0.3382
 4814TIP3    H235934   4.852   4.835   2.427  0.1002  1.1280 -0.6758
 4815TIP3   OH235935   6.158   1.894  12.701 -0.4577  0.1676  0.7594
 4815TIP3    H135936   6.140   1.945  12.780 -1.9490  0.6803  0.1264
 4815TIP3    H235937   6.103   1.934  12.634 -1.0146 -1.7139  0.0355
 4816TIP3   OH235938   1.824   2.568   4.484  0.0974  0.5630 -0.0544
 4816TIP3    H135939   1.781   2.539   4.403  0.2468  0.3943 -0.0740
 4816TIP3    H235940   1.917   2.560   4.465  0.1287  0.1497  0.2673
 4817TIP3   OH235941   0.093   5.334  15.423 -0.0350  0.1268 -0.7021
 4817TIP3    H135942   0.110   5.408  15.482  0.5587  0.2376 -1.0129
 4817TIP3    H235943   0.006   5.302  15.450 -0.3603  1.0253 -0.6657
 4818TIP3   OH235944   4.976   0.269   3.356  0.0412  0.0013 -0.5083
 4818TIP3    H135945   5.057   0.264   3.306  0.6764  1.5983  0.2945
 4818TIP3    H235946   4.920   0.202   3.317  0.4835  1.1590 -3.3244
 4819TIP3   OH235947   4.751   3.292  15.765 -0.4220  0.5079 -0.3929
 4819TIP3    H135948   4.843   3.296  15.738 -0.6796 -0.3456 -1.4973
 4819TIP3    H235949   4.726   3.383  15.779  0.1774  0.8853 -1.6037
 4820TIP3   OH235950   4.816   3.246  13.738  0.9081 -0.1061  0.2777
 4820TIP3    H135951   4.806   3.227  13.645 -0.4871  0.9645  0.1825
 4820TIP3    H235952   4.884   3.313  13.742 -0.2535  1.1594 -0.1749
 4821TIP3   OH235953   5.495   1.960  14.034  0.0984  0.3015  0.3178
 4821TIP3    H135954   5.582   1.998  14.024 -1.0549  3.1413  0.2312
 4821TIP3    H235955   5.472   1.931  13.945  1.3328 -1.5770  0.5432
 4822TIP3   OH235956   6.144   5.266  16.440 -0.2414  0.1287  0.1984
 4822TIP3    H135957   6.128   5.198  16.374  0.0067  1.2186 -1.0223
 4822TIP3    H235958   6.144   5.219  16.523  0.7859 -1.5224 -0.6786
 4823TIP3   OH235959   3.088   6.723  13.910  0.3675 -0.0587  0.0704
 4823TIP3    H135960   3.165   6.776  13.891  1.0992 -0.3661  1.9782
 4823TIP3    H235961   3.055   6.756  13.993  0.4883 -2.1591  1.0072
 4824TIP3   OH235962   5.321   1.823  13.037  0.2818  0.1726 -0.1604
 4824TIP3    H135963   5.414   1.845  13.028  0.0903  1.0035 -0.2279
 4824TIP3    H235964   5.279   1.865  12.962  0.3023 -3.3367 -2.3478
 4825TIP3   OH235965   5.750   4.393  12.096  0.1893 -0.3848 -0.1675
 4825TIP3    H135966   5.714   4.477  12.125 -0.4057  0.0574 -2.0427
 4825TIP3    H235967   5.832   4.415  12.053 -0.1806 -0.6834 -1.0600
 4826TIP3   OH235968   0.237   0.865  14.211  0.2010  0.1561  0.4077
 4826TIP3    H135969   0.163   0.848  14.270  1.5047 -2.2666  1.5156
 4826TIP3    H235970   0.306   0.895  14.269  0.7934  0.0470 -0.2336
 4827TIP3   OH235971   2.143   5.132  12.782  0.0356 -0.9034 -0.4541
 4827TIP3    H135972   2.204   5.168  12.717 -2.4869  1.2474 -1.7930
 4827TIP3    H235973   2.170   5.173  12.865 -0.4006  1.1942 -1.2880
 4828TIP3   OH235974   2.908   6.231   2.332 -0.1668 -0.0276 -0.1434
 4828TIP3    H135975   2.900   6.325   2.352  1.3835  0.8104 -2.9428
 4828TIP3    H235976   2.818   6.199   2.332 -0.7175  1.4168  1.0095
 4829TIP3   OH235977   6.617   6.679  14.954 -0.7920 -0.1766  0.1559
 4829TIP3    H135978   6.661   6.703  15.036 -3.0087  0.7795  1.1631
 4829TIP3    H235979   6.658   6.598  14.927  0.1556 -0.4131  2.1324
 4830TIP3   OH235980   6.311   1.091  10.273 -0.0183  0.2410 -0.1973
 4830TIP3    H135981   6.229   1.140  10.272 -0.6016 -0.7387 -0.4503
 4830TIP3    H235982   6.285   1.000  10.280  0.9916 -0.2075 -1.7881
 4831TIP3   OH235983   0.328   0.609  16.748 -0.1277  0.3180 -0.3692
 4831TIP3    H135984   0.403   0.622  16.806 -0.4549  1.5877 -0.2012
 4831TIP3    H235985   0.323   0.690  16.697 -0.2683 -0.5023 -1.6940
 4832TIP3   OH235986   0.174   0.465   3.720  0.0867  0.2182  0.2545
 4832TIP3    H135987   0.229   0.435   3.793  1.5792  2.6148  0.2192
 4832TIP3    H235988   0.176   0.393   3.657  1.0052 -0.8131  1.4150
 4833TIP3   OH235989   0.005   4.753  14.155 -0.2135  0.5745 -0.1175
 4833TIP3    H135990   0.067   4.681  14.169 -1.2453 -0.7183 -1.7426
 4833TIP3    H235991   0.052   4.815  14.098 -0.0553  0.0728 -0.5473
 4834TIP3   OH235992   4.138   5.201  14.755  0.6981  0.0569 -0.0287
 4834TIP3    H135993   4.193   5.134  14.713  2.5343  1.4597  0.0439
 4834TIP3    H235994   4.184   5.224  14.835 -0.3847  0.7668  0.4151
 4835TIP3   OH235995   1.169   2.023  16.846 -0.2821 -0.4795  1.0207
 4835TIP3    H135996   1.261   2.012  16.822 -0.5600 -0.5542 -0.0813
 4835TIP3    H235997   1.125   1.947  16.807 -1.2649  1.1244 -1.2355
 4836TIP3   OH235998   2.503   4.145   4.710  0.0752 -0.2373 -0.0835
 4836TIP3    H135999   2.509   4.123   4.617  1.0358 -0.1128 -0.0613
 4836TIP3    H236000   2.589   4.124   4.745 -0.9832 -2.7007  1.3241
 4837TIP3   OH236001   5.275   1.824  13.697 -0.2555 -0.4345  0.2450
 4837TIP3    H136002   5.210   1.863  13.639  0.8893  1.7615  0.3295
 4837TIP3    H236003   5.352   1.881  13.689  0.8892 -1.6445  1.8316
 4838TIP3   OH236004   4.843   0.712  14.871 -0.3178  0.3376  0.4695
 4838TIP3    H136005   4.840   0.636  14.813 -2.3339  0.3843  0.4657
 4838TIP3    H236006   4.877   0.783  14.816 -1.3025  0.1516 -0.4056
 4839TIP3   OH236007   5.047   5.132  13.846  0.0215 -0.0550 -0.1815
 4839TIP3    H136008   5.038   5.059  13.784 -1.0112 -0.6043  0.5770
 4839TIP3    H236009   4.958   5.161  13.862  0.3192  0.4641  0.5943
 4840TIP3   OH236010   4.269   1.718   5.603 -0.2767  0.1049  0.0530
 4840TIP3    H136011   4.228   1.730   5.518 -1.2966 -3.3240 -0.0729
 4840TIP3    H236012   4.223   1.779   5.661 -1.0404  0.9585 -1.4013
 4841TIP3   OH236013   2.675   0.248   6.057 -0.3795 -0.0577 -0.0526
 4841TIP3    H136014   2.719   0.299   6.126 -1.3533 -0.4331  0.8617
 4841TIP3    H236015   2.744   0.191   6.023  0.5686  1.3715 -0.6371
 4842TIP3   OH236016   4.439   1.160   1.658 -0.3020  0.5402  0.0846
 4842TIP3    H136017   4.390   1.218   1.716 -0.6276  1.1440 -0.7682
 4842TIP3    H236018   4.399   1.074   1.670 -0.3750  0.6628  0.7372
 4843TIP3   OH236019   0.935   5.720  14.879 -0.0472 -0.6156  0.2172
 4843TIP3    H136020   0.981   5.716  14.962  0.8390  0.4356 -0.1865
 4843TIP3    H236021   0.888   5.804  14.881  0.4917 -0.2788 -0.5728
 4844TIP3   OH236022   5.925   2.916   3.872  0.1543  0.5006 -0.3915
 4844TIP3    H136023   5.990   2.970   3.917 -1.8065  1.7055  1.1813
 4844TIP3    H236024   5.944   2.929   3.779  1.2017  2.0731 -0.0106
 4845TIP3   OH236025   5.670   1.831   5.686 -0.0594  0.3879  0.0795
 4845TIP3    H136026   5.650   1.752   5.736  1.5933 -0.0544  0.0999
 4845TIP3    H236027   5.646   1.809   5.596 -0.9797  0.4042  0.3117
 4846TIP3   OH236028   0.602   1.985  15.329 -0.0278  0.1789  0.9736
 4846TIP3    H136029   0.625   2.019  15.242  0.9567 -1.0138  0.7311
 4846TIP3    H236030   0.519   1.939  15.315 -0.5406  1.0870  0.9618
 4847TIP3   OH236031   5.096   5.162   2.018  0.8727 -0.3023  0.1662
 4847TIP3    H136032   5.174   5.208   1.988  0.9354 -0.9980 -0.7976
 4847TIP3    H236033   5.050   5.225   2.073  0.9169  0.9229 -1.1570
 4848TIP3   OH236034   2.580   5.453  12.437  0.3128 -0.3305  0.7950
 4848TIP3    H136035   2.675   5.455  12.450  0.5545 -2.0798 -0.4778
 4848TIP3    H236036   2.568   5.429  12.345 -1.3864  1.7618  0.3818
 4849TIP3   OH236037   2.552   0.545   1.906 -0.1065 -0.0300  0.2726
 4849TIP3    H136038   2.610   0.529   1.831  0.5799  1.3289  0.4744
 4849TIP3    H236039   2.507   0.627   1.884 -0.8424 -0.2895  0.7877
 4850TIP3   OH236040   2.405   4.523   2.983 -0.2288 -0.3287  0.1818
 4850TIP3    H136041   2.340   4.498   2.918  1.4079 -0.4918 -1.4861
 4850TIP3    H236042   2.393   4.618   2.994 -0.8631 -0.3930  0.0714
 4851TIP3   OH236043   1.461   4.069   4.650  0.4581 -0.2366 -0.0239
 4851TIP3    H136044   1.437   4.044   4.739  0.6420  3.3838  1.2085
 4851TIP3    H236045   1.379   4.061   4.600 -0.4678  0.6272  1.2729
 4852TIP3   OH236046   2.940   4.489   6.116 -0.0177 -0.6444 -0.5384
 4852TIP3    H136047   2.866   4.511   6.172  0.7983  0.0946  0.2976
 4852TIP3    H236048   3.016   4.497   6.173  0.7142 -1.3601 -1.3830
 4853TIP3   OH236049   4.543   2.551   6.177 -0.0488 -0.1145  0.0815
 4853TIP3    H136050   4.614   2.532   6.238  0.2999  1.7093  0.3270
 4853TIP3    H236051   4.584   2.603   6.108 -0.4985 -1.9454 -1.6207
 4854TIP3   OH236052   5.092   6.392  12.264  0.1107 -0.9445 -0.3906
 4854TIP3    H136053   5.100   6.483  12.234 -0.2801 -1.4159 -2.0462
 4854TIP3    H236054   5.178   6.370  12.298  0.5266 -0.2821 -0.9764
 4855TIP3   OH236055   6.001   4.441   2.254 -0.0094  0.8835  0.1288
 4855TIP3    H136056   6.063   4.469   2.322  1.2990  0.4492 -0.8374
 4855TIP3    H236057   5.926   4.407   2.302  0.5306  1.3550  1.3429
 4856TIP3   OH236058   0.064   2.038  12.370  0.2008  0.0043 -0.0595
 4856TIP3    H136059  -0.007   2.074  12.424 -0.5386 -1.0631 -0.2937
 4856TIP3    H236060   0.118   2.114  12.349 -0.7488  0.8106  0.2968
 4857TIP3   OH236061   2.082   6.323  14.027  0.0001  0.3606  0.3202
 4857TIP3    H136062   2.093   6.410  14.067  0.5564  0.2324  0.4485
 4857TIP3    H236063   2.119   6.332  13.939 -0.7177  0.4859  0.0216
 4858TIP3   OH236064   1.070   4.108  14.364  0.2365 -0.6757  0.4102
 4858TIP3    H136065   1.065   4.185  14.421  0.4310  0.0484 -0.5317
 4858TIP3    H236066   1.060   4.033  14.424 -1.0700  0.0993  1.2092
 4859TIP3   OH236067   2.517   3.995  14.619 -0.3792  0.2934  0.0648
 4859TIP3    H136068   2.515   4.082  14.660  1.8825  0.4957 -0.1500
 4859TIP3    H236069   2.493   3.935  14.690  0.6746  0.8804  0.9475
 4860TIP3   OH236070   1.900   3.519   5.380  0.3966  0.3448  0.0741
 4860TIP3    H136071   1.896   3.450   5.313  0.8832  2.2814 -2.0552
 4860TIP3    H236072   1.991   3.519   5.409 -0.2449 -1.9969  2.5612
 4861TIP3   OH236073   3.403   3.775  16.719 -0.0017  0.0695  0.0317
 4861TIP3    H136074   3.319   3.743  16.754  0.0619 -0.3309 -0.1733
 4861TIP3    H236075   3.465   3.765  16.791  0.5027 -2.2916 -0.6427
 4862TIP3   OH236076   5.120   5.090   2.420  0.4967  0.2018 -0.1535
 4862TIP3    H136077   5.192   5.125   2.368  1.5709 -0.5207  0.8134
 4862TIP3    H236078   5.152   5.006   2.453 -1.1035 -0.5348 -0.3859
 4863TIP3   OH236079   5.228   4.589  15.439  0.4510 -0.4712  0.4816
 4863TIP3    H136080   5.134   4.598  15.422  0.6561  0.0768 -0.4192
 4863TIP3    H236081   5.263   4.548  15.360  0.9204 -1.0486  0.9763
 4864TIP3   OH236082   3.038   3.601  13.273  0.1232  0.1166 -0.0684
 4864TIP3    H136083   3.131   3.579  13.271 -0.3922 -2.4420  0.6373
 4864TIP3    H236084   2.994   3.519  13.255 -2.0310  1.0916  0.4872
 4865TIP3   OH236085   4.241   1.608  14.882  0.1623  0.7377 -0.5214
 4865TIP3    H136086   4.193   1.684  14.850 -0.2858  0.9634  0.6518
 4865TIP3    H236087   4.295   1.642  14.954  2.7837  0.6875 -2.3072
 4866TIP3   OH236088   5.894   1.726   3.067  0.7352 -0.5170 -0.0304
 4866TIP3    H136089   5.884   1.656   3.131  2.1943  0.1732  1.0113
 4866TIP3    H236090   5.963   1.782   3.103  1.2633  0.1649 -1.9825
 4867TIP3   OH236091   5.495   5.802  14.958  0.6478  0.5229 -0.0344
 4867TIP3    H136092   5.472   5.711  14.939 -2.0446  0.9165  0.8921
 4867TIP3    H236093   5.536   5.834  14.878  0.0254 -1.0192 -1.0122
 4868TIP3   OH236094   1.999   1.452  16.955 -0.6217  0.0877  0.1728
 4868TIP3    H136095   1.956   1.368  16.945  1.4683 -1.1942  1.2144
 4868TIP3    H236096   2.036   1.471  16.869  1.2632 -1.5069  0.5625
 4869TIP3   OH236097   0.855   3.982  12.804  0.2176  0.3067  0.6840
 4869TIP3    H136098   0.925   3.928  12.841  0.2451 -0.0661  0.1116
 4869TIP3    H236099   0.787   3.920  12.778 -0.1250  0.6252  0.8088
 4870TIP3   OH236100   3.340   4.400  15.331 -0.6923 -0.2374  0.4330
 4870TIP3    H136101   3.357   4.343  15.406  1.8916 -0.0450  0.0957
 4870TIP3    H236102   3.343   4.341  15.255 -1.6463 -0.1761  0.3344
 4871TIP3   OH236103   0.137   6.122   2.118  0.1114 -0.2444  0.2709
 4871TIP3    H136104   0.212   6.065   2.106  0.4684 -0.0431  1.4570
 4871TIP3    H236105   0.166   6.208   2.087  1.6936  0.7530  3.9182
 4872TIP3   OH236106   6.085   3.906  15.182  0.0179 -0.1480 -0.2741
 4872TIP3    H136107   6.028   3.831  15.199 -0.0676  0.1415  0.7452
 4872TIP3    H236108   6.102   3.944  15.268 -0.2600  1.2444 -0.8136
 4873TIP3   OH236109   2.067   5.935   0.766 -0.7000  0.4161  0.8782
 4873TIP3    H136110   1.988   5.886   0.741  0.1161 -0.3077 -0.4391
 4873TIP3    H236111   2.117   5.874   0.821 -0.3914  0.3149  0.4934
 4874TIP3   OH236112   5.100   5.977  13.974  0.1070 -0.3262 -0.4180
 4874TIP3    H136113   5.043   5.951  13.901  2.3350 -0.9163 -2.0804
 4874TIP3    H236114   5.134   5.894  14.008  1.5621  0.0377 -0.8928
 4875TIP3   OH236115   1.596   0.030  15.629  0.0477 -0.0977  0.3136
 4875TIP3    H136116   1.639  -0.045  15.588  1.4266  0.1976  1.1619
 4875TIP3    H236117   1.507  -0.000  15.645 -1.6761  0.6505 -5.4151
 4876TIP3   OH236118   2.706   4.280  15.689  0.2209 -0.7892  0.7094
 4876TIP3    H136119   2.623   4.329  15.689  1.7159  1.9867 -0.7365
 4876TIP3    H236120   2.721   4.260  15.597  1.7146 -0.1336  0.7862
 4877TIP3   OH236121   5.480   0.227  11.094  0.5075 -0.6202 -0.1267
 4877TIP3    H136122   5.422   0.161  11.057 -0.3682  0.2337 -0.3146
 4877TIP3    H236123   5.562   0.180  11.110  0.0491 -1.6427 -0.6537
 4878TIP3   OH236124   2.383   5.989  11.354 -0.2942  0.4831  0.4777
 4878TIP3    H136125   2.453   6.053  11.366  1.1529 -1.2208  1.6805
 4878TIP3    H236126   2.425   5.917  11.305 -1.4076 -0.2609  0.5895
 4879TIP3   OH236127   6.347   2.426  13.989  0.4383 -0.0191  0.2691
 4879TIP3    H136128   6.410   2.494  14.011  0.0649  0.3286  0.2633
 4879TIP3    H236129   6.279   2.433  14.056 -0.0648  0.2178 -0.2568
 4880TIP3   OH236130   3.504   5.665   2.584 -0.5884 -0.0642  0.1490
 4880TIP3    H136131   3.409   5.674   2.588 -0.6555  0.1696 -1.3494
 4880TIP3    H236132   3.524   5.671   2.490  0.6241 -2.8723  0.1471
 4881TIP3   OH236133   1.463   5.105   5.617 -0.3986  0.0639 -0.2583
 4881TIP3    H136134   1.552   5.081   5.644  0.0307  0.5413 -1.1807
 4881TIP3    H236135   1.462   5.201   5.622 -2.0549  0.0262  3.3178
 4882TIP3   OH236136   5.174   0.610  17.151  0.6910  0.4300 -0.2249
 4882TIP3    H136137   5.182   0.583  17.242 -0.3120 -0.2432 -0.3321
 4882TIP3    H236138   5.108   0.679  17.152  1.2116  0.9460 -0.3555
 4883TIP3   OH236139   4.536   0.178  15.127  0.0073  0.4988  0.0106
 4883TIP3    H136140   4.530   0.092  15.084 -0.9378 -0.5352  2.0555
 4883TIP3    H236141   4.608   0.167  15.189 -0.3020  1.0910  0.4745
 4884TIP3   OH236142   4.540   0.038  13.267  0.2218 -0.1462  0.0468
 4884TIP3    H136143   4.545  -0.036  13.327  0.5225 -0.6979 -0.6536
 4884TIP3    H236144   4.540  -0.001  13.179  0.1608  0.6654 -0.3257
 4885TIP3   OH236145   3.153   1.647  10.689 -0.1388 -0.2404  0.2694
 4885TIP3    H136146   3.087   1.623  10.624  0.8532  0.7927 -1.1910
 4885TIP3    H236147   3.105   1.690  10.759 -1.0442  0.2681 -0.6489
 4886TIP3   OH236148   2.098   1.065   2.424 -0.0870 -0.2718 -0.5409
 4886TIP3    H136149   2.088   1.159   2.410 -1.6213 -0.3727 -0.3506
 4886TIP3    H236150   2.171   1.057   2.485 -0.4034  0.8509  0.0102
 4887TIP3   OH236151   4.359   2.072   5.686  0.1609 -0.3078  0.0434
 4887TIP3    H136152   4.264   2.056   5.681  0.0914 -0.2599  1.0528
 4887TIP3    H236153   4.366   2.163   5.715  0.5226 -0.2938 -0.0902
 4888TIP3   OH236154   0.650   3.603   2.936 -0.0058 -0.0688 -0.3376
 4888TIP3    H136155   0.612   3.680   2.979  1.2657  0.8374 -0.7675
 4888TIP3    H236156   0.576   3.543   2.926 -0.5136 -0.0332  2.3899
 4889TIP3   OH236157   2.894   1.655  15.119 -0.2366 -0.2839 -0.3890
 4889TIP3    H136158   2.854   1.673  15.204 -1.3308 -0.9239 -0.7506
 4889TIP3    H236159   2.963   1.720  15.111  0.0989 -0.4048  1.1253
 4890TIP3   OH236160   0.094   0.189   4.925  0.2089  0.3631  0.2671
 4890TIP3    H136161   0.045   0.178   5.007  1.9110 -0.6879  1.1741
 4890TIP3    H236162   0.184   0.170   4.947  0.8925  1.0838 -1.6531
 4891TIP3   OH236163   5.697   1.924  16.743 -0.1449 -0.2062 -0.7233
 4891TIP3    H136164   5.674   1.899  16.653  0.2884  1.4659 -1.3324
 4891TIP3    H236165   5.616   1.960  16.778 -0.2414 -0.6114 -0.5238
 4892TIP3   OH236166   0.058   5.941  13.592  0.4044 -0.1879 -0.2947
 4892TIP3    H136167   0.028   5.949  13.682  2.3250 -0.4732  0.4307
 4892TIP3    H236168   0.095   6.026  13.571  0.3923 -0.2668 -0.6376
 4893TIP3   OH236169   0.410   2.486   6.265 -0.2155  0.3531  0.5596
 4893TIP3    H136170   0.493   2.523   6.294  0.4296 -1.0258  0.5408
 4893TIP3    H236171   0.434   2.408   6.216 -1.5723 -0.9044  1.8055
 4894TIP3   OH236172   6.291   3.799   6.447 -0.0616  0.2707 -0.6136
 4894TIP3    H136173   6.292   3.703   6.440 -1.2313  0.3161 -1.7057
 4894TIP3    H236174   6.281   3.816   6.540  0.2692 -0.6647 -0.3955
 4895TIP3   OH236175   6.472   2.175   2.466 -0.1767  0.2534 -0.1456
 4895TIP3    H136176   6.429   2.260   2.467 -1.6347 -0.4312 -1.0456
 4895TIP3    H236177   6.405   2.113   2.494  0.5798 -0.7114 -0.3720
 4896TIP3   OH236178   4.547   3.395  14.572  0.3020 -0.4096 -0.2262
 4896TIP3    H136179   4.595   3.457  14.627  0.2581  0.4551 -1.1428
 4896TIP3    H236180   4.506   3.449  14.505 -0.5756 -1.3267 -0.4477
 4897TIP3   OH236181   6.295   2.812   2.837 -0.3087  0.4141 -0.4945
 4897TIP3    H136182   6.202   2.793   2.832  0.0250 -2.1965  1.1702
 4897TIP3    H236183   6.328   2.794   2.749 -0.7554 -3.2767 -0.0654
 4898TIP3   OH236184   6.472   2.062   1.897 -0.2204  0.2737 -0.1085
 4898TIP3    H136185   6.545   2.001   1.882 -1.0103 -1.2064  1.6883
 4898TIP3    H236186   6.481   2.088   1.989 -0.1840  2.5755 -0.7044
 4899TIP3   OH236187   2.510   4.455  12.105  0.1615 -0.2488  0.5380
 4899TIP3    H136188   2.520   4.550  12.110  1.6818 -0.3109 -0.6954
 4899TIP3    H236189   2.449   4.434  12.176  0.1245  1.5839  1.1063
 4900TIP3   OH236190   0.346   0.796  11.542  0.0700  0.7810 -0.4507
 4900TIP3    H136191   0.296   0.727  11.497  0.2879 -0.5178  1.2091
 4900TIP3    H236192   0.304   0.878  11.515  0.7411  0.1796 -3.6685
 4901TIP3   OH236193   1.794   0.268  15.538 -0.3186  0.3464  0.0228
 4901TIP3    H136194   1.845   0.203  15.490  0.5815  0.9740  0.1033
 4901TIP3    H236195   1.772   0.226  15.621  1.9993  0.8100  0.9452
 4902TIP3   OH236196   3.423   1.397   3.784 -0.4001  0.5949 -0.7447
 4902TIP3    H136197   3.333   1.406   3.753 -1.1272  3.3290  1.7039
 4902TIP3    H236198   3.415   1.371   3.876  1.4880 -1.8114 -1.1469
 4903TIP3   OH236199   1.917   2.566  16.694  0.0357  0.5715 -0.0931
 4903TIP3    H136200   1.901   2.655  16.726  0.3742  1.1213 -1.3777
 4903TIP3    H236201   1.960   2.522  16.766  2.3835  2.2829 -0.3267
 4904TIP3   OH236202   0.520   2.179  12.425 -0.2660  0.2926 -0.2694
 4904TIP3    H136203   0.534   2.262  12.378  1.1960 -0.5647 -1.4426
 4904TIP3    H236204   0.515   2.205  12.517  3.1521  1.4951 -0.2585
 4905TIP3   OH236205   6.359   6.166   3.834 -0.3159  0.3747 -0.0342
 4905TIP3    H136206   6.328   6.198   3.750  0.2998 -1.6140 -1.0977
 4905TIP3    H236207   6.406   6.240   3.872  0.0052  1.1179 -1.7792
 4906TIP3   OH236208   5.741   1.002  13.100 -0.3127 -0.0632  0.0372
 4906TIP3    H136209   5.662   1.052  13.078  0.1745  0.3788 -0.7424
 4906TIP3    H236210   5.813   1.057  13.069  0.2032 -2.2296 -3.0086
 4907TIP3   OH236211   4.535   4.167   4.792  0.8193  0.5613  0.3710
 4907TIP3    H136212   4.596   4.098   4.820  0.4761 -0.4656 -1.2770
 4907TIP3    H236213   4.541   4.234   4.860  1.5790 -0.8501  1.7552
 4908TIP3   OH236214   4.648   0.598  16.674 -0.1454  0.2536 -0.1150
 4908TIP3    H136215   4.686   0.576  16.589  0.2087  1.4589 -0.2865
 4908TIP3    H236216   4.706   0.665  16.711 -1.3846  1.2371  0.1673
 4909TIP3   OH236217   6.335   4.056   4.183 -0.2384 -0.3040  0.4968
 4909TIP3    H136218   6.356   3.972   4.224  1.0446  0.1905  0.8983
 4909TIP3    H236219   6.296   4.032   4.099  1.2221 -1.3240  0.0687
 4910TIP3   OH236220   1.879   5.826  10.886 -0.4483 -0.1771  0.2020
 4910TIP3    H136221   1.787   5.813  10.862 -0.4073  0.0904 -0.0980
 4910TIP3    H236222   1.876   5.880  10.965 -0.4876  2.0489 -1.2485
 4911TIP3   OH236223   3.096   5.184   1.507  0.0706  0.7051 -0.6386
 4911TIP3    H136224   3.015   5.174   1.457 -0.7682 -1.3845  0.9847
 4911TIP3    H236225   3.068   5.215   1.593  0.3353 -3.5590  1.2544
 4912TIP3   OH236226   0.180   1.232   1.215 -0.4001  0.0647 -0.2460
 4912TIP3    H136227   0.230   1.260   1.292  0.4792 -0.4177 -0.6194
 4912TIP3    H236228   0.201   1.139   1.207 -0.9332 -0.0111 -0.7430
 4913TIP3   OH236229   6.748   6.263  15.209  0.4949 -0.0163 -0.7092
 4913TIP3    H136230   6.822   6.202  15.215  1.2549  0.5962 -2.9588
 4913TIP3    H236231   6.789   6.349  15.205 -0.3306  0.3429 -1.7954
 4914TIP3   OH236232   4.302   3.727  13.141  0.0577  0.6134  0.0199
 4914TIP3    H136233   4.388   3.762  13.118 -0.1501  0.2040 -1.5204
 4914TIP3    H236234   4.317   3.678  13.222  1.5169 -0.2413 -0.7148
 4915TIP3   OH236235   2.890   1.756   5.627 -0.5175  0.3338  0.1875
 4915TIP3    H136236   2.870   1.664   5.643 -0.1060  0.4862  1.8130
 4915TIP3    H236237   2.805   1.798   5.615 -0.8675  0.0916  1.6488
 4916TIP3   OH236238   2.715   1.216  11.560 -0.2477  0.2723  0.6692
 4916TIP3    H136239   2.805   1.231  11.530 -0.4440  1.2768  0.5658
 4916TIP3    H236240   2.673   1.171  11.486  0.4124 -1.0821  1.0848
 4917TIP3   OH236241   3.000   6.023   3.528  0.2627  0.3906  0.2801
 4917TIP3    H136242   3.071   6.084   3.549  0.0205  0.5346  0.7073
 4917TIP3    H236243   3.044   5.944   3.498  0.6484  0.0566  1.6584
 4918TIP3   OH236244   5.121   3.611   1.873  0.4955  0.1232  0.5007
 4918TIP3    H136245   5.059   3.659   1.818  0.3803  1.5666  1.8160
 4918TIP3    H236246   5.190   3.584   1.813 -0.8300 -0.5622 -0.7902
 4919TIP3   OH236247   0.054   5.065   6.032 -0.2166  0.2613  0.3754
 4919TIP3    H136248  -0.021   5.080   5.974 -2.0504 -1.7198  2.0637
 4919TIP3    H236249   0.081   4.975   6.015 -1.5271 -0.8032  3.1767
 4920TIP3   OH236250   4.585   6.694  16.759  0.4369  0.3109  0.1222
 4920TIP3    H136251   4.662   6.647  16.726  0.3530  0.5880 -0.4718
 4920TIP3    H236252   4.622   6.760  16.819  0.7455  0.9780 -0.7699
 4921TIP3   OH236253   5.805   6.531   3.275  0.1789  0.3150 -0.0732
 4921TIP3    H136254   5.731   6.471   3.281 -0.4995  1.1329  0.0051
 4921TIP3    H236255   5.848   6.509   3.192 -0.7920  0.5290 -0.6457
 4922TIP3   OH236256   0.106   4.175   6.645  0.3234 -0.2539 -0.7366
 4922TIP3    H136257   0.148   4.122   6.713  0.2915  1.4153  0.6667
 4922TIP3    H236258   0.178   4.223   6.604  0.1401  0.1678 -0.5704
 4923TIP3   OH236259   3.948   1.752   4.220  0.2915  0.0139  0.0316
 4923TIP3    H136260   3.918   1.724   4.307  0.1556  0.0043 -0.0177
 4923TIP3    H236261   4.025   1.806   4.237  0.5936 -0.4441  0.1245
 4924TIP3   OH236262   2.289   5.751  13.435 -0.1258  0.0683  0.3561
 4924TIP3    H136263   2.225   5.681  13.444 -0.5161  0.5045  1.1180
 4924TIP3    H236264   2.260   5.818  13.497 -0.2669  1.2868 -0.9654
 4925TIP3   OH236265   5.006   3.186   3.295 -0.0777 -0.1398  0.4479
 4925TIP3    H136266   5.082   3.166   3.241 -0.2146  0.8244 -0.1246
 4925TIP3    H236267   4.986   3.104   3.340  2.0769 -0.0902  1.5998
 4926TIP3   OH236268   1.112   6.747  13.854  0.7688  0.4813  0.3704
 4926TIP3    H136269   1.130   6.757  13.948  0.1997  0.1116  0.5270
 4926TIP3    H236270   1.071   6.830  13.829  0.2532  0.3065  0.6203
 4927TIP3   OH236271   1.734   3.992   4.630 -0.6518 -0.4961 -0.0776
 4927TIP3    H136272   1.642   4.016   4.620 -0.9887 -0.9902  1.4778
 4927TIP3    H236273   1.773   4.067   4.674 -0.3192 -0.3026 -0.7052
 4928TIP3   OH236274   4.431   1.049  12.229 -0.4989  0.6488 -0.1692
 4928TIP3    H136275   4.337   1.068  12.232 -0.5765  0.1807  0.8980
 4928TIP3    H236276   4.440   0.989  12.155 -1.2780 -0.4095  0.5588
 4929TIP3   OH236277   2.422   6.441   4.529 -0.2523  0.0425 -0.1713
 4929TIP3    H136278   2.458   6.371   4.583 -1.6815  0.1802  1.0082
 4929TIP3    H236279   2.366   6.491   4.588 -2.2826 -0.1019 -1.8850
 4930TIP3   OH236280   2.036   5.067  13.093  0.0214 -0.0789 -0.0657
 4930TIP3    H136281   2.073   5.155  13.094  1.6943 -0.7623  1.2201
 4930TIP3    H236282   1.978   5.064  13.169 -1.4615  0.4256 -1.1076
 4931TIP3   OH236283   2.353   5.066   3.171  0.3819  0.4542 -0.6469
 4931TIP3    H136284   2.392   5.036   3.253  0.4756  0.0514 -0.8378
 4931TIP3    H236285   2.369   4.995   3.109 -1.4709 -0.1462 -0.5021
 4932TIP3   OH236286   2.651   0.770  16.269 -0.6117  0.1056  0.4440
 4932TIP3    H136287   2.604   0.692  16.296  0.1735 -0.2343  0.8730
 4932TIP3    H236288   2.694   0.744  16.187 -0.1666  0.0044  0.7045
 4933TIP3   OH236289   4.187   1.484   0.264 -0.2536  0.0211 -0.1975
 4933TIP3    H136290   4.113   1.440   0.306  0.9566 -2.0689 -0.1273
 4933TIP3    H236291   4.200   1.436   0.182  1.5649 -0.2863  0.2135
 4934TIP3   OH236292   0.904   5.914   4.525  0.5159  0.1172 -0.2573
 4934TIP3    H136293   0.977   5.882   4.578  1.4055  1.9584 -0.3265
 4934TIP3    H236294   0.854   5.971   4.584  1.0046  1.4632 -1.0966
 4935TIP3   OH236295   6.731   0.244  16.551  0.7048 -0.2372  0.0724
 4935TIP3    H136296   6.655   0.297  16.576 -0.3773 -0.5291 -2.3044
 4935TIP3    H236297   6.795   0.307  16.519  1.1189 -0.0693  1.1909
 4936TIP3   OH236298   3.710   5.065  15.625  0.4611 -0.2249  0.3278
 4936TIP3    H136299   3.651   5.109  15.687  1.3973  0.3329  0.8397
 4936TIP3    H236300   3.749   4.994  15.675  0.2852 -0.5531  0.0060
 4937TIP3   OH236301   1.444   4.929   0.617  0.3370 -0.1208  0.3014
 4937TIP3    H136302   1.456   4.848   0.667 -2.6572  0.5744  2.3859
 4937TIP3    H236303   1.482   4.910   0.531  0.1945 -3.5476  0.8706
 4938TIP3   OH236304   5.283   0.800  11.569  0.2910 -0.3376 -0.7392
 4938TIP3    H136305   5.355   0.737  11.577  0.7511  0.2043 -0.4704
 4938TIP3    H236306   5.327   0.883  11.546 -0.2474 -0.0038 -0.5725
 4939TIP3   OH236307   4.145   1.028   5.191 -0.5436 -0.1002 -0.2712
 4939TIP3    H136308   4.130   1.121   5.172  0.2170 -0.1128 -1.0057
 4939TIP3    H236309   4.201   1.029   5.269 -1.8265  0.0047  0.6844
 4940TIP3   OH236310   4.927   2.610  13.968 -0.1183 -0.0796  0.5105
 4940TIP3    H136311   4.933   2.604  13.873  0.4490  0.2088  0.5219
 4940TIP3    H236312   5.013   2.582  14.000  0.8081  2.7098  0.7837
 4941TIP3   OH236313   0.517   5.095   3.047 -0.1699 -0.1612  0.7961
 4941TIP3    H136314   0.578   5.048   2.990 -0.6391 -0.0426  0.1910
 4941TIP3    H236315   0.490   5.030   3.112  1.2486  0.0008  1.6071
 4942TIP3   OH236316   1.499   4.725  15.946  0.4949 -0.1601  0.1620
 4942TIP3    H136317   1.522   4.634  15.961  0.1393 -0.3046 -0.1414
 4942TIP3    H236318   1.470   4.728  15.855 -0.0006  0.1436  0.3217
 4943TIP3   OH236319   3.711   1.090  14.932 -0.0277  0.3326  0.2432
 4943TIP3    H136320   3.645   1.081  15.000  0.4323 -2.2973  0.4465
 4943TIP3    H236321   3.662   1.079  14.850  0.0146 -0.8330  0.3616
 4944TIP3   OH236322   2.545   5.301  13.322  0.6788  0.8326  0.3094
 4944TIP3    H136323   2.503   5.367  13.378  1.6848  1.2204  0.6248
 4944TIP3    H236324   2.600   5.352  13.263 -0.7739  0.4762 -1.4301
 4945TIP3   OH236325   2.684   4.404   3.699  0.2059 -0.3927  0.3798
 4945TIP3    H136326   2.734   4.410   3.780  0.6857 -0.9213  0.1324
 4945TIP3    H236327   2.721   4.473   3.644  0.9613 -1.0448  0.0490
 4946TIP3   OH236328   4.268   4.688  16.396 -0.0077  0.3267  0.1429
 4946TIP3    H136329   4.264   4.686  16.492  0.3491 -1.4428  0.1535
 4946TIP3    H236330   4.346   4.637  16.374 -0.1257  0.6428 -1.0916
 4947TIP3   OH236331   2.802   1.407  15.150 -0.1509  0.2312 -0.1210
 4947TIP3    H136332   2.820   1.493  15.112  1.2661 -0.8643 -2.1438
 4947TIP3    H236333   2.886   1.379  15.187  0.3270 -1.4623 -2.2017
 4948TIP3   OH236334   0.382   4.048   2.997  0.0929 -0.1955  0.0038
 4948TIP3    H136335   0.373   4.065   2.903 -0.4507  0.8418  0.2271
 4948TIP3    H236336   0.300   4.081   3.035  0.7569  0.4121  0.9626
 4949TIP3   OH236337   2.920   5.017  10.684  0.3946 -0.4351  0.6103
 4949TIP3    H136338   2.974   5.065  10.745  0.5481 -1.0278  0.9523
 4949TIP3    H236339   2.956   4.928  10.685 -0.8791 -0.9717  1.2263
 4950TIP3   OH236340   2.226   6.709   5.858 -0.0025 -0.4972  0.1899
 4950TIP3    H136341   2.274   6.748   5.931 -0.7123  1.2391 -0.2317
 4950TIP3    H236342   2.134   6.712   5.886 -0.2745  0.0917 -0.7054
 4951TIP3   OH236343   1.111   4.559  12.178  0.1069 -0.3471 -0.3032
 4951TIP3    H136344   1.177   4.516  12.123 -0.8706 -0.5409 -1.3698
 4951TIP3    H236345   1.130   4.653  12.169  1.4908 -0.4514  1.0611
 4952TIP3   OH236346   5.386   0.687   1.879  0.5721  0.0649  1.2798
 4952TIP3    H136347   5.297   0.703   1.909 -0.0725 -1.5572  0.3623
 4952TIP3    H236348   5.413   0.608   1.926 -0.1237 -1.9892 -1.5154
 4953TIP3   OH236349   1.770   2.003   2.688  0.6649  0.7595 -0.4453
 4953TIP3    H136350   1.855   2.003   2.732  0.5945  0.7485 -0.3085
 4953TIP3    H236351   1.791   2.009   2.595  0.9313 -1.9018 -0.6175
 4954TIP3   OH236352   0.706   5.318  11.879  0.0674 -0.3264 -0.3061
 4954TIP3    H136353   0.737   5.294  11.792 -0.3155  0.2375 -0.6060
 4954TIP3    H236354   0.610   5.314  11.872  0.0022  0.9294 -0.2700
 4955TIP3   OH236355   6.317   4.863   3.699 -0.5104 -1.0503  0.3123
 4955TIP3    H136356   6.397   4.910   3.679 -1.1069 -0.3290 -0.4387
 4955TIP3    H236357   6.342   4.801   3.769  0.4297 -0.0665  0.8725
 4956TIP3   OH236358   0.415   4.777  14.805  0.9799 -0.4271 -0.3770
 4956TIP3    H136359   0.504   4.786  14.771  1.0755 -2.0268 -0.5942
 4956TIP3    H236360   0.426   4.767  14.900  0.8331  1.9625 -0.0390
 4957TIP3   OH236361   4.421   1.282  16.803 -0.1703  0.2560 -0.1570
 4957TIP3    H136362   4.506   1.313  16.772  0.0131  0.3754  0.4469
 4957TIP3    H236363   4.407   1.329  16.885 -0.2890 -0.6303  0.3430
 4958TIP3   OH236364   4.261   6.454   5.666 -0.0458 -0.1225  0.3483
 4958TIP3    H136365   4.243   6.360   5.657 -1.6372  0.2648 -1.1736
 4958TIP3    H236366   4.345   6.466   5.622  0.2602 -0.8492  0.7125
 4959TIP3   OH236367   3.862   1.554   1.990  0.5877 -0.2725 -0.1658
 4959TIP3    H136368   3.931   1.589   1.934  0.8760 -0.0737  0.3055
 4959TIP3    H236369   3.852   1.463   1.962  1.2734 -0.3953 -0.0108
 4960TIP3   OH236370   5.902   4.738   4.956 -0.4344 -0.4947  0.3104
 4960TIP3    H136371   5.954   4.812   4.988 -0.1405 -0.1183 -0.9761
 4960TIP3    H236372   5.817   4.777   4.934 -1.1835 -1.0342  2.0405
 4961TIP3   OH236373   4.333   5.135   2.019 -0.4140 -0.2748 -0.7572
 4961TIP3    H136374   4.271   5.191   2.065 -1.6105 -0.5736 -1.9695
 4961TIP3    H236375   4.382   5.195   1.962 -0.9858 -0.3142 -1.2933
 4962TIP3   OH236376   4.867   2.799  15.445 -0.2447 -0.5204 -0.0456
 4962TIP3    H136377   4.803   2.771  15.379 -0.9984  2.1759 -0.6030
 4962TIP3    H236378   4.815   2.810  15.524  0.4673 -2.7265  0.8010
 4963TIP3   OH236379   2.729   0.455  15.416 -0.8167 -0.3173  0.7327
 4963TIP3    H136380   2.633   0.461  15.409 -0.6901  1.0035 -0.1647
 4963TIP3    H236381   2.758   0.544  15.435  0.2510 -0.6881  0.8926
 4964TIP3   OH236382   4.194   2.898   0.386 -0.3811  0.1705  0.0368
 4964TIP3    H136383   4.259   2.904   0.315  1.6330  1.4176  1.8492
 4964TIP3    H236384   4.219   2.969   0.446 -2.0012 -0.8349  1.9835
 4965TIP3   OH236385   1.582   6.040  15.647  0.2741  0.0807 -0.0487
 4965TIP3    H136386   1.604   6.098  15.574  3.0947 -1.4311 -0.5270
 4965TIP3    H236387   1.551   5.960  15.604  0.6232 -0.3215  0.4410
 4966TIP3   OH236388   1.576   2.922  11.424 -0.0080 -0.7129 -0.3787
 4966TIP3    H136389   1.619   2.951  11.505  0.4273  0.6131 -1.0569
 4966TIP3    H236390   1.649   2.899  11.366 -0.2105  0.3887 -1.1136
 4967TIP3   OH236391   5.796   1.033  16.508  0.3201  0.2487  0.1088
 4967TIP3    H136392   5.707   1.060  16.530 -0.1173 -1.1636  0.1291
 4967TIP3    H236393   5.824   0.982  16.584  0.5128 -0.7526 -0.6286
 4968TIP3   OH236394   6.017   4.323  12.754  0.3156  0.6274 -0.5129
 4968TIP3    H136395   6.069   4.371  12.819 -0.1591 -0.5750  0.8034
 4968TIP3    H236396   5.997   4.240  12.797 -0.2881 -0.0742 -2.1002
 4969TIP3   OH236397   1.293   0.298   4.499  0.1970  0.4059  0.1966
 4969TIP3    H136398   1.228   0.256   4.555  0.3365 -0.3943 -0.2333
 4969TIP3    H236399   1.252   0.380   4.471  0.2092  0.9415  1.6429
 4970TIP3   OH236400   1.733   2.486   2.912  0.4189  0.1326  0.5708
 4970TIP3    H136401   1.780   2.524   2.837 -1.0676  0.8099 -0.0592
 4970TIP3    H236402   1.644   2.521   2.904  0.0383 -0.4002  2.2358
 4971TIP3   OH236403   5.484   3.294  12.380  0.4101  0.1431 -1.0817
 4971TIP3    H136404   5.522   3.316  12.465  1.4309 -2.0933 -0.8864
 4971TIP3    H236405   5.480   3.198  12.380 -0.4331  0.1318 -3.1988
 4972TIP3   OH236406   1.694   0.889  16.636  0.0771  0.0756  0.1382
 4972TIP3    H136407   1.766   0.945  16.609 -0.0863 -0.3090 -1.1295
 4972TIP3    H236408   1.616   0.946  16.629 -0.4403 -0.8311 -3.4112
 4973TIP3   OH236409   3.666   1.416  14.740  0.4105 -0.2614  0.0254
 4973TIP3    H136410   3.694   1.490  14.794  0.5275 -0.5346  0.3489
 4973TIP3    H236411   3.622   1.455  14.665 -1.8997  0.0970  1.4779
 4974TIP3   OH236412   2.685   3.712  16.805  0.1721 -0.1869 -0.4447
 4974TIP3    H136413   2.733   3.784  16.766 -0.8677 -0.1141 -1.6452
 4974TIP3    H236414   2.726   3.698  16.890  0.5827  1.6057 -0.3281
 4975TIP3   OH236415   0.226   3.117   3.349 -0.0357 -0.2602 -0.1276
 4975TIP3    H136416   0.155   3.181   3.341  1.3442  1.2055 -1.2712
 4975TIP3    H236417   0.271   3.122   3.265  1.3500 -1.2606  0.5314
 4976TIP3   OH236418   2.998   4.479   5.212  0.3382 -0.1161  0.0525
 4976TIP3    H136419   3.007   4.394   5.255 -0.0951 -1.6106 -2.5706
 4976TIP3    H236420   3.084   4.494   5.172 -0.1795 -0.4239 -1.2441
 4977TIP3   OH236421   1.078   1.345   4.224  0.1474  0.2546 -0.1615
 4977TIP3    H136422   1.104   1.307   4.308 -1.0343  1.0077  0.5836
 4977TIP3    H236423   1.139   1.418   4.211  0.8963 -0.4109 -0.4059
 4978TIP3   OH236424   2.731   4.244  15.424  0.0648  1.0480 -0.2878
 4978TIP3    H136425   2.733   4.170  15.363  1.3710 -0.2113  1.1817
 4978TIP3    H236426   2.790   4.309  15.385  2.0484 -0.3307  0.2426
 4979TIP3   OH236427   0.580   5.723  16.220 -0.2663 -0.4689 -0.5068
 4979TIP3    H136428   0.641   5.788  16.252  0.1130 -0.2949 -1.5526
 4979TIP3    H236429   0.514   5.715  16.289  0.8377 -0.5469  0.5616
 4980TIP3   OH236430   3.748   2.715  13.562 -0.1510  0.2523  0.3277
 4980TIP3    H136431   3.706   2.793  13.524 -0.9538 -0.2542  0.1451
 4980TIP3    H236432   3.688   2.643  13.541  0.8582 -0.5194 -0.0235
 4981TIP3   OH236433   4.315   3.567   4.159  0.1921  0.9439  0.0212
 4981TIP3    H136434   4.301   3.573   4.253  1.4506  1.5981  0.1858
 4981TIP3    H236435   4.276   3.646   4.123 -2.7214 -0.5355 -0.3780
 4982TIP3   OH236436   0.544   3.064   0.516  0.8780 -0.3996  0.0875
 4982TIP3    H136437   0.465   3.010   0.519  0.9169 -0.4426  0.4436
 4982TIP3    H236438   0.560   3.087   0.608 -0.0555  1.5960 -0.2165
 4983TIP3   OH236439   3.966   6.742  14.024  0.6657 -0.0768 -0.0923
 4983TIP3    H136440   3.948   6.720  13.933  1.4895 -0.8629 -0.0722
 4983TIP3    H236441   3.940   6.665  14.074 -0.6571  0.6870  0.4564
 4984TIP3   OH236442   1.378   2.709   0.638  0.3758 -0.2068  0.5129
 4984TIP3    H136443   1.422   2.648   0.697  0.2247 -1.2603 -0.4397
 4984TIP3    H236444   1.431   2.708   0.559 -1.5777 -1.8944 -0.8563
 4985TIP3   OH236445   5.305   2.186   1.964  0.2835 -0.7092  0.0738
 4985TIP3    H136446   5.398   2.204   1.946  0.2582 -1.7289 -1.2693
 4985TIP3    H236447   5.263   2.272   1.964  0.7883 -0.3989 -2.1956
 4986TIP3   OH236448   1.429   1.954  16.797  0.1947  0.3559  0.2057
 4986TIP3    H136449   1.481   1.989  16.870  0.1560 -0.6315  0.7256
 4986TIP3    H236450   1.485   1.966  16.720  1.6512 -1.5294  0.8873
 4987TIP3   OH236451   4.195   6.289   0.404  0.2712 -0.5079  0.8464
 4987TIP3    H136452   4.144   6.299   0.324 -0.4274 -0.5676  1.2756
 4987TIP3    H236453   4.204   6.377   0.439 -0.1669 -0.5812  1.1499
 4988TIP3   OH236454   6.793   5.888   2.157 -0.4520  0.4900  0.0006
 4988TIP3    H136455   6.812   5.943   2.081 -4.0553  0.4591 -1.0924
 4988TIP3    H236456   6.808   5.798   2.127  1.1899  0.5882  0.4156
 4989TIP3   OH236457   6.553   1.275   5.297 -0.5687 -1.0818 -0.0659
 4989TIP3    H136458   6.613   1.347   5.315 -0.2730 -2.0446  3.5971
 4989TIP3    H236459   6.468   1.308   5.327 -0.2722 -2.3909  2.5152
 4990TIP3   OH236460   4.074   0.074  11.740  0.0749  0.0619 -0.9129
 4990TIP3    H136461   4.047   0.144  11.680 -1.6231 -0.6662 -1.0456
 4990TIP3    H236462   4.140   0.025  11.692 -0.6899 -0.0391 -1.8862
 4991TIP3   OH236463   2.897   5.343   2.957  0.7127  0.4397  0.2482
 4991TIP3    H136464   2.953   5.267   2.940  0.8403  0.2084  1.5846
 4991TIP3    H236465   2.905   5.397   2.879  1.0935 -0.6337 -0.4747
 4992TIP3   OH236466   5.364   4.300  14.420  0.2421 -0.1536 -0.2953
 4992TIP3    H136467   5.294   4.274  14.359  0.0307  0.4743 -0.3322
 4992TIP3    H236468   5.372   4.227  14.481  1.3287 -1.3625 -1.8139
 4993TIP3   OH236469   1.359   2.177  11.601  0.1596 -0.5931  0.2729
 4993TIP3    H136470   1.330   2.245  11.662 -1.4670 -0.8879 -0.1130
 4993TIP3    H236471   1.389   2.106  11.658 -0.8245 -0.6513  0.7400
 4994TIP3   OH236472   5.780   5.892   2.761 -0.0152 -0.6170  0.4504
 4994TIP3    H136473   5.750   5.982   2.748 -1.0515 -0.9097  0.7336
 4994TIP3    H236474   5.798   5.886   2.855  0.9402 -0.4534  0.2898
 4995TIP3   OH236475   1.603   5.498   3.207  0.1797  0.1573  0.1706
 4995TIP3    H136476   1.669   5.469   3.271  1.4606 -0.6643 -1.4392
 4995TIP3    H236477   1.552   5.419   3.188 -1.2428  0.7596  1.3132
 4996TIP3   OH236478   2.170   3.656  15.328 -0.3411  0.5033  0.2510
 4996TIP3    H136479   2.221   3.618  15.257 -1.3293 -0.2515 -0.0727
 4996TIP3    H236480   2.178   3.750  15.316 -1.2476  0.3994 -1.4354
 4997TIP3   OH236481   2.788   1.218   2.918 -0.2103 -0.3334  0.4453
 4997TIP3    H136482   2.749   1.290   2.868  3.2498 -0.0860 -2.2763
 4997TIP3    H236483   2.749   1.139   2.880  0.4173 -0.0395 -0.8601
 4998TIP3   OH236484   0.204   5.471   6.440  0.3007 -0.3192  0.4851
 4998TIP3    H136485   0.182   5.425   6.358 -0.2875  0.1973  0.3396
 4998TIP3    H236486   0.159   5.421   6.508  1.1948 -1.0352  0.5553
 4999TIP3   OH236487   0.391   2.007   1.488  0.0213 -0.1693 -0.2871
 4999TIP3    H136488   0.307   2.035   1.453  0.5395  1.0390 -0.6337
 4999TIP3    H236489   0.454   2.071   1.453  0.8178  0.0762  1.4903
 5000TIP3   OH236490   1.730   2.970   3.989 -0.0821 -0.5697  0.2138
 5000TIP3    H136491   1.746   2.898   4.049  1.5980 -2.9883 -2.8253
 5000TIP3    H236492   1.637   2.963   3.967 -0.7575  0.4492  2.4827
 5001TIP3   OH236493   6.460   3.517   3.037  0.7875  0.1971 -0.3317
 5001TIP3    H136494   6.468   3.585   2.970 -0.0029  0.3069 -0.3233
 5001TIP3    H236495   6.404   3.450   2.996  2.5525 -1.0549 -0.8108
 5002TIP3   OH236496   5.380   0.299   1.687  0.1299 -0.5008 -0.0068
 5002TIP3    H136497   5.453   0.361   1.684 -0.0039 -0.3150  0.3972
 5002TIP3    H236498   5.374   0.263   1.599  0.2386  0.0293 -0.2309
 5003TIP3   OH236499   4.380   6.660  15.037 -0.2458  0.6540  0.2716
 5003TIP3    H136500   4.297   6.621  15.010 -0.8503  1.4715  0.8958
 5003TIP3    H236501   4.411   6.707  14.960  0.2679 -0.6669 -0.3460
 5004TIP3   OH236502   5.258   0.077  12.106  0.1936 -0.3951 -0.1693
 5004TIP3    H136503   5.221   0.119  12.184 -0.7147  1.0855 -1.3484
 5004TIP3    H236504   5.206   0.110  12.033  1.3527 -1.3262 -1.4867
 5005TIP3   OH236505   4.684   4.293  16.303  0.5086  0.2401 -0.4021
 5005TIP3    H136506   4.685   4.345  16.223  0.7409  0.8885  0.0140
 5005TIP3    H236507   4.681   4.202  16.273 -0.2274  0.4999 -1.1382
 5006TIP3   OH236508   6.791   0.337   4.423 -0.0744  0.1024 -0.0838
 5006TIP3    H136509   6.803   0.257   4.474 -0.4930 -0.7198 -1.2517
 5006TIP3    H236510   6.823   0.316   4.336  0.3950  1.4145 -0.2580
 5007TIP3   OH236511   0.907   5.106  13.595  0.3264 -0.1341 -0.2055
 5007TIP3    H136512   0.950   5.189  13.614 -0.5048  0.3192 -0.2926
 5007TIP3    H236513   0.893   5.066  13.681  0.4997 -0.0720 -0.1471
 5008TIP3   OH236514   0.264   5.123  12.588 -0.2870  0.7910  0.6869
 5008TIP3    H136515   0.351   5.163  12.596 -0.2080  0.5310  1.1243
 5008TIP3    H236516   0.244   5.091  12.676 -0.3979 -0.0323  0.3681
 5009TIP3   OH236517   4.984   2.705   4.714 -0.1841 -0.1179 -0.1497
 5009TIP3    H136518   4.933   2.770   4.761  0.9655 -1.1499  2.7302
 5009TIP3    H236519   5.064   2.751   4.688 -0.6474  0.3551 -0.7617
 5010TIP3   OH236520   2.425   2.942   5.419  0.0034  0.3259 -0.3095
 5010TIP3    H136521   2.490   3.007   5.394 -0.3262  1.1160  0.8380
 5010TIP3    H236522   2.466   2.892   5.489 -0.8692  1.3224  0.9517
 5011TIP3   OH236523   2.791   3.841   2.097 -0.2423  0.2394  0.1236
 5011TIP3    H136524   2.715   3.899   2.095  0.3145  0.9698 -0.5578
 5011TIP3    H236525   2.756   3.757   2.125 -1.6423  0.0736 -1.9281
 5012TIP3   OH236526   1.168   4.350  11.880  0.0165 -0.0601 -0.3619
 5012TIP3    H136527   1.250   4.304  11.896 -0.2190 -0.0712  0.8627
 5012TIP3    H236528   1.192   4.442  11.876 -0.1052  0.0885  1.6076
 5013TIP3   OH236529   1.507   4.519   1.629 -0.6343 -0.3273 -0.2079
 5013TIP3    H136530   1.593   4.477   1.640 -0.0634  0.7896 -0.3307
 5013TIP3    H236531   1.477   4.534   1.719 -0.6002 -0.5186 -0.1635
 5014TIP3   OH236532   5.410   3.653   4.513  0.1169  0.0596 -0.7057
 5014TIP3    H136533   5.343   3.592   4.481  2.0476 -2.0847 -0.9125
 5014TIP3    H236534   5.424   3.714   4.441 -0.6358 -0.2895 -1.1605
 5015TIP3   OH236535   2.419   1.210  11.147  0.3825  0.2280  0.0341
 5015TIP3    H136536   2.460   1.253  11.072  0.9458  1.6293  1.1050
 5015TIP3    H236537   2.458   1.123  11.148  3.6999  1.5376  1.1472
 5016TIP3   OH236538   3.449   2.198   5.620  0.4106 -0.3004  0.5054
 5016TIP3    H136539   3.362   2.180   5.655 -0.3991  2.4122  0.1329
 5016TIP3    H236540   3.481   2.272   5.671  0.6324  1.5570 -2.1191
 5017TIP3   OH236541   5.680   6.200   5.193 -0.0532 -0.0407  0.0302
 5017TIP3    H136542   5.744   6.268   5.169 -0.2357 -0.2314 -1.0554
 5017TIP3    H236543   5.731   6.137   5.244  1.4200 -1.6642 -3.1578
 5018TIP3   OH236544   6.365   3.143   0.336  0.0726  0.0285  0.8397
 5018TIP3    H136545   6.398   3.142   0.426 -1.3916  1.7910  1.4610
 5018TIP3    H236546   6.444   3.141   0.282  0.9951 -0.6693  2.1465
 5019TIP3   OH236547   4.751   2.641   0.062  0.2666  0.4208  0.4823
 5019TIP3    H136548   4.674   2.591   0.033  0.3444  0.7018 -0.2279
 5019TIP3    H236549   4.736   2.729   0.027  1.7003  0.0759 -1.1319
 5020TIP3   OH236550   6.413   6.539   4.261  0.2240 -0.3811 -0.1039
 5020TIP3    H136551   6.333   6.492   4.285  0.0456  0.1993  0.4443
 5020TIP3    H236552   6.430   6.597   4.335  1.1669 -0.5116 -0.2055
 5021TIP3   OH236553   5.219   0.198  12.598 -0.0511  0.3015  0.5383
 5021TIP3    H136554   5.142   0.161  12.641  0.8153 -3.5873 -0.8388
 5021TIP3    H236555   5.291   0.183  12.660  0.3354 -0.4071 -0.0727
 5022TIP3   OH236556   5.895   2.664   1.310 -0.1090  0.0920 -0.1279
 5022TIP3    H136557   5.903   2.736   1.373 -1.7354  0.1759  0.0264
 5022TIP3    H236558   5.864   2.590   1.362  0.7386 -0.5018 -0.4406
 5023TIP3   OH236559   0.918   2.163  13.791 -0.1714  0.0999  0.0380
 5023TIP3    H136560   0.981   2.092  13.796  0.9332  0.8931 -1.7465
 5023TIP3    H236561   0.933   2.214  13.871  1.0912 -0.0251 -0.1077
 5024TIP3   OH236562   1.020   1.177   2.759 -0.6657 -0.0653 -0.2720
 5024TIP3    H136563   0.938   1.213   2.725 -0.4451  1.3661  0.6294
 5024TIP3    H236564   1.072   1.254   2.782  0.1652 -0.9663  0.9820
 5025TIP3   OH236565   4.347   1.634   6.712 -0.1518  0.4083 -0.5258
 5025TIP3    H136566   4.305   1.623   6.627  0.0238  0.7643 -0.6590
 5025TIP3    H236567   4.322   1.722   6.740  1.2111  0.9568 -0.9912
 5026TIP3   OH236568   5.388   4.121   1.286  0.7815  0.6207 -0.8502
 5026TIP3    H136569   5.437   4.193   1.326  1.4386  1.1953 -2.6298
 5026TIP3    H236570   5.309   4.163   1.251 -0.9087 -0.2277  1.6196
 5027TIP3   OH236571   0.951   4.581   4.830  0.1870 -0.2115  0.2779
 5027TIP3    H136572   0.859   4.552   4.826 -0.1504  0.6071  1.5233
 5027TIP3    H236573   0.995   4.531   4.761 -0.9915 -1.3586  0.3241
 5028TIP3   OH236574   4.533   1.043  15.331 -0.2859  0.2880 -0.3116
 5028TIP3    H136575   4.472   0.969  15.331 -0.1580  0.1736  0.5876
 5028TIP3    H236576   4.494   1.106  15.270 -0.0275 -0.8041 -1.6560
 5029TIP3   OH236577   6.511   1.021  11.603  0.7760  0.0913  0.1760
 5029TIP3    H136578   6.524   0.947  11.662  1.3413 -0.6301 -0.8290
 5029TIP3    H236579   6.514   1.098  11.660  0.8494 -0.6084  1.1404
 5030TIP3   OH236580   1.384   3.551   6.192  0.3367  0.8037 -0.5243
 5030TIP3    H136581   1.305   3.502   6.166  0.8388 -0.0953 -0.4149
 5030TIP3    H236582   1.375   3.635   6.148  0.3850 -0.0867 -2.3709
 5031TIP3   OH236583   3.116   3.752  12.533  0.0989  0.2439 -0.4740
 5031TIP3    H136584   3.047   3.782  12.592 -0.9281 -1.0765 -0.9558
 5031TIP3    H236585   3.174   3.828  12.524 -0.6277  1.0097  0.8762
 5032TIP3   OH236586   5.731   3.966  12.647 -0.1085  0.1106  0.2005
 5032TIP3    H136587   5.748   3.888  12.700 -0.3423 -0.6345 -0.7766
 5032TIP3    H236588   5.816   3.990  12.612  0.0095  0.4707  0.7177
 5033TIP3   OH236589   6.442   4.096   3.413 -0.1329  0.4024  0.2628
 5033TIP3    H136590   6.523   4.062   3.376 -0.0673  0.1447  0.6370
 5033TIP3    H236591   6.446   4.190   3.397  0.0418  0.3358 -0.0962
 5034TIP3   OH236592   5.492   5.474   2.060  0.0969 -0.2352 -0.1828
 5034TIP3    H136593   5.510   5.543   1.996  0.9609  1.4516  1.7518
 5034TIP3    H236594   5.579   5.446   2.089 -0.2730 -1.5940 -0.3580
 5035TIP3   OH236595   1.438   0.315   3.003  0.0830  0.9099  0.1221
 5035TIP3    H136596   1.394   0.330   2.920  0.2533  0.8883  0.0263
 5035TIP3    H236597   1.406   0.230   3.033 -0.4618  1.2021  0.3931
 5036TIP3   OH236598   5.716   2.851   5.809 -0.1927  0.1412 -0.5107
 5036TIP3    H136599   5.643   2.905   5.840  0.1074 -0.6593  1.7266
 5036TIP3    H236600   5.753   2.901   5.736 -1.2931  1.8613  0.0518
 5037TIP3   OH236601   4.023   1.495  13.829 -0.3994 -0.2554  0.2855
 5037TIP3    H136602   4.033   1.413  13.780  0.6894  0.5603 -0.9088
 5037TIP3    H236603   4.002   1.561  13.763  2.6644  1.1860  0.5579
 5038TIP3   OH236604   5.690   1.439  11.668  0.6376 -0.1184  0.0115
 5038TIP3    H136605   5.696   1.527  11.704  0.7176 -0.4693  0.8806
 5038TIP3    H236606   5.725   1.382  11.736 -1.5194 -1.0513  0.4309
 5039TIP3   OH236607   5.305   0.950  15.202 -0.6493  0.1745 -0.1354
 5039TIP3    H136608   5.302   0.896  15.123  0.1602 -0.3462  0.1659
 5039TIP3    H236609   5.366   0.903  15.260  0.7004  1.8121 -0.1567
 5040TIP3   OH236610   6.204   0.343  14.021  0.2152 -0.7975  0.6409
 5040TIP3    H136611   6.191   0.431  13.987  1.1338 -0.6285  0.7117
 5040TIP3    H236612   6.227   0.356  14.113  2.6492 -0.9460  0.1143
 5041TIP3   OH236613   1.128   6.625  14.879  0.0885  0.2171  0.3485
 5041TIP3    H136614   1.103   6.605  14.789 -2.0784  0.2664  0.8773
 5041TIP3    H236615   1.148   6.718  14.879 -0.6429  0.3790  0.0472
 5042TIP3   OH236616   1.299   6.439  14.602  0.3514  0.3609  0.7192
 5042TIP3    H136617   1.256   6.520  14.627  0.4018  0.9863 -1.0625
 5042TIP3    H236618   1.228   6.378  14.583  0.2085  0.9495 -0.8248
 5043TIP3   OH236619   6.667   0.082   3.083  0.0741 -0.1801  0.2002
 5043TIP3    H136620   6.740   0.056   3.027 -0.6987  0.6265 -1.2639
 5043TIP3    H236621   6.666   0.178   3.077 -0.8314 -0.1605  0.5466
 5044TIP3   OH236622   0.054   2.351   0.336 -0.2176  0.3864 -0.5433
 5044TIP3    H136623   0.089   2.313   0.255 -1.4189  0.3750 -1.0673
 5044TIP3    H236624   0.072   2.445   0.328 -0.2334  0.3699 -0.7653
 5045TIP3   OH236625   2.615   0.076  14.371  0.2138 -0.1428 -0.5702
 5045TIP3    H136626   2.671   0.089  14.295  1.0038  0.0811  0.0403
 5045TIP3    H236627   2.625   0.157  14.422 -0.6048 -0.1297 -0.4138
 5046TIP3   OH236628   5.893   1.333   5.285  0.7712  0.3755  0.2621
 5046TIP3    H136629   5.860   1.315   5.197  1.9857  1.8368 -0.5530
 5046TIP3    H236630   5.952   1.260   5.304 -0.0902 -0.3469  0.1988
 5047TIP3   OH236631   6.265   3.061   2.482  0.2619 -0.2351 -0.0591
 5047TIP3    H136632   6.214   3.138   2.508 -0.7501 -0.5543 -1.0114
 5047TIP3    H236633   6.341   3.062   2.541  1.3571  2.6196 -1.3389
 5048TIP3   OH236634   1.188   5.658  11.008  0.0518 -0.5170 -0.0089
 5048TIP3    H136635   1.170   5.729  10.947 -0.6241  0.4102  1.2266
 5048TIP3    H236636   1.132   5.586  10.977 -0.4171 -0.0030 -0.3758
 5049TIP3   OH236637   2.785   4.646   5.217  0.5636 -0.1089  0.2001
 5049TIP3    H136638   2.795   4.684   5.305  1.1360 -1.1407  0.5936
 5049TIP3    H236639   2.856   4.582   5.210  0.5451 -0.0178 -1.0360
 5050TIP3   OH236640   5.696   5.125   1.301  0.7181  0.0824 -0.2576
 5050TIP3    H136641   5.685   5.050   1.242 -0.5794 -2.2134  2.6550
 5050TIP3    H236642   5.742   5.089   1.377  0.7247  2.4473  0.9389
 5051TIP3   OH236643   5.042   2.929   3.648  0.0176 -0.3872  0.3533
 5051TIP3    H136644   5.126   2.884   3.649 -0.3554 -1.1038  1.6024
 5051TIP3    H236645   5.055   3.005   3.705  0.1988  0.2541 -0.5291
 5052TIP3   OH236646   5.941   0.440   5.073 -0.0385  0.6525  0.1550
 5052TIP3    H136647   5.859   0.396   5.097 -0.1764  1.9456  2.4001
 5052TIP3    H236648   5.913   0.515   5.020 -0.4433  1.5152  1.5295
 5053TIP3   OH236649   0.835   4.769  10.590  0.1756 -0.4386 -0.1954
 5053TIP3    H136650   0.914   4.806  10.628 -1.2311  2.5194  0.1746
 5053TIP3    H236651   0.858   4.752  10.498  1.4761 -0.5345  0.1311
 5054TIP3   OH236652   6.024   2.286  13.982  0.5014  0.0709  0.5266
 5054TIP3    H136653   5.946   2.310  13.932  0.2921  0.6879  1.1438
 5054TIP3    H236654   6.055   2.206  13.940 -1.4088 -1.1375  1.3042
 5055TIP3   OH236655   5.380   2.571   1.817 -0.0684 -0.5305  0.2545
 5055TIP3    H136656   5.437   2.623   1.874  1.2529 -0.9407 -0.6488
 5055TIP3    H236657   5.321   2.525   1.877  0.2872  0.2091  1.1894
 5056TIP3   OH236658   4.082   5.226   0.120  0.1327 -0.0500  0.6548
 5056TIP3    H136659   4.033   5.163   0.173  0.3205 -0.5045  0.2971
 5056TIP3    H236660   4.053   5.312   0.151 -1.0543 -0.3041  0.3130
 5057TIP3   OH236661   5.670   1.256  16.976 -0.0085  0.4619 -0.6384
 5057TIP3    H136662   5.611   1.193  16.935  0.2137  0.5095 -1.0364
 5057TIP3    H236663   5.658   1.243  17.070  1.9358 -1.9874 -0.6375
 5058TIP3   OH236664   0.761   1.102  16.405 -0.4749  0.0768 -0.0722
 5058TIP3    H136665   0.680   1.069  16.368 -0.4843  1.1905 -1.0743
 5058TIP3    H236666   0.821   1.107  16.331 -0.6484  2.8386 -0.1105
 5059TIP3   OH236667   4.828   0.080  13.668  0.0272 -0.1771 -1.0247
 5059TIP3    H136668   4.898   0.052  13.610  1.0381  2.2536 -1.1150
 5059TIP3    H236669   4.853   0.049  13.755 -1.3516 -3.5896 -1.6841
 5060TIP3   OH236670   0.665   3.028  12.908 -0.0029  0.1017  0.1787
 5060TIP3    H136671   0.711   2.976  12.842  0.7251  0.9093  0.0246
 5060TIP3    H236672   0.735   3.074  12.956 -0.6291  1.2391  0.0473
 5061TIP3   OH236673   2.201   6.179   4.467 -0.3390  0.8243 -0.3113
 5061TIP3    H136674   2.237   6.134   4.543 -2.2052 -0.1918  0.0361
 5061TIP3    H236675   2.231   6.270   4.477 -0.0693  0.5947  1.3266
 5062TIP3   OH236676   0.651   6.244   1.063 -0.1094 -0.1640 -0.3904
 5062TIP3    H136677   0.740   6.275   1.082  0.6439 -1.2135 -1.9327
 5062TIP3    H236678   0.612   6.230   1.149  1.7603 -1.0938  0.3730
 5063TIP3   OH236679   5.229   3.005  11.227 -0.4431 -0.7370  0.1446
 5063TIP3    H136680   5.220   3.051  11.143 -0.8789 -0.5396  0.2956
 5063TIP3    H236681   5.318   2.970  11.226 -0.4830 -0.8230 -0.4433
 5064TIP3   OH236682   3.373   3.264  13.187  0.6191 -0.3999  0.1428
 5064TIP3    H136683   3.353   3.343  13.238  0.4276 -0.2755 -0.1236
 5064TIP3    H236684   3.420   3.297  13.110 -1.3621 -0.3023 -1.0795
 5065TIP3   OH236685   6.815   0.467   2.222  0.1121  0.4655 -0.3480
 5065TIP3    H136686   6.791   0.529   2.291 -0.6697  0.4192 -0.5676
 5065TIP3    H236687   6.881   0.513   2.170  0.7315  0.4903  0.4362
 5066TIP3   OH236688   6.633   5.058   5.428  0.3760  0.3554  0.2834
 5066TIP3    H136689   6.649   4.964   5.426 -1.3108  0.0501 -1.2323
 5066TIP3    H236690   6.585   5.073   5.509  0.3185 -0.1450  0.3436
 5067TIP3   OH236691   5.930   2.154   0.110  0.3155 -0.5193 -0.0119
 5067TIP3    H136692   6.021   2.126   0.098  0.0725 -1.1860 -0.3122
 5067TIP3    H236693   5.909   2.201   0.029  1.4356  2.6017  1.3415
 5068TIP3   OH236694   5.069   4.115   5.740  0.4554  0.3883  0.3718
 5068TIP3    H136695   4.978   4.142   5.728  0.4284 -0.1400 -0.7319
 5068TIP3    H236696   5.067   4.063   5.821 -0.1932  0.5132  0.4461
 5069TIP3   OH236697   2.959   4.002   1.181 -0.7448  0.7275  0.0528
 5069TIP3    H136698   3.053   3.985   1.186 -0.8264 -1.1200 -2.5957
 5069TIP3    H236699   2.919   3.915   1.182 -2.1852  1.3030 -1.7453
 5070TIP3   OH236700   1.548   3.869  13.555  0.3843 -0.8291 -0.0606
 5070TIP3    H136701   1.453   3.867  13.542  0.4894 -1.3370 -0.7683
 5070TIP3    H236702   1.559   3.877  13.650 -0.3630 -0.8117  0.0301
 5071TIP3   OH236703   6.544   2.183   2.907 -0.2174 -0.0270 -0.1813
 5071TIP3    H136704   6.472   2.237   2.875  0.0804 -0.3962 -1.5348
 5071TIP3    H236705   6.502   2.105   2.943 -0.4820 -0.5998 -1.6756
 5072TIP3   OH236706   4.196   1.719   1.114 -0.3922  0.3450  0.4774
 5072TIP3    H136707   4.258   1.713   1.187  0.5968 -0.7456 -0.3922
 5072TIP3    H236708   4.164   1.809   1.115  0.0263  0.4896  1.9034
 5073TIP3   OH236709   3.218   4.232  14.842  0.2442 -0.3818 -0.2619
 5073TIP3    H136710   3.163   4.171  14.891  0.8598 -0.5130  0.2866
 5073TIP3    H236711   3.221   4.311  14.896  0.4351 -0.3085 -0.3775
 5074TIP3   OH236712   2.826   5.441  16.696  0.3798 -0.0306  0.1626
 5074TIP3    H136713   2.910   5.487  16.697  0.7908 -0.7572  0.5836
 5074TIP3    H236714   2.778   5.478  16.622 -0.2643  2.7103  1.8193
 5075TIP3   OH236715   3.587   5.846  15.137 -0.0176 -0.2460  0.3022
 5075TIP3    H136716   3.641   5.789  15.191 -0.6381 -0.5383  0.6309
 5075TIP3    H236717   3.587   5.930  15.183  1.6628  0.3222 -0.6704
 5076TIP3   OH236718   6.171   3.075   3.284  0.0869  0.8611  0.5278
 5076TIP3    H136719   6.079   3.059   3.264  0.0026  1.5481  0.3423
 5076TIP3    H236720   6.187   3.166   3.257  1.5633 -0.0986 -2.2622
 5077TIP3   OH236721   6.144   5.178  16.686 -0.0997  0.2489 -0.1801
 5077TIP3    H136722   6.204   5.118  16.731  0.1971  0.1017 -0.7715
 5077TIP3    H236723   6.172   5.265  16.713  0.2785  0.1729 -0.3289
 5078TIP3   OH236724   1.679   1.421  16.342  0.1930  0.2528  0.0860
 5078TIP3    H136725   1.771   1.434  16.319  0.3016 -0.3666  0.1468
 5078TIP3    H236726   1.671   1.327  16.356 -0.8450  0.0235 -1.6622
 5079TIP3   OH236727   1.570   5.744   2.364  0.6000 -0.1985 -0.9679
 5079TIP3    H136728   1.615   5.807   2.309  2.3735 -1.0362 -0.5566
 5079TIP3    H236729   1.544   5.794   2.442  1.3192  0.1962 -0.9769
 5080TIP3   OH236730   6.658   2.075   0.104  0.2421 -0.4905 -0.1173
 5080TIP3    H136731   6.734   2.126   0.077  2.6504 -3.6624  0.1234
 5080TIP3    H236732   6.665   2.069   0.199 -0.7152 -0.3050 -0.0209
 5081TIP3   OH236733   5.843   2.533   4.545  0.0377 -0.1774 -0.1722
 5081TIP3    H136734   5.844   2.586   4.625 -2.6216  0.2666 -0.3379
 5081TIP3    H236735   5.755   2.495   4.543 -0.2663  0.4606 -3.2629
 5082TIP3   OH236736   1.986   2.696   1.303  0.5121  0.3143  0.2836
 5082TIP3    H136737   2.029   2.627   1.353  0.4496  1.3295  1.8076
 5082TIP3    H236738   1.938   2.650   1.235  1.0983 -1.0799  0.7759
 5083TIP3   OH236739   6.794   4.692  16.917 -0.0567  0.7335  0.1053
 5083TIP3    H136740   6.859   4.624  16.903 -2.6940 -1.3773 -3.8332
 5083TIP3    H236741   6.739   4.658  16.988  0.6597  0.5419  0.5877
 5084TIP3   OH236742   4.239   0.761   6.151 -0.3022 -0.3480 -0.0075
 5084TIP3    H136743   4.211   0.760   6.243 -0.3555  1.2180  0.0353
 5084TIP3    H236744   4.159   0.781   6.102  0.0745  0.8047 -0.1912
 5085TIP3   OH236745   6.687   5.400  11.568  0.2915  0.5968 -1.0909
 5085TIP3    H136746   6.642   5.401  11.653 -3.2938 -0.9767 -2.7631
 5085TIP3    H236747   6.668   5.487  11.531 -0.4121  0.3749 -1.2789
 5086TIP3   OH236748   5.444   6.591   4.308 -0.1523  0.0353  0.3590
 5086TIP3    H136749   5.418   6.507   4.272  0.6313  0.6467 -1.8275
 5086TIP3    H236750   5.537   6.599   4.285  0.8864 -0.1308  3.9262
 5087TIP3   OH236751   4.815   5.374   5.336 -0.5015 -0.4944  0.1415
 5087TIP3    H136752   4.837   5.427   5.412 -0.2709  1.3822 -1.1752
 5087TIP3    H236753   4.720   5.363   5.341 -0.4508 -0.6961  0.8577
 5088TIP3   OH236754   3.641   4.506   2.428 -0.1861 -0.0598  0.4036
 5088TIP3    H136755   3.643   4.597   2.457  0.2069 -0.9263  3.4308
 5088TIP3    H236756   3.728   4.472   2.451 -0.2265 -1.1650 -0.9331
 5089TIP3   OH236757   2.717   4.846  16.929  0.1227 -0.4987  0.0026
 5089TIP3    H136758   2.808   4.845  16.900  0.1355  0.8886 -0.0766
 5089TIP3    H236759   2.676   4.772  16.885  1.6697 -2.4035  1.6365
 5090TIP3   OH236760   0.105   0.214   3.175 -0.0489  0.0313 -0.7038
 5090TIP3    H136761   0.057   0.132   3.186 -0.7391  0.5001 -0.1723
 5090TIP3    H236762   0.087   0.241   3.085  0.9635 -0.8853 -1.1988
 5091TIP3   OH236763   3.519   3.629   3.443  0.2111  0.2241 -0.1768
 5091TIP3    H136764   3.542   3.537   3.453 -1.9929 -0.2542  0.8683
 5091TIP3    H236765   3.511   3.662   3.532 -1.7802  0.6738 -0.4787
 5092TIP3   OH236766   0.196   4.490  17.179  0.0883 -0.2142  0.8434
 5092TIP3    H136767   0.187   4.500  17.274  0.1068  0.8285  0.7434
 5092TIP3    H236768   0.284   4.523  17.159 -0.4109  0.8471  0.3028
 5093TIP3   OH236769   0.420   3.376   1.064  0.2213  0.1568 -0.3141
 5093TIP3    H136770   0.515   3.390   1.071  0.5593 -0.7831 -2.2507
 5093TIP3    H236771   0.412   3.293   1.017 -1.5968 -0.3840  0.8910
 5094TIP3   OH236772   0.993   0.748  14.225  0.3496 -0.0065 -0.1221
 5094TIP3    H136773   0.938   0.748  14.303 -0.6933  1.8357 -0.8159
 5094TIP3    H236774   0.932   0.732  14.152  0.6522  2.1819 -0.9163
 5095TIP3   OH236775   2.737   2.448   1.291  0.7599 -0.3361  0.3050
 5095TIP3    H136776   2.825   2.451   1.329  1.1583  0.2240 -0.6234
 5095TIP3    H236777   2.688   2.515   1.339  0.7216 -0.8904  1.0680
 5096TIP3   OH236778   2.180   4.030  12.768 -0.6327  0.1075 -0.2772
 5096TIP3    H136779   2.257   4.087  12.758 -0.9623  1.1168  2.1381
 5096TIP3    H236780   2.215   3.950  12.809 -1.0927  1.8946  4.2100
 5097TIP3   OH236781   6.332   2.182  15.927 -0.3090 -0.1603 -0.0520
 5097TIP3    H136782   6.282   2.229  15.860  1.4234 -0.3023 -1.5241
 5097TIP3    H236783   6.388   2.122  15.877  0.9357 -0.3787  1.5429
 5098TIP3   OH236784   1.442   1.968  12.718 -0.2940  0.2347  0.3061
 5098TIP3    H136785   1.489   2.051  12.734  2.2153 -0.8802 -0.6793
 5098TIP3    H236786   1.494   1.902  12.763 -1.7176 -0.9545  0.2748
 5099TIP3   OH236787   3.657   2.793   1.556 -0.0184  0.3320  0.0930
 5099TIP3    H136788   3.734   2.752   1.517 -0.9342 -1.5452  0.1668
 5099TIP3    H236789   3.597   2.721   1.575 -1.1264  1.5650  1.6017
 5100TIP3   OH236790   6.597   6.804  13.691  0.0289 -0.4942  0.2140
 5100TIP3    H136791   6.594   6.717  13.731 -0.2829 -1.6489 -2.1812
 5100TIP3    H236792   6.613   6.788  13.598 -1.9489  1.8774 -0.6524
 5101TIP3   OH236793   1.721   4.302   4.905 -0.0975 -0.1692 -0.2612
 5101TIP3    H136794   1.760   4.318   4.819  0.7374  1.5102  0.3825
 5101TIP3    H236795   1.775   4.352   4.966 -2.6853  1.5631  0.8027
 5102TIP3   OH236796   4.825   0.989  13.209  0.4395  0.0153  0.1878
 5102TIP3    H136797   4.874   0.946  13.279  2.0940  1.3959 -0.0621
 5102TIP3    H236798   4.820   0.924  13.139  2.1496 -0.1134  0.1381
 5103TIP3   OH236799   6.259   4.896  13.927  0.5050 -0.2615 -0.7362
 5103TIP3    H136800   6.172   4.880  13.963  1.3579  0.1985  1.6879
 5103TIP3    H236801   6.247   4.970  13.867 -0.5379  0.7615  0.6900
 5104TIP3   OH236802   1.806   1.919  11.771  0.0484  0.0735 -0.4716
 5104TIP3    H136803   1.891   1.961  11.755  0.1375  0.1022  0.0530
 5104TIP3    H236804   1.800   1.913  11.867 -0.4932 -0.0285 -0.5087
 5105TIP3   OH236805   3.079   2.826  12.737  0.0829  0.4061  1.0840
 5105TIP3    H136806   2.988   2.856  12.731 -0.0054  0.2723  1.6937
 5105TIP3    H236807   3.083   2.777  12.819  0.5178 -0.2542  0.6768
 5106TIP3   OH236808   3.825   1.981  12.745 -0.3928 -0.3320  0.2993
 5106TIP3    H136809   3.810   1.895  12.786  2.2685 -0.5143  1.1005
 5106TIP3    H236810   3.791   1.971  12.656 -1.7754 -1.5914  0.9210
 5107TIP3   OH236811   4.057   4.767  10.539 -0.6969 -0.7809 -0.2044
 5107TIP3    H136812   3.987   4.788  10.601 -0.0435 -1.2439  0.7161
 5107TIP3    H236813   4.032   4.812  10.458  0.0024  2.5172  1.2708
 5108TIP3   OH236814   3.293   5.788  15.783  0.3422 -0.0913 -0.3012
 5108TIP3    H136815   3.284   5.882  15.767  0.3699  0.1722  1.1171
 5108TIP3    H236816   3.385   5.777  15.807  0.1058 -0.3101  0.5278
 5109TIP3   OH236817   4.455   5.537  11.082 -0.5478  0.8760  0.3795
 5109TIP3    H136818   4.373   5.493  11.107  1.5945 -2.7846  1.6428
 5109TIP3    H236819   4.478   5.497  10.997 -0.4333  2.4944 -0.3822
 5110TIP3   OH236820   0.968   1.822   5.481  0.4300  0.6602  0.1008
 5110TIP3    H136821   1.024   1.899   5.493 -1.6035  2.4750 -1.2403
 5110TIP3    H236822   0.885   1.847   5.522  0.4372 -1.8918  1.9328
 5111TIP3   OH236823   2.485   1.882  12.858 -0.0789  0.3026 -0.5180
 5111TIP3    H136824   2.507   1.803  12.808  0.9820 -0.6323  1.3474
 5111TIP3    H236825   2.563   1.938  12.850  0.6144 -0.3894  1.0593
 5112TIP3   OH236826   3.609   0.724   5.178  0.5931  0.2326 -0.3685
 5112TIP3    H136827   3.658   0.772   5.244 -0.1224 -0.5444  0.7563
 5112TIP3    H236828   3.674   0.707   5.109  1.5303  0.4903  0.4200
 5113TIP3   OH236829   1.110   1.645   1.830 -0.6503 -0.0153  0.5966
 5113TIP3    H136830   1.068   1.572   1.874 -0.6863 -0.4329 -0.1159
 5113TIP3    H236831   1.183   1.669   1.887  0.7739 -2.1033 -0.2330
 5114TIP3   OH236832   6.006   6.447   5.552  0.0912 -0.7595  0.0609
 5114TIP3    H136833   5.949   6.403   5.615 -0.3085 -1.0611 -0.4906
 5114TIP3    H236834   6.010   6.387   5.478  2.3427 -1.4146  0.6663
 5115TIP3   OH236835   0.666   5.165  11.229 -0.1096 -0.0516 -0.0449
 5115TIP3    H136836   0.729   5.200  11.167  1.4381 -1.0454  0.8917
 5115TIP3    H236837   0.689   5.072  11.237 -0.5053 -0.0409  1.6870
 5116TIP3   OH236838   5.944   5.809  14.330 -0.7356  0.3139  0.2879
 5116TIP3    H136839   6.010   5.875  14.350  0.8513 -1.2079  0.3023
 5116TIP3    H236840   5.945   5.801  14.234  2.1450 -2.5291  0.3920
 5117TIP3   OH236841   4.730   6.059  16.385  0.0603 -0.1744 -0.9141
 5117TIP3    H136842   4.687   6.123  16.442  0.5759 -0.1432 -0.5501
 5117TIP3    H236843   4.698   6.079  16.297 -0.1808  0.2508 -0.7301
 5118TIP3   OH236844   5.789   1.173  16.144  0.1957 -0.1502 -0.0722
 5118TIP3    H136845   5.756   1.249  16.096 -2.0637  0.4447  2.2118
 5118TIP3    H236846   5.807   1.207  16.232  0.5106 -1.9840  0.6000
 5119TIP3   OH236847   6.405   1.625  12.107  0.2075  0.0899  0.3313
 5119TIP3    H136848   6.377   1.686  12.175 -0.3513  0.5015 -0.2552
 5119TIP3    H236849   6.363   1.658  12.027 -1.8481 -2.2270  0.3413
 5120TIP3   OH236850   0.823   5.606   0.070  0.3327  0.8192  0.0388
 5120TIP3    H136851   0.787   5.644  -0.009 -0.0958 -0.8860 -0.6329
 5120TIP3    H236852   0.871   5.528   0.040 -2.6333 -1.8716  1.6010
 5121TIP3   OH236853   2.477   3.380   0.789  0.3713  0.0861 -0.2687
 5121TIP3    H136854   2.484   3.322   0.865  1.7709 -0.0140 -0.4352
 5121TIP3    H236855   2.519   3.461   0.818 -3.6871  2.0468  0.8259
 5122TIP3   OH236856   5.744   1.358  11.920  0.2032 -0.3789  0.0028
 5122TIP3    H136857   5.803   1.381  11.992  1.1220  0.4897 -0.9905
 5122TIP3    H236858   5.656   1.368  11.957  0.6539 -1.0063  1.3076
 5123TIP3   OH236859   2.560   4.384  13.864  0.1298  1.0072  0.5012
 5123TIP3    H136860   2.601   4.426  13.788 -2.0646 -0.6704 -1.8038
 5123TIP3    H236861   2.607   4.301  13.874  1.2088  1.7391  1.8464
 5124TIP3   OH236862   4.688   0.066  12.011 -0.3521  0.3538 -0.8206
 5124TIP3    H136863   4.608   0.117  12.026 -0.6187  0.2307 -1.7938
 5124TIP3    H236864   4.726   0.104  11.932  2.6970  3.0588  1.6818
 5125TIP3   OH236865   1.882   0.364   1.916 -0.1882  0.5487  0.0567
 5125TIP3    H136866   1.800   0.331   1.952  0.0538 -0.4296 -0.2527
 5125TIP3    H236867   1.923   0.411   1.988  0.6812 -2.0591  1.3643
 5126TIP3   OH236868   4.799   5.564  16.533  0.3834  0.4206  0.1656
 5126TIP3    H136869   4.805   5.637  16.471 -2.3296  0.4839 -0.1576
 5126TIP3    H236870   4.752   5.601  16.608  1.4779 -0.2904  1.2240
 5127TIP3   OH236871   3.535   3.627  12.832  0.2490 -0.2341  0.6809
 5127TIP3    H136872   3.460   3.587  12.875  0.7100 -0.4440  1.3031
 5127TIP3    H236873   3.571   3.688  12.897 -0.0268  0.6947 -0.0024
 5128TIP3   OH236874   1.671   2.712   3.717  0.1278 -0.0845 -0.2052
 5128TIP3    H136875   1.636   2.671   3.797  0.3279  3.3487  1.8492
 5128TIP3    H236876   1.735   2.649   3.684  0.4991 -1.4209  2.7339
 5129TIP3   OH236877   5.784   0.481  16.972 -0.5370  0.0888  0.3571
 5129TIP3    H136878   5.766   0.566  16.932 -0.3542 -0.5661 -1.2053
 5129TIP3    H236879   5.878   0.469  16.959 -0.7193 -0.7363 -0.2727
 5130TIP3   OH236880   2.804   4.705  12.722 -0.0982  0.3938 -0.7071
 5130TIP3    H136881   2.758   4.629  12.759  0.8830  0.5371  0.8954
 5130TIP3    H236882   2.746   4.779  12.738  0.3802  0.4819  0.7855
 5131TIP3   OH236883   6.250   1.370  12.395 -0.3787 -0.0793 -0.0156
 5131TIP3    H136884   6.292   1.455  12.402 -1.3656  0.6383 -1.9808
 5131TIP3    H236885   6.321   1.309  12.375  0.4284  0.1115  2.0257
 5132TIP3   OH236886   5.094   4.032  12.025  0.1219  0.2991  0.0234
 5132TIP3    H136887   5.150   4.056  11.952 -1.4521 -0.2388 -1.4236
 5132TIP3    H236888   5.081   4.113  12.074  1.8527  0.4942  0.2190
 5133TIP3   OH236889   3.292   1.226   5.527  0.0121  0.7104 -0.3584
 5133TIP3    H136890   3.267   1.270   5.609  0.8856  0.8037 -0.1297
 5133TIP3    H236891   3.252   1.280   5.458 -1.7502 -0.0318  0.0155
 5134TIP3   OH236892   2.253   0.571  10.472 -0.4053 -0.4593  0.2534
 5134TIP3    H136893   2.255   0.476  10.479  1.1973 -0.5737 -1.0792
 5134TIP3    H236894   2.189   0.589  10.403 -0.8538 -0.5480  0.6422
 5135TIP3   OH236895   5.370   5.864  13.053 -0.4767 -0.0243  0.8092
 5135TIP3    H136896   5.434   5.811  13.006 -1.7234 -0.8272 -0.0370
 5135TIP3    H236897   5.352   5.938  12.994 -1.2460 -0.4706  0.4648
 5136TIP3   OH236898   1.881   2.882  13.797 -0.9421 -0.6185  0.1812
 5136TIP3    H136899   1.932   2.817  13.845  1.2779  0.7046 -0.2558
 5136TIP3    H236900   1.894   2.964  13.845 -0.5184  0.2766 -1.3849
 5137TIP3   OH236901   6.107   0.472   4.048 -0.1170 -0.2186 -0.9149
 5137TIP3    H136902   6.011   0.481   4.043 -0.0969  0.3075 -0.4749
 5137TIP3    H236903   6.140   0.546   3.996  0.0492  0.8751  0.6778
 5138TIP3   OH236904   4.212   4.586  12.903 -0.1741 -0.4080  0.2343
 5138TIP3    H136905   4.218   4.654  12.970  1.0875 -0.9586  0.7150
 5138TIP3    H236906   4.122   4.592  12.870  0.0809  1.9189 -0.1906
 5139TIP3   OH236907   5.383   0.035   5.076 -0.0689 -0.0259 -0.9293
 5139TIP3    H136908   5.366   0.009   5.167  0.1248  1.0085 -0.5777
 5139TIP3    H236909   5.327  -0.022   5.024  0.1293 -0.9313 -0.1946
 5140TIP3   OH236910   1.135   2.969  13.333  0.0014  0.1905 -0.4871
 5140TIP3    H136911   1.132   3.064  13.350 -0.2355 -0.0724  1.1159
 5140TIP3    H236912   1.201   2.959  13.264 -1.0265  1.6424 -1.7414
 5141TIP3   OH236913   2.672   1.837   4.717  0.1583 -0.1415 -0.2280
 5141TIP3    H136914   2.717   1.843   4.632 -0.3993 -2.2942 -0.7577
 5141TIP3    H236915   2.602   1.902   4.712  1.8441  1.7369 -0.2470
 5142TIP3   OH236916   4.055   3.641   0.535 -0.5764 -0.2445 -0.6452
 5142TIP3    H136917   4.118   3.594   0.589 -0.7588 -0.4461 -0.6061
 5142TIP3    H236918   4.016   3.705   0.594 -0.0919  0.1856 -0.7815
 5143TIP3   OH236919   3.147   3.755   6.000  0.6328  0.3978 -0.4982
 5143TIP3    H136920   3.223   3.708   6.035  2.7777  2.7800 -1.5709
 5143TIP3    H236921   3.124   3.818   6.069  0.0164  0.1016 -0.4281
 5144TIP3   OH236922   3.139   0.941  17.110 -0.2379 -0.4651  0.0013
 5144TIP3    H136923   3.148   0.887  17.032  1.3866  0.0527 -0.2172
 5144TIP3    H236924   3.045   0.948  17.124 -0.5124 -2.2242 -0.7275
 5145TIP3   OH236925   0.149   1.283  13.111 -0.3711  0.3887  1.0765
 5145TIP3    H136926   0.201   1.267  13.190 -0.9153 -0.5706  1.2611
 5145TIP3    H236927   0.214   1.296  13.042  0.1142  0.4569  1.5426
 5146TIP3   OH236928   0.060   3.711   4.912  0.1010 -0.8482  0.4953
 5146TIP3    H136929  -0.014   3.726   4.854  1.5903 -0.0906 -1.2861
 5146TIP3    H236930   0.055   3.617   4.933 -1.0913 -0.9031  0.0644
 5147TIP3   OH236931   5.778   3.870   3.507 -0.6245  0.3975  0.1350
 5147TIP3    H136932   5.817   3.787   3.481  0.7369  1.3046 -0.8718
 5147TIP3    H236933   5.814   3.934   3.446 -1.4834  1.7757  1.0020
 5148TIP3   OH236934   1.628   1.085   1.395 -0.7049  0.1866  0.0657
 5148TIP3    H136935   1.641   1.006   1.343 -0.1157  0.6980 -0.5958
 5148TIP3    H236936   1.654   1.156   1.336  0.0107  0.7822  1.0758
 5149TIP3   OH236937   4.217   6.549   4.445 -0.1759  0.3016  0.0872
 5149TIP3    H136938   4.133   6.507   4.430 -0.5409  1.1856 -0.4129
 5149TIP3    H236939   4.200   6.643   4.435  0.3459  0.7044  2.4724
 5150TIP3   OH236940   0.477   3.371   2.132  0.1191  0.0140  0.6964
 5150TIP3    H136941   0.508   3.391   2.043 -0.0087  0.1132  0.6730
 5150TIP3    H236942   0.539   3.416   2.190 -0.6749  1.2540  0.6309
 5151TIP3   OH236943   3.500   3.235   3.600  0.5724  0.1423 -0.4018
 5151TIP3    H136944   3.566   3.230   3.531  0.9524  0.5842 -0.0741
 5151TIP3    H236945   3.526   3.167   3.663  1.0010  0.6465 -0.0297
 5152TIP3   OH236946   2.654   0.431  16.347 -0.3496  0.3294  0.1373
 5152TIP3    H136947   2.562   0.455  16.357 -0.3935 -0.3353  1.7025
 5152TIP3    H236948   2.655   0.365  16.278 -1.0270  0.4690 -0.0077
 5153TIP3   OH236949   1.745   4.591  17.126  0.1773  0.0755  0.5200
 5153TIP3    H136950   1.825   4.573  17.175  1.4149  2.0541 -0.6381
 5153TIP3    H236951   1.728   4.510  17.076  2.2222  0.0552 -0.2165
 5154TIP3   OH236952   0.827   6.174  17.163 -0.2697 -0.2327 -0.3916
 5154TIP3    H136953   0.863   6.160  17.250 -0.0754  0.6644 -0.3120
 5154TIP3    H236954   0.815   6.269  17.157 -1.1758 -0.3704 -0.9900
 5155TIP3   OH236955   4.802   0.424   2.300 -0.2800  0.2223 -0.4767
 5155TIP3    H136956   4.808   0.518   2.313  0.5275  0.1116 -0.0220
 5155TIP3    H236957   4.791   0.413   2.205  0.2079  0.7452 -0.5977
 5156TIP3   OH236958   5.228   6.220  15.657  0.9903 -0.1453  0.2473
 5156TIP3    H136959   5.181   6.302  15.645  0.0983 -0.5075  1.0398
 5156TIP3    H236960   5.313   6.245  15.693  0.8457  0.4461  0.1803
 5157TIP3   OH236961   5.646   6.260   0.807  0.1243  0.1311  0.3649
 5157TIP3    H136962   5.706   6.321   0.762  0.2301 -1.8465 -2.4593
 5157TIP3    H236963   5.559   6.298   0.791  0.3408  1.0633  1.2616
 5158TIP3   OH236964   1.494   2.647  16.659  0.2083 -0.1118  0.0651
 5158TIP3    H136965   1.486   2.713  16.728 -0.1587  0.9196 -0.9199
 5158TIP3    H236966   1.571   2.675  16.608 -1.4536  1.1459 -1.9327
 5159TIP3   OH236967   0.290   2.635   2.214  0.2001 -0.0528 -0.4228
 5159TIP3    H136968   0.335   2.570   2.267 -1.4146 -1.6413 -0.8915
 5159TIP3    H236969   0.197   2.618   2.229 -0.2777  0.9290 -2.0210
 5160TIP3   OH236970   5.224   1.646   0.193  0.3681  0.1945 -0.2069
 5160TIP3    H136971   5.280   1.575   0.223 -0.6342 -0.5236  0.0226
 5160TIP3    H236972   5.164   1.662   0.266 -0.5965  0.0112 -0.9294
 5161TIP3   OH236973   5.496   5.059  12.031  0.4633 -0.4871 -0.2447
 5161TIP3    H136974   5.475   5.040  12.122 -0.3419 -2.4550 -0.7950
 5161TIP3    H236975   5.419   5.104  11.997  0.0523 -1.2608 -0.3684
 5162TIP3   OH236976   6.235   1.631   1.341  0.2768 -0.4848 -0.0117
 5162TIP3    H136977   6.165   1.566   1.341 -1.6952  1.5122 -0.3093
 5162TIP3    H236978   6.315   1.580   1.349 -1.1303 -2.9593 -0.6442
 5163TIP3   OH236979   2.019   5.068  11.627  1.2897  0.1227 -0.1378
 5163TIP3    H136980   1.936   5.037  11.663  1.0382  0.9387 -0.0034
 5163TIP3    H236981   2.086   5.017  11.674  0.8858 -0.3341 -0.0449
 5164TIP3   OH236982   2.431   0.787   4.651 -0.6121  0.0638  0.6818
 5164TIP3    H136983   2.433   0.849   4.724 -1.4205  0.2835  0.5252
 5164TIP3    H236984   2.352   0.735   4.666  0.3590 -1.3609  1.1392
 5165TIP3   OH236985   2.392   3.551   3.682 -0.4692 -0.2203  0.3741
 5165TIP3    H136986   2.344   3.507   3.752 -1.0797  0.0608  0.1449
 5165TIP3    H236987   2.484   3.536   3.702 -0.6478 -1.9850  0.0624
 5166TIP3   OH236988   1.732   0.618  10.524  0.1445 -0.0937 -0.2251
 5166TIP3    H136989   1.766   0.651  10.441  2.4134 -0.7902  0.3603
 5166TIP3    H236990   1.796   0.554  10.553 -1.1651 -0.6924  1.5394
 5167TIP3   OH236991   4.418   1.962  13.481  0.2823 -0.0820 -0.5339
 5167TIP3    H136992   4.394   1.990  13.393  1.5275  0.8860 -0.5921
 5167TIP3    H236993   4.503   2.003  13.497 -0.0971  0.1006  1.2631
 5168TIP3   OH236994   3.819   4.335  12.427 -0.2834 -0.2153 -0.4709
 5168TIP3    H136995   3.769   4.416  12.416  0.6485  0.7314  1.7658
 5168TIP3    H236996   3.886   4.356  12.491  0.9245 -2.3824 -0.9239
 5169TIP3   OH236997   3.917   4.191   4.668 -0.4140 -0.0305 -0.2993
 5169TIP3    H136998   3.875   4.255   4.724  0.7984  0.3523  0.2176
 5169TIP3    H236999   3.891   4.215   4.579  0.4638  1.5609 -0.1593
 5170TIP3   OH237000   1.627   1.004  15.404  0.2339 -0.4777 -0.1207
 5170TIP3    H137001   1.604   1.059  15.329 -4.1430 -1.1987  0.4199
 5170TIP3    H237002   1.663   1.065  15.468 -0.6680  1.0630 -1.0071
 5171TIP3   OH237003   0.859   0.527  15.137 -0.0650 -0.1500 -0.3726
 5171TIP3    H137004   0.818   0.528  15.223 -2.0443 -2.1441 -1.2013
 5171TIP3    H237005   0.875   0.619  15.117 -0.8666  0.4406  1.5351
 5172TIP3   OH237006   6.204   2.692  11.408  0.2043  0.5465 -0.0995
 5172TIP3    H137007   6.124   2.699  11.460  0.2472  2.2262 -0.2085
 5172TIP3    H237008   6.202   2.768  11.351  1.5812  0.2686 -0.5509
 5173TIP3   OH237009   6.483   6.805   2.699  0.0888 -0.0923 -0.1130
 5173TIP3    H137010   6.406   6.846   2.738 -0.7059 -2.2418  0.7224
 5173TIP3    H237011   6.553   6.869   2.710 -1.2256  1.2684  0.5533
 5174TIP3   OH237012   2.494   1.152  15.270 -0.3100 -0.0912 -0.0895
 5174TIP3    H137013   2.456   1.237  15.292 -1.1824 -0.5573  0.2059
 5174TIP3    H237014   2.546   1.128  15.347 -1.1057 -0.4233  0.3482
 5175TIP3   OH237015   4.634   0.323   4.733  0.1951  0.3868  0.2234
 5175TIP3    H137016   4.654   0.273   4.812  0.6999 -0.5638 -0.4868
 5175TIP3    H237017   4.718   0.359   4.706 -0.1424  1.5563  0.6572
 5176TIP3   OH237018   6.386   2.737  15.242  0.1975 -0.3419  0.1095
 5176TIP3    H137019   6.330   2.729  15.319 -1.3176  1.7532 -0.6511
 5176TIP3    H237020   6.328   2.774  15.175  1.8992 -0.4399 -1.4908
 5177TIP3   OH237021   4.596   6.594  12.112 -0.1788 -0.2332  0.2486
 5177TIP3    H137022   4.612   6.633  12.026 -0.2715 -1.2722 -0.2599
 5177TIP3    H237023   4.532   6.525  12.095 -1.6921  0.8068  1.4777
 5178TIP3   OH237024   2.867   5.942  16.729 -0.3143 -0.0183 -0.1587
 5178TIP3    H137025   2.867   6.037  16.714 -0.3865 -0.2453 -1.8238
 5178TIP3    H237026   2.856   5.904  16.641  2.3041 -1.6121  0.0952
 5179TIP3   OH237027   5.936   0.384  16.149 -0.5669  0.1857  0.0628
 5179TIP3    H137028   5.968   0.326  16.080 -1.2247 -0.8696  0.6176
 5179TIP3    H237029   5.845   0.401  16.127 -0.3050  1.3041 -0.2641
 5180TIP3   OH237030   0.020   0.156   3.882  0.0760  0.5510 -0.3382
 5180TIP3    H137031  -0.010   0.216   3.814 -0.3889 -1.1719 -1.7511
 5180TIP3    H237032  -0.060   0.125   3.924  0.1396 -0.5830 -1.0113
 5181TIP3   OH237033   0.212   1.317   3.387 -0.0033 -0.7955 -0.2462
 5181TIP3    H137034   0.250   1.241   3.344  0.7727  0.0529 -1.1084
 5181TIP3    H237035   0.170   1.366   3.317  0.5687  0.1937  0.0809
 5182TIP3   OH237036   2.384   0.014  12.376 -0.5199 -0.3449  0.5135
 5182TIP3    H137037   2.378  -0.072  12.334  0.6802 -0.7185  1.0663
 5182TIP3    H237038   2.478   0.031  12.382 -0.7252  0.5427  1.3458
 5183TIP3   OH237039   4.043   2.089  16.230  0.0727  0.0891  0.0428
 5183TIP3    H137040   4.138   2.084  16.232  0.1680  1.1955 -1.0540
 5183TIP3    H237041   4.020   2.144  16.305  0.0907 -2.1702  1.8223
 5184TIP3   OH237042   5.739   1.216   6.040  0.1631 -0.3365  0.0039
 5184TIP3    H137043   5.767   1.177   6.123 -1.1563 -0.7079  0.2982
 5184TIP3    H237044   5.653   1.177   6.024  0.7684 -0.9391 -1.9861
 5185TIP3   OH237045   2.192   2.906   1.650 -0.0662 -0.5719  0.5577
 5185TIP3    H137046   2.184   2.997   1.678  0.7265 -0.4813  0.4996
 5185TIP3    H237047   2.194   2.910   1.554 -0.1769 -0.6619  0.5514
 5186TIP3   OH237048   4.677   3.590  15.158  0.6749  0.2878  0.4538
 5186TIP3    H137049   4.638   3.673  15.185  1.7127  1.5636 -1.6694
 5186TIP3    H237050   4.771   3.607  15.158  0.8518 -0.4861 -1.1536
 5187TIP3   OH237051   1.524   3.198   5.197 -0.2645 -0.2839  0.5838
 5187TIP3    H137052   1.607   3.151   5.195  0.2671  0.4611  2.5886
 5187TIP3    H237053   1.501   3.210   5.105  2.2707  0.2196 -0.0598
 5188TIP3   OH237054   2.334   6.031  17.064  0.1518  0.4092 -0.3779
 5188TIP3    H137055   2.278   6.003  17.137  0.4121  0.2268 -0.2484
 5188TIP3    H237056   2.409   6.073  17.106  0.0446  0.7810 -0.5584
 5189TIP3   OH237057   5.558   2.923  15.541  0.4614 -0.1707  0.0199
 5189TIP3    H137058   5.468   2.916  15.509  0.6253  1.5218 -0.9135
 5189TIP3    H237059   5.565   2.853  15.606 -1.8468  0.2547  0.8505
 5190TIP3   OH237060   1.787   4.926  13.426  0.3139  0.0587  0.4256
 5190TIP3    H137061   1.701   4.907  13.465 -1.1698  0.1341 -2.5551
 5190TIP3    H237062   1.808   4.847  13.376 -0.0803  1.5192 -2.2168
 5191TIP3   OH237063   1.720   1.474   2.549 -0.3541 -0.0866  0.1098
 5191TIP3    H137064   1.750   1.558   2.584 -1.4843  1.8053 -3.0487
 5191TIP3    H237065   1.754   1.409   2.610 -1.4890  2.7343  4.1578
 5192TIP3   OH237066   4.392   0.817   2.459 -0.0523 -0.4157  0.1229
 5192TIP3    H137067   4.405   0.744   2.398 -1.0817  0.8020 -1.6497
 5192TIP3    H237068   4.388   0.776   2.545  0.7202 -2.2957 -0.6825
 5193TIP3   OH237069   4.660   4.389  15.413  0.1354  0.4403 -0.4926
 5193TIP3    H137070   4.642   4.481  15.393 -0.2040  0.0841 -1.9180
 5193TIP3    H237071   4.700   4.354  15.334  1.1784 -0.4126  0.3847
 5194TIP3   OH237072   3.377   4.777  13.188  0.0118 -0.1086  0.0328
 5194TIP3    H137073   3.422   4.851  13.147  0.6374  0.0316  0.9357
 5194TIP3    H237074   3.285   4.804  13.192  0.0764  0.2038 -0.5358
 5195TIP3   OH237075   5.887   3.472  12.186 -0.0888 -0.0683 -0.4923
 5195TIP3    H137076   5.937   3.541  12.231 -0.8083  0.2494 -0.1607
 5195TIP3    H237077   5.924   3.470  12.097  0.0596  0.6205 -0.4545
 5196TIP3   OH237078   4.423   0.393   1.914  0.2691  0.4790 -0.2527
 5196TIP3    H137079   4.383   0.308   1.935  0.9493  0.1805 -0.1155
 5196TIP3    H237080   4.349   0.450   1.894 -0.3157  0.3504  1.4053
 5197TIP3   OH237081   0.873   3.566   1.302 -0.0696 -0.2942  0.3258
 5197TIP3    H137082   0.792   3.618   1.298 -0.0844 -0.3496 -0.1466
 5197TIP3    H237083   0.891   3.558   1.396  1.4128  2.8930  0.4467
 5198TIP3   OH237084   1.076   1.136  11.373  0.4925 -0.3100 -0.0016
 5198TIP3    H137085   1.124   1.212  11.404 -1.8439  0.3294  2.3465
 5198TIP3    H237086   1.067   1.080  11.450 -0.8503 -1.2790 -0.8204
 5199TIP3   OH237087   1.063   5.847  12.266 -0.1655  0.1228 -0.4652
 5199TIP3    H137088   1.075   5.754  12.285  0.8286  0.1646 -0.8166
 5199TIP3    H237089   0.971   5.855  12.240 -0.1493 -0.8304 -0.8551
 5200TIP3   OH237090   3.945   3.871  12.816 -0.0081  0.2946 -0.3795
 5200TIP3    H137091   3.979   3.849  12.902 -1.1478 -1.1119 -0.2537
 5200TIP3    H237092   4.023   3.880  12.761  0.8727  3.1418  1.1420
 5201TIP3   OH237093   1.617   6.664  16.695 -0.0406 -0.8383 -0.0259
 5201TIP3    H137094   1.685   6.670  16.762 -0.0530 -1.2296  0.0234
 5201TIP3    H237095   1.544   6.716  16.728  0.6774  0.6192 -0.6224
 5202TIP3   OH237096   3.850   3.368  12.541 -0.3475 -0.2162  0.5623
 5202TIP3    H137097   3.903   3.328  12.472 -0.8401 -1.4273  0.8716
 5202TIP3    H237098   3.821   3.451  12.503  1.9172  0.5982  0.4744
 5203TIP3   OH237099   2.225   3.599   3.984 -0.1592  0.3128 -0.1202
 5203TIP3    H137100   2.301   3.648   4.014 -0.6742  0.7742  0.4704
 5203TIP3    H237101   2.255   3.509   3.980  0.3883  0.4702  0.2325
 5204TIP3   OH237102   5.268   5.212  13.286 -0.0081 -0.0819 -0.2076
 5204TIP3    H137103   5.351   5.216  13.334  0.3740  0.4810 -0.8899
 5204TIP3    H237104   5.267   5.293  13.234  0.5986 -1.6248 -2.7834
 5205TIP3   OH237105   6.454   2.008  13.169 -0.4584 -0.3527  0.3904
 5205TIP3    H137106   6.374   1.958  13.155 -1.6322  1.2359  1.1169
 5205TIP3    H237107   6.431   2.073  13.236  1.2385  0.5935  0.1251
 5206TIP3   OH237108   5.680   2.202   4.051  0.1534 -0.5599 -0.3827
 5206TIP3    H137109   5.746   2.270   4.053  0.4987 -0.8918 -0.3365
 5206TIP3    H237110   5.615   2.229   4.116  0.3868 -0.3745 -0.2249
 5207TIP3   OH237111   0.484   0.797   4.212  0.2063  0.2386 -0.0324
 5207TIP3    H137112   0.490   0.717   4.265  2.5548  0.6892  0.4719
 5207TIP3    H237113   0.499   0.767   4.122  2.2134  0.1991  0.2782
 5208TIP3   OH237114   2.394   5.081   2.263  0.9479 -0.3091 -0.2745
 5208TIP3    H137115   2.341   5.136   2.320  1.7887  0.2195  0.0040
 5208TIP3    H237116   2.384   5.120   2.176  0.4009 -0.5752 -0.3386
 5209TIP3   OH237117   4.656   1.984  16.136  0.8783  0.1785  0.3330
 5209TIP3    H137118   4.728   1.984  16.072 -0.2330 -1.1162 -1.0053
 5209TIP3    H237119   4.602   1.909  16.110  1.2099 -1.4407  3.7735
 5210TIP3   OH237120   6.705   2.160  16.986  0.2353  0.0200  0.4607
 5210TIP3    H137121   6.786   2.109  16.982  1.1456  1.4428 -0.4870
 5210TIP3    H237122   6.734   2.249  17.007 -1.3997 -0.0084  3.1954
 5211TIP3   OH237123   4.667   5.087   5.568  0.2337  0.2150  0.0151
 5211TIP3    H137124   4.735   5.065   5.505 -0.0251 -2.8721  0.6625
 5211TIP3    H237125   4.710   5.147   5.630  2.6340 -2.0504  0.7286
 5212TIP3   OH237126   0.038   0.587   0.385 -0.6213  0.5526 -0.0256
 5212TIP3    H137127   0.036   0.663   0.327 -0.3213  1.8738  1.6385
 5212TIP3    H237128   0.089   0.615   0.460 -2.7562 -0.3519  1.8900
 5213TIP3   OH237129   5.183   0.329   2.691 -0.1075 -0.2252  0.4750
 5213TIP3    H137130   5.140   0.316   2.607  1.0468 -0.7440 -0.0513
 5213TIP3    H237131   5.121   0.293   2.755 -0.6044 -0.6314 -0.2201
 5214TIP3   OH237132   4.744   2.341   3.184 -0.0768  0.4007  0.6096
 5214TIP3    H137133   4.718   2.427   3.151  0.0527 -0.1033 -0.8564
 5214TIP3    H237134   4.662   2.291   3.187 -0.3480  0.8633  2.5150
 5215TIP3   OH237135   4.577   0.648  14.130  0.0455 -0.3439  0.4856
 5215TIP3    H137136   4.627   0.691  14.060 -2.5835  0.9102 -0.7252
 5215TIP3    H237137   4.550   0.719  14.188 -0.1891 -1.0368  1.2475
 5216TIP3   OH237138   2.194   6.303  12.604  0.1011 -0.3720  0.2540
 5216TIP3    H137139   2.154   6.325  12.688 -0.0017  0.1246  0.0797
 5216TIP3    H237140   2.139   6.233  12.569 -1.6857  1.4388 -0.7672
 5217TIP3   OH237141   3.703   3.907   3.809  0.1015  0.8758 -0.4729
 5217TIP3    H137142   3.628   3.848   3.805 -0.8928  2.0232  0.4224
 5217TIP3    H237143   3.769   3.859   3.860 -0.7687  0.5989  0.4129
 5218TIP3   OH237144   6.420   0.094   1.269 -0.4903 -0.4202  0.0221
 5218TIP3    H137145   6.436   0.185   1.296 -3.4258  0.6100 -1.3206
 5218TIP3    H237146   6.484   0.079   1.199  0.2355  0.4790  0.4601
 5219TIP3   OH237147   6.629   4.978  13.953 -0.1075  0.2422  0.0903
 5219TIP3    H137148   6.614   5.066  13.919 -2.3190  0.0588  0.4397
 5219TIP3    H237149   6.600   4.982  14.044 -0.1536 -0.8216  0.1300
 5220TIP3   OH237150   1.479   1.094   2.689  0.0138 -0.4299  0.5621
 5220TIP3    H137151   1.468   1.179   2.647  2.2001 -1.0328 -1.4140
 5220TIP3    H237152   1.400   1.045   2.665 -1.1860  0.8994  1.5771
 5221TIP3   OH237153   0.296   1.231   4.544  0.4058  0.2968  0.0536
 5221TIP3    H137154   0.379   1.189   4.520  0.3539 -0.0993  0.5509
 5221TIP3    H237155   0.314   1.325   4.537  1.0622  0.2268  0.6844
 5222TIP3   OH237156   0.468   4.223  15.461 -0.0162 -0.3679  0.4116
 5222TIP3    H137157   0.377   4.198  15.442 -0.1653  1.0218 -0.8543
 5222TIP3    H237158   0.478   4.309  15.420  2.1120 -0.8426 -0.1441
 5223TIP3   OH237159   2.168   2.693   3.168  0.4672  0.2260 -0.0743
 5223TIP3    H137160   2.235   2.680   3.236 -1.2765 -0.2862  1.6245
 5223TIP3    H237161   2.094   2.639   3.197 -0.1334 -0.5248 -2.7407
 5224TIP3   OH237162   4.726   5.099  14.440 -0.0676 -0.0463 -0.2792
 5224TIP3    H137163   4.703   5.126  14.529 -1.2829 -0.5944 -0.4097
 5224TIP3    H237164   4.739   5.181  14.392 -0.7239  0.2729  0.0791
 5225TIP3   OH237165   0.732   5.581  14.007 -0.0211 -0.5727  0.1358
 5225TIP3    H137166   0.774   5.495  14.003 -3.0403 -2.1177 -1.3769
 5225TIP3    H237167   0.694   5.585  14.095 -1.1093 -1.4731 -0.2726
 5226TIP3   OH237168   5.249   4.932   1.933 -0.3053  0.0562  0.0311
 5226TIP3    H137169   5.318   4.989   1.967  0.0673 -0.0459 -0.5378
 5226TIP3    H237170   5.181   4.991   1.901  0.6191  0.2431 -1.7056
 5227TIP3   OH237171   6.162   0.259  16.559 -0.2038  0.0455  0.3186
 5227TIP3    H137172   6.079   0.211  16.563 -0.4877  0.4944 -0.0952
 5227TIP3    H237173   6.165   0.293  16.469  0.5316 -0.1548  0.2608
 5228TIP3   OH237174   3.814   1.124  13.676 -0.1196 -0.5208 -0.0349
 5228TIP3    H137175   3.723   1.136  13.703 -0.5891 -1.6318 -1.0250
 5228TIP3    H237176   3.838   1.206  13.633 -1.5685 -1.1613 -2.1853
 5229TIP3   OH237177   4.575   1.872  12.991 -0.8828  0.5171  0.6090
 5229TIP3    H137178   4.669   1.853  12.993 -0.4320  2.3427 -0.6573
 5229TIP3    H237179   4.537   1.811  13.053  1.1719 -0.1323  1.3105
 5230TIP3   OH237180   2.397   4.660   4.135  0.0675 -0.3403  0.4392
 5230TIP3    H137181   2.381   4.623   4.222 -0.1743 -0.4034  0.3670
 5230TIP3    H237182   2.384   4.587   4.075  0.8708 -0.4576  0.3956
 5231TIP3   OH237183   3.125   0.380   1.812  0.2134 -0.3286  0.2882
 5231TIP3    H137184   3.187   0.422   1.752 -0.2262  0.0422  0.0912
 5231TIP3    H237185   3.128   0.433   1.891 -1.5470  1.0782 -0.5291
 5232TIP3   OH237186   0.342   3.829  12.286  0.1602 -0.0054 -0.3202
 5232TIP3    H137187   0.270   3.826  12.223  0.7037 -1.5024 -0.8944
 5232TIP3    H237188   0.348   3.922  12.310 -1.2271  0.3151 -1.0953
 5233TIP3   OH237189   5.456   2.723   4.410 -0.6214 -0.6111  0.2281
 5233TIP3    H137190   5.454   2.655   4.477 -2.3960  1.8892  2.9574
 5233TIP3    H237191   5.375   2.710   4.359 -1.3054 -0.2058  1.1806
 5234TIP3   OH237192   5.990   2.723   0.393 -0.0612  0.2165  0.1657
 5234TIP3    H137193   5.976   2.640   0.347 -0.3554  0.1693  0.3394
 5234TIP3    H237194   6.038   2.699   0.472 -2.1093 -0.1080  1.3706
 5235TIP3   OH237195   2.342   5.331   3.577 -0.5654  0.2841 -0.2435
 5235TIP3    H137196   2.300   5.329   3.664  0.8285  0.2291  0.4560
 5235TIP3    H237197   2.418   5.388   3.589  1.5259 -2.2731 -0.5202
 5236TIP3   OH237198   2.457   0.769  12.296 -0.3663 -0.2773 -0.1558
 5236TIP3    H137199   2.544   0.732  12.311 -0.2820  0.5353  1.6702
 5236TIP3    H237200   2.400   0.718  12.353 -1.0933 -0.7021 -1.2269
 5237TIP3   OH237201   2.314   0.215   1.180 -0.1763 -0.3675  0.4963
 5237TIP3    H137202   2.335   0.220   1.274  1.0913  0.8935  0.1867
 5237TIP3    H237203   2.386   0.164   1.143  0.8566  1.4430 -0.1443
 5238TIP3   OH237204   2.834   2.689   5.597 -0.1423  0.5522  1.1358
 5238TIP3    H137205   2.901   2.721   5.657 -0.0066  0.1042  1.2272
 5238TIP3    H237206   2.817   2.600   5.625 -0.4601  0.5167  0.8379
 5239TIP3   OH237207   5.842   1.867   4.712 -0.4546 -0.1934  0.5172
 5239TIP3    H137208   5.786   1.791   4.703 -0.3983 -0.1399 -0.3802
 5239TIP3    H237209   5.788   1.932   4.757 -0.7817 -0.4789  0.5348
 5240TIP3   OH237210   4.701   3.087   1.548  0.0375  0.9267 -0.0065
 5240TIP3    H137211   4.759   3.013   1.569  0.5570  1.2785 -0.1814
 5240TIP3    H237212   4.649   3.055   1.474 -2.6961 -0.7862  2.4376
 5241TIP3   OH237213   5.011   0.421   1.960  0.3480 -0.5278 -0.0932
 5241TIP3    H137214   5.061   0.413   1.879  1.0191 -0.6651  0.3243
 5241TIP3    H237215   4.925   0.385   1.939 -0.1735  1.3304 -1.3324
 5242TIP3   OH237216   3.173   0.414   2.610 -0.0713 -1.1251 -0.0202
 5242TIP3    H137217   3.246   0.391   2.668  0.4217  1.1430  0.3294
 5242TIP3    H237218   3.203   0.489   2.560 -2.4927  0.6166  0.9207
 5243TIP3   OH237219   0.525   2.603  15.979 -0.4410 -0.4966  0.4394
 5243TIP3    H137220   0.503   2.632  15.891 -0.1688  0.6826  0.7316
 5243TIP3    H237221   0.601   2.546  15.967 -0.7545 -0.7957 -0.1372
 5244TIP3   OH237222   6.212   6.282  10.616 -0.4543  0.3008 -0.0841
 5244TIP3    H137223   6.141   6.266  10.554  0.6953 -2.1053 -0.9057
 5244TIP3    H237224   6.278   6.329  10.564 -1.0039  1.6802  0.4181
 5245TIP3   OH237225   3.841   0.670   0.408 -0.3160  0.1450 -0.0562
 5245TIP3    H137226   3.887   0.588   0.423  0.1736  0.6810  1.6887
 5245TIP3    H237227   3.906   0.728   0.367 -0.3127  0.0129 -0.2364
 5246TIP3   OH237228   4.598   5.325   4.154  0.0824  0.0387 -0.4135
 5246TIP3    H137229   4.629   5.290   4.238 -0.6002 -0.2250 -0.2643
 5246TIP3    H237230   4.622   5.257   4.090  0.3740  0.1223 -0.3920
 5247TIP3   OH237231   6.065   0.893   2.621 -0.0414 -0.7933 -0.6353
 5247TIP3    H137232   6.087   0.971   2.672 -1.4568  0.3394 -1.6704
 5247TIP3    H237233   6.065   0.923   2.530  1.8073 -2.6115 -1.3066
 5248TIP3   OH237234   6.701   5.694  13.550  0.6300 -0.6502 -0.3946
 5248TIP3    H137235   6.769   5.761  13.547 -0.8370  1.0125  1.0356
 5248TIP3    H237236   6.748   5.612  13.567  2.5274 -0.1360 -2.5807
 5249TIP3   OH237237   0.873   1.621   2.445 -0.5782  0.1270 -0.4679
 5249TIP3    H137238   0.907   1.634   2.357 -0.0779 -3.1671 -0.8783
 5249TIP3    H237239   0.855   1.527   2.451 -0.8144  0.2542  2.8619
 5250TIP3   OH237240   6.411   4.071  14.419 -0.3929  0.3656 -0.1087
 5250TIP3    H137241   6.336   4.130  14.426 -1.7167 -1.3264  0.6508
 5250TIP3    H237242   6.407   4.037  14.330 -0.3897  0.4410 -0.1380
 5251TIP3   OH237243   2.670   6.174   0.605 -1.0226  0.0102 -0.2054
 5251TIP3    H137244   2.609   6.245   0.584  0.8185  1.8846  0.4266
 5251TIP3    H237245   2.673   6.174   0.701  0.0333  0.0459 -0.2323
 5252TIP3   OH237246   5.844   3.800   1.628 -0.3324 -0.2920  0.2824
 5252TIP3    H137247   5.869   3.865   1.562 -1.7891  0.9620  0.9109
 5252TIP3    H237248   5.920   3.741   1.633 -0.1590 -0.4612 -2.5019
 5253TIP3   OH237249   5.611   5.858   0.869  0.6875  0.2279 -0.2176
 5253TIP3    H137250   5.562   5.939   0.883 -0.5274 -0.4346 -0.4467
 5253TIP3    H237251   5.614   5.847   0.774 -1.1094 -1.0901 -0.1755
 5254TIP3   OH237252   0.212   0.463  12.957  0.3352 -0.1663 -0.4154
 5254TIP3    H137253   0.184   0.554  12.963  2.9952  0.6559  1.5406
 5254TIP3    H237254   0.215   0.432  13.048  0.9189 -1.7071 -0.9223
 5255TIP3   OH237255   4.614   4.532   5.470 -0.0441  0.7900  0.3941
 5255TIP3    H137256   4.689   4.587   5.495 -0.6072  2.0436 -0.5266
 5255TIP3    H237257   4.653   4.458   5.423  0.7045  0.7024  1.1412
 5256TIP3   OH237258   0.551   4.440  11.807 -0.2398  0.1149 -0.0248
 5256TIP3    H137259   0.497   4.489  11.745  0.7009  1.6833  0.3490
 5256TIP3    H237260   0.554   4.494  11.885  0.3911 -0.8072  0.6148
 5257TIP3   OH237261   2.131   3.205   1.847 -0.5687  0.0214 -0.0611
 5257TIP3    H137262   2.120   3.260   1.769 -0.1872 -0.2438 -0.3076
 5257TIP3    H237263   2.064   3.137   1.838 -1.0719  0.4671  0.2678
 5258TIP3   OH237264   1.775   4.213   5.698  0.2601 -0.1073  0.2373
 5258TIP3    H137265   1.771   4.199   5.603 -0.3462  1.2140  0.0392
 5258TIP3    H237266   1.770   4.126   5.736 -0.0132 -0.6196 -0.9406
 5259TIP3   OH237267   0.797   6.488  15.418 -0.1283  0.0918  0.1686
 5259TIP3    H137268   0.817   6.536  15.338 -0.1902  0.2022  0.2193
 5259TIP3    H237269   0.863   6.516  15.480 -0.3662  0.3675  0.2994
 5260TIP3   OH237270   3.882   6.801  16.868 -0.5958  0.0202  0.1941
 5260TIP3    H137271   3.964   6.794  16.821 -1.5039 -0.5086 -1.3686
 5260TIP3    H237272   3.908   6.822  16.958  1.1998  0.4682 -0.3865
 5261TIP3   OH237273   1.462   6.817  14.065  0.3486 -0.6874 -0.3872
 5261TIP3    H137274   1.510   6.832  13.984  0.8892 -1.8021 -0.2911
 5261TIP3    H237275   1.498   6.735  14.100  1.1511  0.4799  1.7333
 5262TIP3   OH237276   1.866   6.386  16.392  0.1519 -0.0203 -0.6105
 5262TIP3    H137277   1.800   6.418  16.453  0.2207 -0.1876 -0.4472
 5262TIP3    H237278   1.817   6.365  16.312  0.0548  0.1480 -0.5951
 5263TIP3   OH237279   4.607   6.225  11.258 -0.4098  0.0945  0.3061
 5263TIP3    H137280   4.592   6.161  11.189 -0.0872  0.3418 -0.0001
 5263TIP3    H237281   4.592   6.310  11.216 -3.6057  0.1991  1.3785
 5264TIP3   OH237282   2.463   2.308   5.806 -0.4113 -0.0034 -0.2100
 5264TIP3    H137283   2.505   2.253   5.741  0.8610 -0.6851  1.1288
 5264TIP3    H237284   2.402   2.249   5.852 -0.4112  0.1658  0.0134
 5265TIP3   OH237285   1.240   2.340   3.775  0.0528  0.0620 -0.1294
 5265TIP3    H137286   1.218   2.295   3.693  0.4252 -2.9128  1.2637
 5265TIP3    H237287   1.298   2.412   3.748  1.2673 -1.6253 -2.3978
 5266TIP3   OH237288   6.326   3.284   3.623  0.0666 -0.0577 -0.2409
 5266TIP3    H137289   6.314   3.231   3.702  0.4811 -2.4307 -1.6756
 5266TIP3    H237290   6.243   3.276   3.577  0.0021  0.9050 -0.3089
 5267TIP3   OH237291   2.247   0.648   3.946 -0.0649 -0.2719 -0.5200
 5267TIP3    H137292   2.326   0.611   3.906 -1.3270 -1.4185 -2.1066
 5267TIP3    H237293   2.190   0.669   3.872 -0.7008  1.9319  0.5181
 5268TIP3   OH237294   4.870   5.781  15.883 -0.3038 -0.2820  0.4013
 5268TIP3    H137295   4.882   5.767  15.977 -0.1551  1.9601  0.7782
 5268TIP3    H237296   4.876   5.694  15.844  0.4538 -1.1602  2.3746
 5269TIP3   OH237297   6.083   0.850   4.133 -0.3287 -0.2460  0.5162
 5269TIP3    H137298   6.177   0.840   4.117 -0.2504  2.1365 -0.9751
 5269TIP3    H237299   6.068   0.803   4.215  1.9999 -1.3272  0.4193
 5270TIP3   OH237300   3.706   6.303  14.864  0.2963  0.3405 -0.2605
 5270TIP3    H137301   3.718   6.352  14.945  0.5493  0.6860 -0.5051
 5270TIP3    H237302   3.772   6.339  14.804 -0.5114  0.7453 -0.9227
 5271TIP3   OH237303   4.250   0.744  11.615 -0.1567  0.2057 -0.3045
 5271TIP3    H137304   4.258   0.834  11.647 -2.5965  1.0266 -1.6969
 5271TIP3    H237305   4.288   0.745  11.528  1.4646 -0.6268  0.3552
 5272TIP3   OH237306   5.855   0.616  14.744 -0.5657  0.1669 -0.3292
 5272TIP3    H137307   5.937   0.569  14.757 -1.6678 -1.2109  2.2074
 5272TIP3    H237308   5.857   0.640  14.651  3.0004  0.8885 -0.2450
 5273TIP3   OH237309   4.979   5.820   5.343  0.5697  0.9546 -0.3928
 5273TIP3    H137310   4.957   5.728   5.327 -1.2003  1.2735 -0.0417
 5273TIP3    H237311   5.004   5.853   5.256  0.9235  0.2263 -0.5797
 5274TIP3   OH237312   6.449   6.784   3.042 -0.0561  0.0626  0.1601
 5274TIP3    H137313   6.527   6.834   3.067  0.2611 -0.2378 -0.2021
 5274TIP3    H237314   6.477   6.734   2.965 -0.6176 -0.0326  0.0156
 5275TIP3   OH237315   3.581   3.914  14.867  0.7394  0.5926  0.3508
 5275TIP3    H137316   3.657   3.918  14.809  0.8664 -0.2851  0.4459
 5275TIP3    H237317   3.619   3.910  14.955  0.5921 -0.0395  0.3875
 5276TIP3   OH237318   6.310   6.572  13.137  0.0699  0.1596 -0.1432
 5276TIP3    H137319   6.294   6.636  13.067  0.7615  1.1691  0.5835
 5276TIP3    H237320   6.253   6.601  13.208 -0.7774 -0.9802 -0.3377
 5277TIP3   OH237321   4.286   2.899   4.387  0.1117 -0.2084 -0.1816
 5277TIP3    H137322   4.197   2.874   4.362 -0.3652 -1.0347  2.1246
 5277TIP3    H237323   4.341   2.831   4.348 -0.3536 -0.2939 -0.7118
 5278TIP3   OH237324   5.693   2.410   1.443 -0.1430 -0.2536  0.2570
 5278TIP3    H137325   5.601   2.429   1.422  0.0307 -0.7029 -1.0205
 5278TIP3    H237326   5.712   2.329   1.394  1.4347  0.8199 -1.0036
 5279TIP3   OH237327   0.295   3.603   0.678 -0.5640 -0.3760  0.6594
 5279TIP3    H137328   0.254   3.686   0.702  1.4317  0.8064  0.1932
 5279TIP3    H237329   0.245   3.537   0.726 -1.2248  1.2289  2.2875
 5280TIP3   OH237330   3.721   0.201  11.532  0.3504 -0.0873 -0.6868
 5280TIP3    H137331   3.666   0.171  11.460 -1.2380  0.1758  0.3742
 5280TIP3    H237332   3.778   0.267  11.493  0.3669 -0.8268 -1.9503
 5281TIP3   OH237333   0.122   4.535  15.418 -0.3330 -0.5958  0.0908
 5281TIP3    H137334   0.149   4.536  15.326  1.3520 -0.1671  0.5520
 5281TIP3    H237335   0.118   4.627  15.444 -0.7981 -0.7117  0.4435
 5282TIP3   OH237336   1.991   0.718   2.250 -0.2986 -0.2886 -0.1726
 5282TIP3    H137337   1.914   0.773   2.260 -0.0573 -0.0805  0.5984
 5282TIP3    H237338   2.043   0.734   2.329  0.0087 -1.2565 -0.1651
 5283TIP3   OH237339   3.679   4.322  16.431  0.1669 -0.7936  0.4069
 5283TIP3    H137340   3.673   4.408  16.473 -1.1764 -0.4796 -0.3843
 5283TIP3    H237341   3.772   4.302  16.432  0.4157  0.2707  1.3960
 5284TIP3   OH237342   4.120   0.751   5.093  0.0116 -0.7851 -0.0126
 5284TIP3    H137343   4.045   0.718   5.043 -1.5948  1.2627  0.8729
 5284TIP3    H237344   4.141   0.835   5.052  1.6194 -1.1384  0.0099
 5285TIP3   OH237345   6.091   5.984  13.479  0.3529  0.6514  0.2343
 5285TIP3    H137346   6.158   6.028  13.532 -1.8568  2.5185  1.7017
 5285TIP3    H237347   6.110   6.009  13.389  3.1580 -1.1312  0.2061
 5286TIP3   OH237348   5.793   2.783  12.292  0.2705  0.5872 -0.1490
 5286TIP3    H137349   5.701   2.798  12.314  0.0358 -0.0859 -0.6386
 5286TIP3    H237350   5.791   2.749  12.202  0.8384 -1.3310  0.5266
 5287TIP3   OH237351   1.303   2.667   3.861  0.8628 -0.0524 -0.5044
 5287TIP3    H137352   1.276   2.656   3.770  1.0322  0.8684 -0.6832
 5287TIP3    H237353   1.256   2.745   3.891  2.1559  0.7140 -0.3716
 5288TIP3   OH237354   4.141   0.075   6.476  0.7087  0.7554 -0.3303
 5288TIP3    H137355   4.078   0.012   6.511 -1.5197  2.9262 -0.2327
 5288TIP3    H237356   4.146   0.144   6.542  2.6494  1.0329 -0.7044
 5289TIP3   OH237357   2.965   0.281   2.043  0.7794 -0.1734 -0.1147
 5289TIP3    H137358   2.997   0.323   1.963  0.6346  1.5198  0.6836
 5289TIP3    H237359   2.939   0.193   2.015  1.9573 -0.0667 -1.6557
 5290TIP3   OH237360   5.952   4.918   3.125 -0.4374  0.3949 -0.4669
 5290TIP3    H137361   5.931   4.938   3.034 -1.5021  1.4112 -0.0258
 5290TIP3    H237362   5.893   4.846   3.148  1.7330 -1.8223 -1.3385
 5291TIP3   OH237363   5.805   4.997  13.520 -0.5159  0.1000 -0.6072
 5291TIP3    H137364   5.710   4.999  13.522 -0.5630 -0.8709 -1.2253
 5291TIP3    H237365   5.829   5.044  13.440 -0.5695 -1.2705 -1.4546
 5292TIP3   OH237366   6.592   1.804   4.798 -0.1618 -0.2086 -0.3677
 5292TIP3    H137367   6.505   1.777   4.828 -0.3838  1.5868  0.7645
 5292TIP3    H237368   6.651   1.774   4.867 -0.1746  0.3983 -0.0785
 5293TIP3   OH237369   0.367   2.803   2.718  0.0069 -0.0356  0.3658
 5293TIP3    H137370   0.447   2.847   2.692  0.0795 -0.6552 -0.5050
 5293TIP3    H237371   0.396   2.717   2.749 -0.2744 -0.0611  0.5691
 5294TIP3   OH237372   0.995   0.073   2.941  0.6192  0.1841  0.2242
 5294TIP3    H137373   0.976   0.159   2.978 -1.5068 -1.5872  3.7604
 5294TIP3    H237374   1.085   0.055   2.967  0.7338  0.9155  0.3503
 5295TIP3   OH237375   1.580   0.220   5.309 -0.5112 -0.2295 -0.3443
 5295TIP3    H137376   1.645   0.274   5.355 -1.0339  1.3344 -1.3524
 5295TIP3    H237377   1.615   0.131   5.312 -0.1094 -0.0608  2.2892
 5296TIP3   OH237378   6.050   4.310  12.380 -0.1258  0.3938  0.8177
 5296TIP3    H137379   6.061   4.368  12.456 -0.6833 -0.0884  1.2743
 5296TIP3    H237380   5.975   4.254  12.403 -0.9714  0.9219 -0.5174
 5297TIP3   OH237381   4.979   2.881   0.689  0.4868  0.2553  0.3254
 5297TIP3    H137382   5.037   2.931   0.745  1.6480  0.2199 -0.8046
 5297TIP3    H237383   4.974   2.932   0.608 -0.9389  0.1740  0.3409
 5298TIP3   OH237384   4.967   6.301  13.027  0.1173 -0.3988  0.1142
 5298TIP3    H137385   4.899   6.304  13.094  0.4213 -1.1846  0.4670
 5298TIP3    H237386   4.934   6.358  12.957 -0.6649 -0.3753  0.4912
 5299TIP3   OH237387   2.217   6.024  15.634 -0.0487 -0.6171  0.4802
 5299TIP3    H137388   2.262   5.979  15.563 -0.9331  0.9841 -1.2000
 5299TIP3    H237389   2.140   5.970  15.651 -0.2598 -0.6041 -0.3751
 5300TIP3   OH237390   0.240   2.689   6.264 -0.6864  0.2014  0.1617
 5300TIP3    H137391   0.286   2.606   6.275  1.7490  1.2625 -1.2611
 5300TIP3    H237392   0.162   2.667   6.213  0.2872 -1.1250 -0.8279
 5301TIP3   OH237393   1.216   1.448   1.329  0.5789  0.0320 -0.0376
 5301TIP3    H137394   1.173   1.462   1.245 -1.2790 -1.5694  0.5656
 5301TIP3    H237395   1.293   1.395   1.308 -0.4160 -1.2202 -0.6781
 5302TIP3   OH237396   1.559   5.796   3.033 -0.1100 -0.4377  0.6257
 5302TIP3    H137397   1.470   5.779   3.064 -0.7610 -0.0490 -0.9334
 5302TIP3    H237398   1.607   5.716   3.053 -0.6581 -0.4790  1.9213
 5303TIP3   OH237399   4.236   6.050   1.970 -0.1890 -0.2183  0.2510
 5303TIP3    H137400   4.235   5.975   1.910  1.0830 -0.1433  0.1255
 5303TIP3    H237401   4.327   6.077   1.974 -0.2550 -0.1149  2.1101
 5304TIP3   OH237402   5.175   0.175  12.336 -0.5495 -0.4083 -0.2058
 5304TIP3    H137403   5.137   0.175  12.423 -0.1901 -0.1847 -0.0444
 5304TIP3    H237404   5.190   0.268  12.316  1.8292 -0.5425  0.6070
 5305TIP3   OH237405   4.392   2.859  15.252  0.6837  0.5467  0.2710
 5305TIP3    H137406   4.473   2.871  15.203  0.8091 -1.3276 -0.0500
 5305TIP3    H237407   4.323   2.857  15.185  0.4399  1.4568  0.4843
 5306TIP3   OH237408   5.135   2.018   1.558  0.1962 -0.1325  0.2635
 5306TIP3    H137409   5.195   2.012   1.632  1.7066  0.4833 -0.8582
 5306TIP3    H237410   5.091   1.933   1.556  2.1427 -1.2030  0.2249
 5307TIP3   OH237411   3.682   0.868   0.747  0.5019  0.6962  0.2031
 5307TIP3    H137412   3.593   0.902   0.737  0.8402  1.3516 -0.7096
 5307TIP3    H237413   3.680   0.782   0.706  0.1981  0.5526  0.5175
 5308TIP3   OH237414   0.185   1.226   0.919 -0.0166  0.4247 -0.3199
 5308TIP3    H137415   0.126   1.285   0.872  1.8979  1.8233 -1.0825
 5308TIP3    H237416   0.186   1.259   1.009 -0.7242  0.1169 -0.1954
 5309TIP3   OH237417   2.192   0.953   5.643 -0.4482 -0.6391 -0.1583
 5309TIP3    H137418   2.255   0.896   5.688 -0.3013  0.4848  1.1496
 5309TIP3    H237419   2.194   1.034   5.694 -0.0721  0.8328 -2.4071
 5310TIP3   OH237420   4.999   3.554   5.453 -0.4150  0.6093 -0.5766
 5310TIP3    H137421   5.061   3.485   5.479 -2.6455 -1.1474  0.5228
 5310TIP3    H237422   5.030   3.632   5.499  1.6877  0.1693 -1.1261
 5311TIP3   OH237423   5.841   1.236  12.640 -0.4974  0.0295  0.0084
 5311TIP3    H137424   5.780   1.279  12.700  0.1156 -0.3633  0.9275
 5311TIP3    H237425   5.923   1.284  12.651  0.1927 -1.3068  1.0277
 5312TIP3   OH237426   4.588   2.738  16.098  0.0030 -0.1919 -0.6255
 5312TIP3    H137427   4.579   2.644  16.084 -1.7504 -0.1433 -0.1527
 5312TIP3    H237428   4.532   2.778  16.031  0.3617  0.5012 -0.5273
 5313TIP3   OH237429   1.519   3.561   2.246  0.0291 -1.0186  0.4688
 5313TIP3    H137430   1.452   3.519   2.191  0.4322 -2.7973  1.2736
 5313TIP3    H237431   1.472   3.587   2.325 -0.1505 -0.1993  0.1067
 5314TIP3   OH237432   2.037   3.855   2.565  0.0748 -0.0119  0.2725
 5314TIP3    H137433   2.022   3.899   2.482  0.0256  0.0962  0.3378
 5314TIP3    H237434   2.110   3.795   2.549  0.1120  0.0618  0.1724
 5315TIP3   OH237435   5.002   6.126  12.407  0.4226  0.1816 -0.1848
 5315TIP3    H137436   5.006   6.216  12.440  0.0203  0.5905 -1.2310
 5315TIP3    H237437   5.049   6.129  12.324  1.6832 -0.9070  0.4480
 5316TIP3   OH237438   0.512   1.733   2.975 -0.2990 -0.4565 -0.2144
 5316TIP3    H137439   0.557   1.816   2.987 -1.5152  0.0934  0.7362
 5316TIP3    H237440   0.503   1.724   2.880  2.7735 -1.1740 -0.5674
 5317TIP3   OH237441   2.239   6.453   0.923  0.3293 -0.0983 -0.5319
 5317TIP3    H137442   2.319   6.408   0.953 -1.0361 -2.8277 -0.6330
 5317TIP3    H237443   2.184   6.458   1.001  0.5876  1.8641 -0.4370
 5318TIP3   OH237444   4.447   6.148  11.464  0.3795  0.4176  0.5683
 5318TIP3    H137445   4.399   6.077  11.422 -1.2871  1.6054  0.3963
 5318TIP3    H237446   4.491   6.192  11.391  1.9303 -0.7519  0.7413
 5319TIP3   OH237447   0.817   4.094   6.455  0.1105 -1.0041  0.1210
 5319TIP3    H137448   0.825   4.187   6.477  0.9613 -0.5688 -1.7492
 5319TIP3    H237449   0.724   4.075   6.462 -0.0323 -0.0863  0.8325
 5320TIP3   OH237450   2.585   2.254   0.155  0.2944 -0.6191 -0.2759
 5320TIP3    H137451   2.541   2.179   0.195 -1.2801  1.3588  2.0026
 5320TIP3    H237452   2.540   2.267   0.071 -0.3539 -1.3844 -0.0578
 5321TIP3   OH237453   4.022   1.084  12.729  0.5974 -0.4146  0.2463
 5321TIP3    H137454   3.955   1.076  12.796 -0.8233 -1.3920 -1.2182
 5321TIP3    H237455   4.096   1.032  12.762  0.0154 -0.6773  1.1580
 5322TIP3   OH237456   4.972   2.005   0.742  0.3504 -0.6912 -0.5893
 5322TIP3    H137457   4.943   1.953   0.817 -1.5366  1.1385  0.0320
 5322TIP3    H237458   5.055   1.965   0.716  0.1222 -2.5462  1.2666
 5323TIP3   OH237459   0.654   3.072   5.093  0.1467 -0.2182  0.1281
 5323TIP3    H137460   0.680   3.019   5.017  2.3103  0.8795  0.0185
 5323TIP3    H237461   0.595   3.138   5.057  2.2705  1.2034 -1.0152
 5324TIP3   OH237462   5.045   5.541   2.309 -0.1094  0.3273 -0.1339
 5324TIP3    H137463   5.046   5.576   2.220 -0.5388 -0.0641 -0.2969
 5324TIP3    H237464   5.138   5.529   2.331 -0.0120 -0.3704 -0.8501
 5325TIP3   OH237465   4.520   6.473   3.485 -0.3977  0.1982  0.4108
 5325TIP3    H137466   4.483   6.550   3.527 -0.8784 -0.3210  0.9519
 5325TIP3    H237467   4.590   6.445   3.544  0.0186  0.4257  0.0335
 5326TIP3   OH237468   2.036   3.165   3.695 -0.2527 -0.0362  0.2941
 5326TIP3    H137469   1.997   3.078   3.687  2.2948 -1.4818  2.0555
 5326TIP3    H237470   1.962   3.225   3.689 -2.1912 -2.3210 -0.4298
 5327TIP3   OH237471   0.871   5.006  17.024 -0.0858 -0.1753 -0.4241
 5327TIP3    H137472   0.804   5.032  17.086 -0.5350  0.0460 -0.9933
 5327TIP3    H237473   0.954   5.028  17.067 -0.4179  1.5002 -0.5756
 5328TIP3   OH237474   5.546   0.961   1.436 -0.3914 -0.2542 -0.0800
 5328TIP3    H137475   5.482   0.896   1.404 -1.0875  1.4082 -2.3175
 5328TIP3    H237476   5.494   1.019   1.491 -0.2560 -0.3495  0.1461
 5329TIP3   OH237477   5.136   3.744  15.055 -0.5728  0.4781 -0.4486
 5329TIP3    H137478   5.138   3.664  15.002  1.0034 -1.5714  2.4018
 5329TIP3    H237479   5.222   3.784  15.040 -1.5073  1.9931 -2.1874
 5330TIP3   OH237480   6.016   0.627   3.460  0.0661  0.0555  0.1824
 5330TIP3    H137481   6.056   0.628   3.373 -2.0728 -0.3918 -0.8607
 5330TIP3    H237482   6.077   0.676   3.514 -0.0905  3.3440 -2.3033
 5331TIP3   OH237483   6.434   5.137  16.622 -0.1726 -0.5038 -0.4763
 5331TIP3    H137484   6.467   5.227  16.621 -1.1258 -0.0841  1.5206
 5331TIP3    H237485   6.512   5.082  16.624  0.4339  0.3694  0.6611
 5332TIP3   OH237486   5.254   3.675  12.517 -0.2723 -0.8007 -0.1998
 5332TIP3    H137487   5.328   3.736  12.512  0.3136 -1.4635  0.0586
 5332TIP3    H237488   5.177   3.728  12.499 -0.0518  0.5364  2.4486
 5333TIP3   OH237489   4.997   4.743  14.493  0.1688 -0.0987  0.6755
 5333TIP3    H137490   5.091   4.761  14.494  0.0068  0.7692  0.3888
 5333TIP3    H237491   4.961   4.802  14.427 -0.5725 -0.4801  0.7226
 5334TIP3   OH237492   4.328   2.719   5.878 -0.2554  0.0009 -0.0741
 5334TIP3    H137493   4.331   2.792   5.816  0.3326 -1.0068 -1.2879
 5334TIP3    H237494   4.359   2.756   5.960  0.7236  0.9671 -0.8397
 5335TIP3   OH237495   4.531   2.980   5.976  0.5030  0.4035  0.2928
 5335TIP3    H137496   4.440   2.993   6.004  0.6329 -1.1109  1.5863
 5335TIP3    H237497   4.579   3.053   6.017 -0.1173  1.2655 -0.4778
 5336TIP3   OH237498   5.375   1.283   2.333 -0.4258 -0.8938 -0.0761
 5336TIP3    H137499   5.409   1.307   2.419  0.2940  1.5796 -0.9586
 5336TIP3    H237500   5.453   1.264   2.281 -0.4299  1.8952 -1.2926
 5337TIP3   OH237501   4.028   6.263   4.249  0.3514  0.1721 -0.2683
 5337TIP3    H137502   4.102   6.303   4.204 -0.3074  0.5712 -1.0081
 5337TIP3    H237503   3.989   6.334   4.300  0.2449  0.0496 -0.1781
 5338TIP3   OH237504   6.284   0.675   3.916 -0.2481  0.3737 -0.0320
 5338TIP3    H137505   6.323   0.588   3.906 -0.2237  0.4000 -0.1767
 5338TIP3    H237506   6.298   0.716   3.831 -2.4147 -0.3505 -0.7940
 5339TIP3   OH237507   2.270   6.728  14.922  0.4558  0.3970  0.3684
 5339TIP3    H137508   2.194   6.671  14.934 -0.3679  0.9055 -1.8465
 5339TIP3    H237509   2.330   6.704  14.992  0.1007 -3.0865 -0.3359
 5340TIP3   OH237510   3.019   3.312  13.501 -0.4182 -0.4108  0.6102
 5340TIP3    H137511   3.085   3.375  13.529  0.2610 -1.1664  0.7746
 5340TIP3    H237512   3.070   3.239  13.464 -1.2114 -0.4744 -0.3966
 5341TIP3   OH237513   4.355   3.674   0.665 -0.1236  0.6845  0.4523
 5341TIP3    H137514   4.420   3.685   0.735 -0.7284 -0.6159  1.2574
 5341TIP3    H237515   4.275   3.712   0.701 -0.6715 -0.7818  0.8684
 5342TIP3   OH237516   5.190   5.122  11.954 -0.1441 -0.0406 -0.9890
 5342TIP3    H137517   5.120   5.100  11.893 -1.5445  0.6483  0.2853
 5342TIP3    H237518   5.221   5.208  11.926 -1.0599  0.4557 -0.5413
 5343TIP3   OH237519   5.456   3.477   5.877 -0.3138  0.0340 -0.3721
 5343TIP3    H137520   5.426   3.567   5.867  0.6232  0.1794 -2.3231
 5343TIP3    H237521   5.540   3.485   5.921 -1.2996 -0.1120  1.6577
 5344TIP3   OH237522   6.040   4.919  16.810 -0.2652  0.5451 -0.0810
 5344TIP3    H137523   6.114   4.921  16.749  0.8152  0.8921  1.2039
 5344TIP3    H237524   6.028   4.827  16.832 -1.0259  0.3525 -1.2171
 5345TIP3   OH237525   3.089   0.092  13.173 -0.2238  0.3165  0.0970
 5345TIP3    H137526   3.021   0.042  13.219 -0.4233  0.3115 -0.1999
 5345TIP3    H237527   3.125   0.031  13.109 -0.5684  0.5952 -0.3657
 5346TIP3   OH237528   3.704   5.204   3.187 -0.4706 -0.4462  0.6556
 5346TIP3    H137529   3.685   5.226   3.096  0.2501  0.9455  0.8257
 5346TIP3    H237530   3.721   5.109   3.185  0.8554 -0.2216 -0.9057
 5347TIP3   OH237531   1.731   2.114   1.824  0.4181  0.0227 -0.0985
 5347TIP3    H137532   1.803   2.162   1.864  1.8054 -1.0811 -1.1908
 5347TIP3    H237533   1.720   2.153   1.738 -0.1019 -0.0240 -0.0611
 5348TIP3   OH237534   2.037   6.203  14.931  0.4902 -0.6954  0.1656
 5348TIP3    H137535   2.055   6.273  14.868  1.6914 -2.0013 -1.0269
 5348TIP3    H237536   2.032   6.247  15.015  0.8341  0.8662 -0.5974
 5349TIP3   OH237537   6.034   5.161   2.142  0.0710  0.6222 -0.5225
 5349TIP3    H137538   6.020   5.081   2.092 -1.3773 -0.4192  1.4122
 5349TIP3    H237539   5.990   5.230   2.091 -3.3419 -0.7771  0.2181
 5350TIP3   OH237540   0.824   4.227   0.546 -0.3403 -0.7924 -0.0422
 5350TIP3    H137541   0.802   4.308   0.591  0.1970 -0.0522 -1.0578
 5350TIP3    H237542   0.901   4.193   0.592  0.6975  0.3737 -0.8304
 5351TIP3   OH237543   0.383   1.383  10.892  0.1851 -0.1321 -0.0776
 5351TIP3    H137544   0.344   1.332  10.822 -1.4819  0.5117  0.3460
 5351TIP3    H237545   0.310   1.428  10.933  1.3971  1.2310  0.6766
 5352TIP3   OH237546   2.233   0.646  17.170  0.5607  0.5386 -0.1833
 5352TIP3    H137547   2.182   0.685  17.099 -0.5997  0.3505  0.5152
 5352TIP3    H237548   2.167   0.610  17.230  1.5367 -0.3317  0.4119
 5353TIP3   OH237549   3.953   5.519  13.639  0.2824  0.3114  0.7624
 5353TIP3    H137550   3.902   5.451  13.682 -0.5775  0.2277 -0.3674
 5353TIP3    H237551   3.940   5.504  13.545 -0.0591  2.1218  0.4926
 5354TIP3   OH237552   0.221   2.359  14.817 -0.1764  0.1291  0.6676
 5354TIP3    H137553   0.313   2.384  14.832 -0.8213  2.5667  1.0422
 5354TIP3    H237554   0.206   2.378  14.724 -1.0424  2.7496  1.2514
 5355TIP3   OH237555   5.013   3.837  14.546  0.0993  0.7516 -0.2385
 5355TIP3    H137556   4.992   3.793  14.628 -1.7305 -0.1758 -1.1472
 5355TIP3    H237557   5.109   3.840  14.544  0.1867  0.0214  1.5094
 5356TIP3   OH237558   4.710   4.742  13.788 -0.0269 -0.0924  0.1628
 5356TIP3    H137559   4.622   4.710  13.768 -0.1463  1.1950 -1.5885
 5356TIP3    H237560   4.700   4.787  13.872 -1.5938  1.8627 -0.9735
 5357TIP3   OH237561   2.949   6.545  17.125 -0.0896 -0.2235  0.0806
 5357TIP3    H137562   2.902   6.619  17.164  0.5781 -0.6050  1.7171
 5357TIP3    H237563   2.899   6.468  17.154 -2.5728 -0.4690 -4.0288
 5358TIP3   OH237564   4.013   2.565  13.216  0.0174 -0.2570 -0.0681
 5358TIP3    H137565   3.944   2.500  13.226 -0.8686  0.7727  0.8317
 5358TIP3    H237566   4.013   2.612  13.299  1.1736  0.3684 -0.4094
 5359TIP3   OH237567   4.457   3.935  10.681 -0.2859  0.0186 -0.4573
 5359TIP3    H137568   4.452   3.840  10.687 -0.7584  0.0941  0.5820
 5359TIP3    H237569   4.365   3.964  10.682 -0.1386  0.5019 -0.5093
 5360TIP3   OH237570   0.735   6.227   4.410 -0.0922  0.1449  0.2913
 5360TIP3    H137571   0.650   6.271   4.413 -0.0910  0.1477  0.2826
 5360TIP3    H237572   0.718   6.145   4.363 -0.5355 -0.8281  2.0784
 5361TIP3   OH237573   2.820   4.230  14.437  0.1810 -0.5563 -0.5173
 5361TIP3    H137574   2.886   4.231  14.505  0.4888  1.2600 -0.8029
 5361TIP3    H237575   2.746   4.278  14.474 -0.4286 -1.2805 -0.7530
 5362TIP3   OH237576   5.118   5.895  11.211  0.2962 -0.0581  0.3140
 5362TIP3    H137577   5.106   5.894  11.116  1.5401 -0.0197  0.1412
 5362TIP3    H237578   5.194   5.950  11.226 -0.5669  0.8881  1.4448
 5363TIP3   OH237579   3.547   1.001  15.941  0.0528  0.0517  0.1568
 5363TIP3    H137580   3.556   1.093  15.918  1.0091 -0.2565 -0.7198
 5363TIP3    H237581   3.556   1.000  16.037  0.3032  0.8314  0.1506
 5364TIP3   OH237582   6.295   6.697  12.886 -0.3667  0.1562 -0.2965
 5364TIP3    H137583   6.317   6.668  12.797 -2.9810  0.3055 -1.0622
 5364TIP3    H237584   6.236   6.771  12.873 -1.2211 -0.1647  1.5546
 5365TIP3   OH237585   1.658   5.953   4.401 -0.4218  0.5326  0.1555
 5365TIP3    H137586   1.663   5.860   4.426 -0.2411  0.2545 -0.8664
 5365TIP3    H237587   1.587   5.989   4.454 -0.5432 -0.2067  0.5041
 5366TIP3   OH237588   1.112   0.374  15.172  0.1789  0.1359 -0.7120
 5366TIP3    H137589   1.041   0.424  15.131 -0.2353 -0.4757 -0.7552
 5366TIP3    H237590   1.085   0.366  15.264  1.0510  1.4111 -0.3133
 5367TIP3   OH237591   1.055   5.142  15.973 -0.7270 -0.0402 -0.5211
 5367TIP3    H137592   1.044   5.055  16.013  0.2146  1.0082  2.2308
 5367TIP3    H237593   1.144   5.141  15.939 -0.2480  0.2070  0.6524
 5368TIP3   OH237594   5.263   4.969  13.133 -0.1264 -0.3834 -0.0232
 5368TIP3    H137595   5.256   5.055  13.175 -1.1228 -0.2268 -0.4774
 5368TIP3    H237596   5.191   4.968  13.071  0.4407 -1.1955 -0.6761
 5369TIP3   OH237597   5.185   0.494   0.224 -0.6527 -0.1655  0.0422
 5369TIP3    H137598   5.191   0.493   0.319  0.8742 -0.6763 -0.0410
 5369TIP3    H237599   5.263   0.448   0.194  0.0010  1.8229 -1.5051
 5370TIP3   OH237600   0.853   0.816  10.557 -0.5807  0.2865  0.5168
 5370TIP3    H137601   0.854   0.766  10.639  0.8028  0.9947  0.9533
 5370TIP3    H237602   0.937   0.860  10.554 -0.4125 -0.0666 -1.5417
 5371TIP3   OH237603   0.354   6.077  15.820  0.2867 -0.1551 -0.1014
 5371TIP3    H137604   0.312   6.163  15.827 -1.0248 -0.4637 -2.8772
 5371TIP3    H237605   0.297   6.027  15.762  0.7232 -3.1524  1.8444
 5372TIP3   OH237606   2.949   1.155   3.740  0.5264  0.0022 -0.5209
 5372TIP3    H137607   2.934   1.189   3.651 -0.5473 -1.7510 -1.0467
 5372TIP3    H237608   2.876   1.189   3.791  0.2460 -0.3509 -0.6927
 5373TIP3   OH237609   0.387   2.893   3.396 -0.4942  0.0340  0.6097
 5373TIP3    H137610   0.352   2.981   3.412  0.5854  0.8641 -1.2772
 5373TIP3    H237611   0.479   2.898   3.421 -0.7413 -0.9856  1.8039
 5374TIP3   OH237612   5.861   1.069   3.128  0.1981 -0.0806 -0.0568
 5374TIP3    H137613   5.797   1.003   3.104 -0.3587  0.4419 -0.0181
 5374TIP3    H237614   5.833   1.149   3.083  1.1444  0.0160 -0.5068
 5375TIP3   OH237615   3.953   6.342  15.482  0.0997  0.3193 -0.7744
 5375TIP3    H137616   3.966   6.272  15.418  1.2699  1.0045 -1.3030
 5375TIP3    H237617   3.928   6.296  15.562  0.7958 -0.7113 -1.1302
 5376TIP3   OH237618   1.530   1.109   0.340  0.3039  0.0479  0.2511
 5376TIP3    H137619   1.554   1.017   0.350  1.0900  0.1707 -0.4306
 5376TIP3    H237620   1.603   1.148   0.292 -0.8301  0.6450 -1.0382
 5377TIP3   OH237621   2.135   0.099  12.270  0.1861  0.3447  0.0883
 5377TIP3    H137622   2.206   0.064  12.324  0.2065  0.4928  0.1564
 5377TIP3    H237623   2.171   0.178  12.230  0.1571  0.2608 -0.1087
 5378TIP3   OH237624   6.102   3.007  11.669  0.3517  0.1559 -0.2613
 5378TIP3    H137625   6.050   3.016  11.749  1.4686  1.9211  0.3206
 5378TIP3    H237626   6.126   3.096  11.646 -0.5926 -0.2152 -3.0658
 5379TIP3   OH237627   2.196   0.922  16.066  0.1648 -0.8642  0.3324
 5379TIP3    H137628   2.278   0.942  16.110  0.1205 -0.2592  0.1397
 5379TIP3    H237629   2.156   1.007  16.049  0.0040 -1.1068 -0.5516
 5380TIP3   OH237630   6.313   2.832  11.770 -0.0996 -0.3785 -0.0552
 5380TIP3    H137631   6.223   2.847  11.740  0.1276  0.5797 -0.2901
 5380TIP3    H237632   6.308   2.750  11.819 -0.9416 -0.7571 -0.7373
 5381TIP3   OH237633   4.675   1.989   1.349  0.2936  0.2864  0.2969
 5381TIP3    H137634   4.670   1.977   1.254 -0.2249 -1.6742  0.5326
 5381TIP3    H237635   4.613   2.060   1.367  1.5728  1.7989 -0.9667
 5382TIP3   OH237636   2.636   4.767   3.246  0.3062  0.1402 -0.0794
 5382TIP3    H137637   2.729   4.758   3.226  0.1549  1.5479 -1.6722
 5382TIP3    H237638   2.600   4.818   3.173 -1.9010 -1.0783  0.0449
 5383TIP3   OH237639   3.642   1.024   2.428 -0.0681 -0.4074  0.1104
 5383TIP3    H137640   3.708   1.008   2.360  0.6179 -0.5043  0.7841
 5383TIP3    H237641   3.676   1.097   2.478 -0.3309 -0.6437  0.6436
 5384TIP3   OH237642   1.152   5.109   5.323  0.2504  0.3046  0.7193
 5384TIP3    H137643   1.187   5.199   5.328  0.8055  0.1724 -0.4520
 5384TIP3    H237644   1.067   5.119   5.281  1.3175  0.0756 -1.6109
 5385TIP3   OH237645   6.250   2.118  15.611  0.5111  0.2847  0.6075
 5385TIP3    H137646   6.170   2.096  15.563  0.4964  0.0321  0.7430
 5385TIP3    H237647   6.244   2.212  15.625  0.8737  0.4930 -0.5305
 5386TIP3   OH237648   2.019   2.959   0.829 -0.3867  0.7152  0.3805
 5386TIP3    H137649   1.953   3.027   0.817 -0.5812  0.4541 -0.0578
 5386TIP3    H237650   2.101   3.007   0.840 -0.8040  1.0889  2.1804
 5387TIP3   OH237651   2.849   2.266  15.548 -0.2579 -0.3191  0.0448
 5387TIP3    H137652   2.867   2.235  15.459  1.3822  1.1919 -0.2256
 5387TIP3    H237653   2.765   2.227  15.571 -0.1167 -1.7668 -1.6775
 5388TIP3   OH237654   2.903   5.107  15.411 -0.3660  0.4445 -0.8066
 5388TIP3    H137655   2.983   5.155  15.432 -0.6092  0.0059  1.3154
 5388TIP3    H237656   2.834   5.173  15.413 -0.3346  0.4707 -0.5896
 5389TIP3   OH237657   2.218   6.471   2.116 -0.0881 -0.4480  0.2932
 5389TIP3    H137658   2.179   6.394   2.158 -0.4027 -0.2109  0.4406
 5389TIP3    H237659   2.180   6.545   2.163 -0.3443 -0.1798 -0.3296
 5390TIP3   OH237660   6.374   2.869   0.073  0.4849 -0.1949  0.2717
 5390TIP3    H137661   6.317   2.922   0.018 -0.2785 -1.8797 -0.6479
 5390TIP3    H237662   6.377   2.784   0.029 -0.5694 -1.8065  3.0753
 5391TIP3   OH237663   3.145   0.357   0.707 -0.5097  0.7208 -0.0594
 5391TIP3    H137664   3.227   0.343   0.755 -1.3946 -2.2566  0.8580
 5391TIP3    H237665   3.171   0.362   0.615  0.6426 -2.5466 -0.0427
 5392TIP3   OH237666   3.005   1.604  14.685  0.6083  0.4086 -0.5131
 5392TIP3    H137667   2.950   1.591  14.607 -0.8240  0.1117  0.5079
 5392TIP3    H237668   2.943   1.621  14.756  1.9216  1.4743  0.4323
 5393TIP3   OH237669   0.044   5.141   1.991  0.1125  0.4383 -0.3715
 5393TIP3    H137670   0.119   5.191   1.959  0.6495  0.3448  0.6963
 5393TIP3    H237671   0.082   5.073   2.046 -0.6898 -0.3491 -0.7681
 5394TIP3   OH237672   4.015   3.077   6.276  0.5672 -0.1366  0.1828
 5394TIP3    H137673   3.930   3.046   6.243  0.8096 -1.0692  0.3880
 5394TIP3    H237674   4.066   3.096   6.198  0.2176  0.2853  0.0565
 5395TIP3   OH237675   6.474   5.796   5.927 -0.1745 -0.1072 -0.3662
 5395TIP3    H137676   6.417   5.820   6.000  0.1701  0.2726 -0.2178
 5395TIP3    H237677   6.418   5.747   5.867 -0.8201  0.7755 -0.5050
 5396TIP3   OH237678   3.633   0.258   1.394 -0.7852  0.5678 -0.3212
 5396TIP3    H137679   3.574   0.264   1.319 -0.5360  1.4501 -0.4607
 5396TIP3    H237680   3.682   0.177   1.380 -0.3938  0.9634 -1.3754
 5397TIP3   OH237681   1.798   4.185  11.320 -0.2223 -0.0210  0.3773
 5397TIP3    H137682   1.765   4.104  11.358  1.9171 -2.0473 -1.7634
 5397TIP3    H237683   1.728   4.215  11.263 -0.8957 -0.5278  0.9126
 5398TIP3   OH237684   2.450   3.145   3.449  0.5173  0.1971  0.5196
 5398TIP3    H137685   2.444   3.226   3.398  1.2534 -0.6206 -0.9235
 5398TIP3    H237686   2.495   3.083   3.392 -1.8661 -1.9245  0.7109
 5399TIP3   OH237687   1.142   0.012   0.109 -0.2090 -0.3022  0.1944
 5399TIP3    H137688   1.186   0.005   0.024 -0.9945 -0.5459 -0.1969
 5399TIP3    H237689   1.178  -0.061   0.161 -1.4370 -1.6055 -0.7198
 5400TIP3   OH237690   2.250   2.667  14.285  0.4420  0.0736 -0.1764
 5400TIP3    H137691   2.241   2.623  14.200  1.0065 -0.0424 -0.1826
 5400TIP3    H237692   2.218   2.756  14.269 -0.6019 -0.2988 -0.1892
 5401TIP3   OH237693   6.035   3.514  14.344  0.1883 -0.3840  0.1825
 5401TIP3    H137694   6.073   3.516  14.432 -0.2067 -1.6499  0.4124
 5401TIP3    H237695   5.940   3.516  14.359  0.1304  0.2912 -0.2627
 5402TIP3   OH237696   0.399   4.937   4.862  0.0469  0.3078  0.0092
 5402TIP3    H137697   0.407   5.022   4.905  0.3042 -0.2916  1.1843
 5402TIP3    H237698   0.305   4.924   4.851  0.0301  1.0191 -0.7542
 5403TIP3   OH237699   5.728   2.176   0.569 -0.2657  0.1087 -0.7357
 5403TIP3    H137700   5.648   2.164   0.518 -0.7025 -2.3812  0.3921
 5403TIP3    H237701   5.798   2.145   0.512 -0.4459 -0.2740 -0.7520
 5404TIP3   OH237702   6.330   4.713   2.349 -0.1199  0.1890 -0.0287
 5404TIP3    H137703   6.405   4.755   2.390  1.9260 -1.2151 -2.0726
 5404TIP3    H237704   6.316   4.632   2.399 -1.8849  1.5021  1.7876
 5405TIP3   OH237705   4.788   1.559  12.640  0.1583  0.3073 -0.2023
 5405TIP3    H137706   4.716   1.544  12.702  0.1734  0.2960 -0.1874
 5405TIP3    H237707   4.745   1.580  12.557  0.1346  1.9039  0.1807
 5406TIP3   OH237708   4.186   0.177   3.295 -0.0526  0.5441 -0.7678
 5406TIP3    H137709   4.113   0.206   3.351 -0.6536  2.4570 -2.4207
 5406TIP3    H237710   4.145   0.120   3.230  0.4657 -0.7713  0.0136
 5407TIP3   OH237711   3.016   3.547  11.288  0.1595 -0.1147 -0.5988
 5407TIP3    H137712   3.106   3.578  11.279 -0.1003  0.2148 -2.3578
 5407TIP3    H237713   2.991   3.518  11.201 -0.6524 -2.4832  0.3370
 5408TIP3   OH237714   5.189   5.923   0.156 -0.2517 -0.4621 -0.2296
 5408TIP3    H137715   5.221   6.002   0.112  0.8775 -2.0193 -2.3517
 5408TIP3    H237716   5.234   5.924   0.241  0.6147  0.5799 -0.6736
 5409TIP3   OH237717   4.527   4.271   3.469  0.4851  0.0902  0.4133
 5409TIP3    H137718   4.556   4.197   3.416 -0.5925 -0.0794  0.0246
 5409TIP3    H237719   4.465   4.317   3.412 -1.3541 -0.5728  1.8048
 5410TIP3   OH237720   6.734   3.824   0.978 -0.4472 -0.8404  0.0244
 5410TIP3    H137721   6.675   3.861   0.912 -0.4981 -1.4250 -0.2640
 5410TIP3    H237722   6.712   3.731   0.981  1.3632 -1.3761 -1.1019
 5411TIP3   OH237723   1.539   5.356  16.398 -0.6408 -0.1456  0.0812
 5411TIP3    H137724   1.568   5.440  16.364  0.3780  0.3081  1.9599
 5411TIP3    H237725   1.443   5.362  16.398 -0.5835  1.1184  0.4046
 5412TIP3   OH237726   2.208   2.020   0.405 -0.0525  0.0364 -0.3619
 5412TIP3    H137727   2.234   2.082   0.337 -2.2716  0.1245 -1.2402
 5412TIP3    H237728   2.171   2.076   0.474 -1.7596 -0.2286 -1.0142
 5413TIP3   OH237729   0.351   1.113  16.634 -0.3188 -0.0379  0.3291
 5413TIP3    H137730   0.335   1.199  16.595 -0.4351  0.5477  1.6194
 5413TIP3    H237731   0.446   1.109  16.645 -0.4460  0.8985  2.2952
 5414TIP3   OH237732   2.972   1.381   2.295  0.1745  0.1224 -0.3861
 5414TIP3    H137733   2.915   1.314   2.258 -0.3102 -0.5759  1.4954
 5414TIP3    H237734   3.038   1.332   2.345  0.6635  1.0033 -0.1362
 5415TIP3   OH237735   6.511   2.530  15.385 -0.1395  0.6410  0.5578
 5415TIP3    H137736   6.445   2.587  15.345 -0.1164  0.3746  0.1379
 5415TIP3    H237737   6.468   2.495  15.463 -1.4239 -1.4891 -1.0098
 5416TIP3   OH237738   1.693   1.838  12.009  0.5408 -0.6162 -0.0390
 5416TIP3    H137739   1.756   1.767  12.000  0.0280 -0.9404 -1.2253
 5416TIP3    H237740   1.608   1.797  11.995  0.2464  0.2429 -0.8953
 5417TIP3   OH237741   4.897   4.804   2.838  0.1272  0.1996  0.0650
 5417TIP3    H137742   4.820   4.794   2.894  0.5829  1.4775  0.9777
 5417TIP3    H237743   4.951   4.727   2.858 -1.8563 -2.0282 -2.3254
 5418TIP3   OH237744   4.092   4.649  14.013 -0.1800  0.9238 -0.0155
 5418TIP3    H137745   4.025   4.717  14.005 -1.5822 -0.5039 -1.2060
 5418TIP3    H237746   4.148   4.678  14.086 -2.9684  1.4710  2.0733
 5419TIP3   OH237747   3.977   6.686  12.126 -0.4256  0.2822  0.4120
 5419TIP3    H137748   4.050   6.732  12.085  0.9494  0.3593  2.7301
 5419TIP3    H237749   3.974   6.601  12.082  2.3099 -0.4455  1.3851
 5420TIP3   OH237750   0.746   5.848  13.873  0.0761 -0.2736  0.0808
 5420TIP3    H137751   0.758   5.775  13.813 -1.6360  0.0575 -0.7123
 5420TIP3    H237752   0.695   5.812  13.945 -1.5623  0.2931 -0.7438
 5421TIP3   OH237753   5.495   6.267  15.736 -0.1437  0.0332  0.0802
 5421TIP3    H137754   5.522   6.182  15.771 -3.4561 -1.6751 -1.0995
 5421TIP3    H237755   5.520   6.263  15.643 -0.9436  0.0330 -0.1402
 5422TIP3   OH237756   4.963   2.751   0.309  0.2106  0.1968  0.0222
 5422TIP3    H137757   5.039   2.804   0.284 -0.6921  1.1506 -0.8239
 5422TIP3    H237758   4.899   2.815   0.341 -0.8136 -0.4051 -0.7683
 5423TIP3   OH237759   1.972   2.648   2.072 -0.2541 -0.0464 -0.4083
 5423TIP3    H137760   1.985   2.696   2.154 -1.8483 -0.4567  0.1305
 5423TIP3    H237761   2.056   2.606   2.055 -0.3238 -1.2940  1.9252
 5424TIP3   OH237762   6.666   4.482   1.864  0.4966  1.1016 -0.4936
 5424TIP3    H137763   6.607   4.480   1.940 -0.2662  0.9028 -1.0705
 5424TIP3    H237764   6.653   4.569   1.826 -0.4915  0.5771 -1.4168
 5425TIP3   OH237765   3.417   6.233   2.665 -0.3209  0.1158 -0.4469
 5425TIP3    H137766   3.332   6.217   2.706  0.8913 -2.4028  1.3401
 5425TIP3    H237767   3.445   6.318   2.700 -0.9745 -0.2574  1.0638
 5426TIP3   OH237768   2.216   3.413   2.176 -0.1231 -0.4629 -0.6484
 5426TIP3    H137769   2.128   3.401   2.142 -0.1376 -0.0495 -0.7603
 5426TIP3    H237770   2.273   3.400   2.100 -0.1423  0.2267 -0.7829
 5427TIP3   OH237771   4.831   4.004  11.191  0.2892 -0.3194 -0.3617
 5427TIP3    H137772   4.902   4.050  11.235  0.2944 -0.6312 -0.0362
 5427TIP3    H237773   4.867   3.979  11.106  0.5026 -0.3054 -0.2752
 5428TIP3   OH237774   4.660   4.320  13.667  0.0372  0.2967  0.1397
 5428TIP3    H137775   4.732   4.382  13.676  1.3118 -1.0687 -0.1654
 5428TIP3    H237776   4.588   4.372  13.632  1.0541  1.6009 -0.1054
 5429TIP3   OH237777   6.602   5.564  17.155  0.4032  0.6258  0.3941
 5429TIP3    H137778   6.575   5.521  17.074 -1.5372  1.2967  0.6250
 5429TIP3    H237779   6.673   5.511  17.188 -1.4254 -2.0396  0.3295
 5430TIP3   OH237780   0.226   1.743   0.355 -0.3311 -0.4748 -0.1108
 5430TIP3    H137781   0.283   1.667   0.359  0.0357 -0.1749  0.8494
 5430TIP3    H237782   0.171   1.735   0.433 -0.0727  0.3925  0.1766
 5431TIP3   OH237783   4.148   2.221  11.646  0.3090  0.0393 -0.0633
 5431TIP3    H137784   4.203   2.213  11.568  1.4575  1.4453  0.5580
 5431TIP3    H237785   4.123   2.313  11.649 -2.2166 -0.5550 -0.3636
 5432TIP3   OH237786   5.179   1.164   0.208  0.7335  0.0775 -0.0089
 5432TIP3    H137787   5.170   1.069   0.200  0.4750  0.1800 -1.1471
 5432TIP3    H237788   5.114   1.189   0.273 -0.2707 -0.3679 -0.8075
 5433TIP3   OH237789   4.670   2.668  15.328 -0.1763 -0.8218 -0.0063
 5433TIP3    H137790   4.578   2.667  15.356 -0.3708  0.3380 -0.5315
 5433TIP3    H237791   4.702   2.580  15.345 -1.2365 -1.0811  0.7052
 5434TIP3   OH237792   1.443   0.319  13.153 -0.3284 -0.2235 -0.5662
 5434TIP3    H137793   1.393   0.343  13.075 -1.2630  0.5332  0.2437
 5434TIP3    H237794   1.401   0.367  13.225  1.6619  0.5714  0.1284
 5435TIP3   OH237795   4.240   6.554   0.485 -0.1318 -0.2327 -0.5640
 5435TIP3    H137796   4.185   6.605   0.545 -0.9276 -1.3466 -0.3107
 5435TIP3    H237797   4.229   6.597   0.400 -0.7330  0.0474 -0.3499
 5436TIP3   OH237798   2.667   1.965  14.619  0.2839 -0.4451  0.4121
 5436TIP3    H137799   2.670   1.959  14.523 -0.1385 -1.0103  0.4317
 5436TIP3    H237800   2.758   1.969  14.646  0.3984  1.4918 -0.1230
 5437TIP3   OH237801   4.021   1.333  15.233 -0.6182  0.9463  0.1457
 5437TIP3    H137802   4.041   1.420  15.200  0.0826  0.1722 -1.5420
 5437TIP3    H237803   3.925   1.327  15.229 -0.5834  1.0712 -1.2797
 5438TIP3   OH237804   2.540   6.000  11.031 -0.4711 -0.0382 -0.0512
 5438TIP3    H137805   2.534   5.927  11.094 -0.3618  1.1597  1.3995
 5438TIP3    H237806   2.528   5.958  10.946 -1.4933 -1.6166  0.8003
 5439TIP3   OH237807   5.280   2.421  14.991  0.4657 -0.1349 -0.3885
 5439TIP3    H137808   5.325   2.390  14.913  0.7144  0.2524 -0.4018
 5439TIP3    H237809   5.294   2.516  14.991  0.7106 -0.1677  0.2773
 5440TIP3   OH237810   2.768   6.055   3.007  0.3876 -0.9190  0.4461
 5440TIP3    H137811   2.772   6.150   3.008 -1.8818 -0.7700  0.7569
 5440TIP3    H237812   2.795   6.030   2.918  3.1602 -0.1932  1.0114
 5441TIP3   OH237813   1.616   6.303  11.251  0.0057 -0.2650 -0.1481
 5441TIP3    H137814   1.627   6.251  11.171  1.5508 -0.0602 -0.0961
 5441TIP3    H237815   1.605   6.238  11.320  0.3659 -0.4866 -0.2948
 5442TIP3   OH237816   2.442   4.505  14.071 -0.1099  0.3951 -0.1120
 5442TIP3    H137817   2.370   4.554  14.032 -0.9089 -0.0021  0.8142
 5442TIP3    H237818   2.488   4.466  13.996 -0.2514  1.4560 -0.7724
 5443TIP3   OH237819   4.685   1.029   5.533  0.7221 -0.1305 -0.7403
 5443TIP3    H137820   4.594   1.039   5.561  1.4030  1.2241  1.2537
 5443TIP3    H237821   4.681   1.028   5.438 -1.2180  2.4872 -0.8126
 5444TIP3   OH237822   6.667   3.474  12.584 -0.2487 -0.1370 -0.7465
 5444TIP3    H137823   6.742   3.416  12.571 -1.4913 -2.0273  0.0671
 5444TIP3    H237824   6.638   3.458  12.674 -1.4753  0.7371 -0.9438
 5445TIP3   OH237825   1.216   6.401   3.627  0.0804 -0.2853 -0.3050
 5445TIP3    H137826   1.218   6.496   3.630 -1.6928 -0.1904 -0.6513
 5445TIP3    H237827   1.275   6.378   3.555  1.4408  0.4465  0.5334
 5446TIP3   OH237828   5.764   5.399   2.103  0.5744 -0.1103 -0.7604
 5446TIP3    H137829   5.750   5.445   2.186 -1.8510  0.6547 -1.4966
 5446TIP3    H237830   5.838   5.444   2.063  0.0292  1.3566 -0.2160
 5447TIP3   OH237831   6.397   0.033   6.064  0.4571  0.7968  0.1877
 5447TIP3    H137832   6.480   0.074   6.089  1.5721 -1.0891 -0.2185
 5447TIP3    H237833   6.376  -0.025   6.138  0.1331  0.3735 -0.2331
 5448TIP3   OH237834   4.711   4.770  16.327 -0.3445  0.2798  0.2979
 5448TIP3    H137835   4.655   4.803  16.397 -0.1084  0.8681  0.2092
 5448TIP3    H237836   4.782   4.833  16.321  0.5503 -0.6620  0.6774
 5449TIP3   OH237837   3.541   1.701   2.184 -0.4612  0.5295 -0.0676
 5449TIP3    H137838   3.500   1.785   2.204 -0.9750  0.2293  0.1471
 5449TIP3    H237839   3.487   1.664   2.114 -3.0634 -1.6851  2.8412
 5450TIP3   OH237840   3.387   2.611  12.033  0.3391  0.0594  0.0602
 5450TIP3    H137841   3.470   2.564  12.027  1.0539  1.4148 -3.8904
 5450TIP3    H237842   3.412   2.701  12.054 -0.3970  0.0256  1.1634
 5451TIP3   OH237843   3.267   3.737  13.094  0.3724  0.7027  0.6064
 5451TIP3    H137844   3.306   3.824  13.104  0.3638  1.0155 -1.5851
 5451TIP3    H237845   3.236   3.735  13.004 -2.5887 -0.4084  1.5421
 5452TIP3   OH237846   3.503   1.977   3.348 -0.2891 -0.3269 -0.2731
 5452TIP3    H137847   3.556   1.901   3.376 -0.3024 -0.1225  0.3222
 5452TIP3    H237848   3.416   1.940   3.334 -0.3865 -0.3653  0.3761
 5453TIP3   OH237849   6.492   4.152  17.165 -0.1301  0.2258  0.0256
 5453TIP3    H137850   6.562   4.111  17.115 -0.0399 -0.2849  0.5647
 5453TIP3    H237851   6.537   4.207  17.229 -0.2129 -0.1393  0.4028
 5454TIP3   OH237852   0.923   4.123  17.014  0.8438 -0.1859 -0.2606
 5454TIP3    H137853   0.840   4.079  17.034  0.7810 -0.1450 -0.4336
 5454TIP3    H237854   0.966   4.066  16.951  0.7384  0.0261 -0.5268
 5455TIP3   OH237855   4.342   2.410   4.324 -0.4699 -0.1897  0.5743
 5455TIP3    H137856   4.338   2.455   4.409  1.4246  1.0898  0.0448
 5455TIP3    H237857   4.266   2.442   4.276 -0.6444  0.3555  1.1969
 5456TIP3   OH237858   1.704   0.536  15.551  0.4044  0.8422 -0.4804
 5456TIP3    H137859   1.690   0.559  15.459  0.9196 -0.4878 -0.9115
 5456TIP3    H237860   1.749   0.452  15.549 -1.2898 -0.1692  1.0185
 5457TIP3   OH237861   0.310   5.992   4.419  0.4300  0.5387 -0.2420
 5457TIP3    H137862   0.309   5.951   4.333  0.2076 -1.2968  0.5821
 5457TIP3    H237863   0.227   6.039   4.425  0.5488  0.8671 -1.1059
 5458TIP3   OH237864   1.975   5.000  16.145 -0.2854 -0.2242  0.1150
 5458TIP3    H137865   1.920   4.988  16.067  0.0288 -1.2850  0.0377
 5458TIP3    H237866   1.966   4.918  16.193  0.9598 -0.2914  0.2671
 5459TIP3   OH237867   0.338   3.600  14.321 -0.0676  0.3432  0.0640
 5459TIP3    H137868   0.424   3.643  14.309 -0.9328  2.2390  0.2389
 5459TIP3    H237869   0.314   3.619  14.411 -0.9612  0.4219 -0.1797
 5460TIP3   OH237870   2.668   1.178  15.053 -0.3077  0.2723 -0.4375
 5460TIP3    H137871   2.720   1.245  15.097  0.9735 -1.5289  0.9925
 5460TIP3    H237872   2.610   1.144  15.122 -1.7037  0.6059 -1.4033
 5461TIP3   OH237873   5.328   3.471   1.731 -0.6104  0.4734 -0.3166
 5461TIP3    H137874   5.358   3.383   1.753  2.6286  1.6771  0.6329
 5461TIP3    H237875   5.371   3.491   1.647 -0.7914  1.3577 -0.2142
 5462TIP3   OH237876   0.162   5.857   1.741  0.2554  0.1874  0.1763
 5462TIP3    H137877   0.124   5.811   1.666  0.3224 -0.3304  0.4596
 5462TIP3    H237878   0.088   5.907   1.778  0.0090 -0.2729  0.3099
 5463TIP3   OH237879   5.772   3.411  12.449 -0.0079  0.1709  0.5766
 5463TIP3    H137880   5.838   3.343  12.461 -0.2153 -0.0258  0.6176
 5463TIP3    H237881   5.806   3.487  12.496  0.7430  0.4434 -0.3594
 5464TIP3   OH237882   4.978   0.370  12.152  0.2011  0.5359 -0.6682
 5464TIP3    H137883   5.045   0.356  12.086  1.1141  1.3408  0.0649
 5464TIP3    H237884   4.986   0.462  12.176  0.2141  0.1660  0.8870
 5465TIP3   OH237885   1.812   3.736  12.886 -0.0678 -0.2307 -0.0141
 5465TIP3    H137886   1.888   3.768  12.837  0.4177 -1.1129  0.1395
 5465TIP3    H237887   1.850   3.695  12.964 -0.6922 -0.7077  0.0472
 5466TIP3   OH237888   5.889   1.423   2.272 -0.3643 -0.4597  0.2157
 5466TIP3    H137889   5.908   1.371   2.194  0.6170 -0.4104  0.4133
 5466TIP3    H237890   5.974   1.438   2.313 -0.5132  1.9317 -0.2219
 5467TIP3   OH237891   0.570   6.746   0.467  0.4060 -0.0400  0.2679
 5467TIP3    H137892   0.514   6.784   0.399 -0.6748 -1.9249  0.0213
 5467TIP3    H237893   0.637   6.698   0.419  1.9047  1.6700  0.5713
 5468TIP3   OH237894   6.478   4.516  13.445  0.1899  0.3438 -0.2897
 5468TIP3    H137895   6.515   4.427  13.444 -0.0851  0.2296 -0.5888
 5468TIP3    H237896   6.391   4.506  13.407 -0.3500  0.5311  0.8819
 5469TIP3   OH237897   0.188   3.413  13.402 -0.6289 -0.3716  0.3606
 5469TIP3    H137898   0.248   3.476  13.443  0.7163 -0.9406 -0.6586
 5469TIP3    H237899   0.245   3.357  13.349 -2.2004 -0.1939 -1.6225
 5470TIP3   OH237900   0.463   2.215   4.083 -0.0182  0.0611 -0.0419
 5470TIP3    H137901   0.372   2.186   4.081 -0.0523  0.1977 -1.0535
 5470TIP3    H237902   0.460   2.303   4.121 -0.1894 -0.2935  0.7934
 5471TIP3   OH237903   2.139   2.643   4.211 -0.1194  0.7046 -0.0007
 5471TIP3    H137904   2.111   2.567   4.262  1.1588 -0.8311 -1.4413
 5471TIP3    H237905   2.234   2.647   4.224  0.0707  0.9684 -1.3120
 5472TIP3   OH237906   3.491   3.588  14.265 -0.9801  0.0297  0.0592
 5472TIP3    H137907   3.579   3.623  14.247 -0.9506  0.6633  1.2758
 5472TIP3    H237908   3.464   3.634  14.345 -1.8611 -1.1700  0.4690
 5473TIP3   OH237909   2.649   1.102   1.564  0.3317 -0.3490  0.3348
 5473TIP3    H137910   2.677   1.192   1.548  0.4464 -0.3582  0.4828
 5473TIP3    H237911   2.670   1.086   1.656 -1.0438 -0.0320  0.7327
 5474TIP3   OH237912   0.525   2.203   2.132  0.4145  0.3551  0.6674
 5474TIP3    H137913   0.467   2.139   2.172  0.0780  1.0545  1.3058
 5474TIP3    H237914   0.467   2.267   2.092  0.7298 -0.3417 -1.0338
 5475TIP3   OH237915   4.700   4.858  14.048 -0.5897  0.2823 -1.0429
 5475TIP3    H137916   4.611   4.893  14.049 -1.2055 -1.1766  0.3846
 5475TIP3    H237917   4.694   4.776  14.096  1.4478 -0.1046 -1.3468
 5476TIP3   OH237918   4.036   4.671   0.368  0.4742  0.4830  0.4851
 5476TIP3    H137919   4.086   4.712   0.298 -0.3404 -0.4850 -0.7068
 5476TIP3    H237920   4.079   4.586   0.380 -0.4496 -0.0785 -0.0871
 5477TIP3   OH237921   4.566   0.584   2.388 -0.3031  0.3872  0.0226
 5477TIP3    H137922   4.559   0.584   2.293 -0.1691  0.8820  0.0091
 5477TIP3    H237923   4.537   0.496   2.414 -2.2032  0.8762 -0.3271
 5478TIP3   OH237924   0.375   1.981  12.316 -0.1319 -0.4892 -0.4755
 5478TIP3    H137925   0.429   2.049  12.356 -1.3407 -0.4022  1.0917
 5478TIP3    H237926   0.312   2.028  12.262 -0.1526 -0.4460 -0.4136
 5479TIP3   OH237927   4.854   2.985   0.186  0.2542  0.5652 -0.5194
 5479TIP3    H137928   4.788   2.941   0.132  0.0056  0.7166 -0.3381
 5479TIP3    H237929   4.935   2.939   0.164 -0.1329 -0.5390  0.2579
 5480TIP3   OH237930   5.600   4.163   4.571  0.0432 -0.1624 -0.4041
 5480TIP3    H137931   5.534   4.170   4.640  0.2985 -0.7613 -0.0967
 5480TIP3    H237932   5.578   4.234   4.510  0.8233  1.4959  1.1348
 5481TIP3   OH237933   6.481   6.778  15.307 -0.8714  0.0590  0.2769
 5481TIP3    H137934   6.541   6.728  15.253 -3.3057 -1.6102 -1.0747
 5481TIP3    H237935   6.528   6.791  15.390  2.0116  0.5428 -1.3109
 5482TIP3   OH237936   4.494   0.698   6.000  0.5651 -0.2403  0.4313
 5482TIP3    H137937   4.412   0.684   5.952 -0.3470 -0.2353  1.9273
 5482TIP3    H237938   4.561   0.698   5.932 -0.7193  0.3473 -0.9165
 5483TIP3   OH237939   6.108   6.192   4.299 -0.7065  0.1187 -0.2788
 5483TIP3    H137940   6.185   6.136   4.311 -1.0526 -0.2451  0.3126
 5483TIP3    H237941   6.098   6.236   4.384 -0.9229  0.4618 -0.4795
 5484TIP3   OH237942   5.926   6.775  14.705  0.0852  0.0962 -0.3634
 5484TIP3    H137943   5.992   6.710  14.684  0.8949  0.6890  0.3008
 5484TIP3    H237944   5.845   6.739  14.670  0.9963  0.0498 -2.5542
 5485TIP3   OH237945   1.919   6.662   2.156  0.3724  0.0518 -0.0122
 5485TIP3    H137946   1.915   6.738   2.214  1.9781  0.0503  0.1510
 5485TIP3    H237947   1.933   6.699   2.069  0.6758 -0.0421 -0.0034
 5486TIP3   OH237948   5.245   5.882   0.434  0.0025 -0.4099  0.2848
 5486TIP3    H137949   5.299   5.812   0.399 -0.2692 -0.3917 -0.1890
 5486TIP3    H237950   5.185   5.839   0.494  0.4854 -0.4410  0.7480
 5487TIP3   OH237951   5.486   0.992  11.019  0.8339  0.3307 -0.4491
 5487TIP3    H137952   5.479   0.911  11.070  0.5274  0.7738  0.2346
 5487TIP3    H237953   5.481   0.963  10.928  2.2231 -0.5616 -0.2727
 5488TIP3   OH237954   5.645   5.684  13.200 -0.1422  0.0728 -0.3903
 5488TIP3    H137955   5.575   5.619  13.214 -1.1932  1.1297 -0.6029
 5488TIP3    H237956   5.609   5.745  13.136  0.1972  1.7511  0.9501
 5489TIP3   OH237957   1.636   5.752   6.533  0.2878 -0.5055  0.3251
 5489TIP3    H137958   1.584   5.673   6.550 -1.9721  0.9079  0.4501
 5489TIP3    H237959   1.589   5.797   6.463  0.5898  1.4690  1.3057
 5490TIP3   OH237960   2.282   2.206  10.978 -0.0297  0.3526 -0.2048
 5490TIP3    H137961   2.188   2.193  10.972 -0.0583  0.5431 -0.1979
 5490TIP3    H237962   2.320   2.139  10.921 -0.1835  0.4583 -0.4346
 5491TIP3   OH237963   3.479   4.180  11.232  0.0390  0.0117 -0.0792
 5491TIP3    H137964   3.553   4.204  11.288  0.8076  2.2565 -1.8897
 5491TIP3    H237965   3.485   4.085  11.224  2.4314  0.0699  0.2737
 5492TIP3   OH237966   3.217   5.643   5.507  0.6378 -0.4590  0.0967
 5492TIP3    H137967   3.169   5.600   5.578 -1.2054  0.3811 -0.5709
 5492TIP3    H237968   3.256   5.571   5.458 -0.9221 -1.3168  0.0221
 5493TIP3   OH237969   5.732   0.311  12.600 -0.3986  0.4840  0.5007
 5493TIP3    H137970   5.665   0.318  12.533 -0.3975 -2.6520  0.0209
 5493TIP3    H237971   5.800   0.373  12.574 -0.8087  0.0032 -1.8971
 5494TIP3   OH237972   0.999   5.420   0.737 -0.0188  0.2382 -0.8535
 5494TIP3    H137973   0.957   5.334   0.742  0.8647 -0.2416 -1.3368
 5494TIP3    H237974   0.927   5.482   0.738 -0.6884 -0.5194 -0.7657
 5495TIP3   OH237975   1.063   5.288   3.497  0.3563  0.3020  0.7003
 5495TIP3    H137976   1.093   5.379   3.501 -1.6600  1.1478 -1.5413
 5495TIP3    H237977   0.969   5.293   3.510 -0.3254 -1.0155 -2.7117
 5496TIP3   OH237978   1.332   2.189  16.633 -0.4791  0.1334  0.9564
 5496TIP3    H137979   1.254   2.141  16.604  0.2074 -1.8581  2.2312
 5496TIP3    H237980   1.400   2.123  16.641  0.5860  1.3572  2.6014
 5497TIP3   OH237981   5.452   4.491  16.831 -0.3826  0.4887  0.1133
 5497TIP3    H137982   5.405   4.572  16.817  0.5356  1.1233  0.5489
 5497TIP3    H237983   5.388   4.422  16.815 -0.9827  1.2729 -0.9875
 5498TIP3   OH237984   3.509   2.969  13.811 -0.0387  0.1435 -0.1742
 5498TIP3    H137985   3.464   3.053  13.802 -1.2025 -0.5175 -0.8364
 5498TIP3    H237986   3.466   2.927  13.886  0.8736  0.3331  0.4643
 5499TIP3   OH237987   1.871   4.712   6.286 -0.2552  0.1956  0.0904
 5499TIP3    H137988   1.778   4.706   6.308 -0.5614 -1.9536 -1.4490
 5499TIP3    H237989   1.904   4.623   6.299  0.9344  0.2948 -1.8708
 5500TIP3   OH237990   4.867   2.475   0.254 -0.1551  0.2147 -0.0481
 5500TIP3    H137991   4.808   2.510   0.188  0.1617  1.0578  0.1114
 5500TIP3    H237992   4.912   2.551   0.290  0.8684 -0.3757 -0.0117
 5501TIP3   OH237993   1.313   0.273  16.464 -0.3939 -0.2602  0.0441
 5501TIP3    H137994   1.287   0.244  16.376  0.1653  1.7141 -0.8167
 5501TIP3    H237995   1.260   0.350  16.481  0.6189  0.3009  0.7638
 5502TIP3   OH237996   6.172   3.356   3.267 -0.5017  0.4094  1.0150
 5502TIP3    H137997   6.144   3.447   3.269 -0.0305  0.5671  0.6500
 5502TIP3    H237998   6.258   3.356   3.309 -0.9098 -0.0181  1.8592
 5503TIP3   OH237999   3.085   3.977   6.146  0.1178 -0.0999 -0.4814
 5503TIP3    H138000   2.992   3.988   6.129 -0.0278  0.4943  0.6622
 5503TIP3    H238001   3.113   4.059   6.185  1.1378 -0.2554 -0.8456
 5504TIP3   OH238002   4.272   2.847   0.971  0.6512 -0.2747  0.8948
 5504TIP3    H138003   4.363   2.856   1.001  0.4896  2.0946  0.8097
 5504TIP3    H238004   4.279   2.822   0.879  1.2521  0.7090  0.6612
 5505TIP3   OH238005   0.955   1.181   0.954  0.1666 -0.4975  0.4025
 5505TIP3    H138006   0.934   1.114   0.889 -1.0047  2.0320 -2.0343
 5505TIP3    H238007   0.880   1.183   1.013 -1.5111  0.9563 -1.6431
 5506TIP3   OH238008   4.380   5.237  16.509 -0.4033  0.0545  0.6574
 5506TIP3    H138009   4.351   5.159  16.463  0.7972 -0.6434  1.0529
 5506TIP3    H238010   4.309   5.300  16.497  0.5226  0.5591 -3.6423
 5507TIP3   OH238011   0.339   1.988  10.274 -0.0027  0.8386  0.4079
 5507TIP3    H138012   0.285   2.023  10.203  0.8358 -1.0536 -1.2717
 5507TIP3    H238013   0.419   2.040  10.272 -0.6775  1.9508  1.1906
 5508TIP3   OH238014   3.009   3.653   1.284 -0.1690  0.2519 -0.4016
 5508TIP3    H138015   2.950   3.609   1.223 -0.6732 -0.7096  0.7481
 5508TIP3    H238016   3.037   3.585   1.345  1.7078  0.8085 -0.5721
 5509TIP3   OH238017   0.669   2.514   1.570 -0.6124 -0.1748  0.0833
 5509TIP3    H138018   0.586   2.551   1.602  0.0687  0.0849  1.6531
 5509TIP3    H238019   0.735   2.546   1.632  0.6426 -0.5118 -1.0438
 5510TIP3   OH238020   0.350   3.698  15.017 -0.0567  0.2320  0.0501
 5510TIP3    H138021   0.286   3.667  15.081  0.8792 -0.4148  0.7040
 5510TIP3    H238022   0.302   3.698  14.934 -0.5930 -1.3580  0.3199
 5511TIP3   OH238023   5.073   2.331   0.695  0.0906 -0.4293  0.0317
 5511TIP3    H138024   5.005   2.318   0.629  0.4675  0.1242 -0.4768
 5511TIP3    H238025   5.105   2.420   0.679  1.2546 -0.8426 -0.0497
 5512TIP3   OH238026   4.177   0.530   0.576 -0.5840 -0.6531 -0.6064
 5512TIP3    H138027   4.270   0.549   0.561 -0.4922  0.1922  0.8824
 5512TIP3    H238028   4.156   0.577   0.656 -2.0381 -1.7320 -0.3303
 5513TIP3   OH238029   6.062   4.052  14.968 -0.0876 -0.7717  0.2783
 5513TIP3    H138030   6.052   4.002  15.049 -1.2377  2.2346  2.1468
 5513TIP3    H238031   6.147   4.095  14.977 -0.0377 -0.7365 -0.3200
 5514TIP3   OH238032   4.313   0.042  15.999  0.2699 -0.1690  0.1792
 5514TIP3    H138033   4.333   0.039  15.905 -0.8816 -2.0792 -0.0696
 5514TIP3    H238034   4.295  -0.049  16.022 -0.8448  0.4487  1.9428
 5515TIP3   OH238035   5.433   1.552  16.723 -0.0224  0.3855  0.6863
 5515TIP3    H138036   5.413   1.642  16.698 -0.8735  0.4362  1.4924
 5515TIP3    H238037   5.423   1.550  16.818 -2.9712 -1.2062  0.4772
 5516TIP3   OH238038   4.551   3.723   1.683  0.0944 -0.6477 -0.2993
 5516TIP3    H138039   4.525   3.641   1.642  1.8055 -1.7938  0.7618
 5516TIP3    H238040   4.637   3.705   1.721  1.7048  2.3052 -2.0727
 5517TIP3   OH238041   2.860   5.360   4.666  0.1594  0.1191  0.0578
 5517TIP3    H138042   2.865   5.357   4.762 -1.4162 -0.1764  0.1714
 5517TIP3    H238043   2.929   5.302   4.636 -0.8639 -1.7732  1.1130
 5518TIP3   OH238044   5.517   2.754  12.874 -0.0056 -0.1019  0.0552
 5518TIP3    H138045   5.515   2.725  12.966  0.2284 -0.4919 -0.0595
 5518TIP3    H238046   5.610   2.764  12.854 -0.0715  0.3346 -0.0327
 5519TIP3   OH238047   5.796   1.262  10.899 -0.6848  0.9221 -0.1708
 5519TIP3    H138048   5.825   1.173  10.883  0.4963  1.5973 -2.0111
 5519TIP3    H238049   5.869   1.304  10.944 -0.1311  1.6553 -1.6823
 5520TIP3   OH238050   6.023   1.040  12.537  0.5570  0.4963  0.0011
 5520TIP3    H138051   6.107   1.075  12.569  0.0526 -0.4335  2.6257
 5520TIP3    H238052   5.957   1.090  12.585 -0.4716  1.3938 -2.2303
 5521TIP3   OH238053   4.586   3.723  13.141 -0.0338  0.6042 -0.2687
 5521TIP3    H138054   4.671   3.767  13.135  0.4779 -0.4390 -1.2132
 5521TIP3    H238055   4.588   3.678  13.226  1.3157 -1.2063 -1.1929
 5522TIP3   OH238056   6.096   4.434   4.655 -0.0908  0.3559 -0.6316
 5522TIP3    H138057   6.012   4.389   4.657  0.5185 -0.8613 -1.3123
 5522TIP3    H238058   6.150   4.386   4.719 -0.1296  1.6215  0.3941
 5523TIP3   OH238059   6.733   5.632  13.147 -0.3540 -0.0409  0.0059
 5523TIP3    H138060   6.693   5.550  13.177  0.2258  0.2073  1.5786
 5523TIP3    H238061   6.816   5.637  13.194 -0.0906  1.1523 -0.5374
 5524TIP3   OH238062   0.416   0.241   0.907  0.4895  0.0627  0.1207
 5524TIP3    H138063   0.414   0.178   0.835 -2.3953 -0.5223  0.5853
 5524TIP3    H238064   0.505   0.277   0.905  0.6658 -0.1973 -3.4453
 5525TIP3   OH238065   6.077   4.187  15.661 -0.3728 -0.4672  0.0015
 5525TIP3    H138066   5.986   4.167  15.682 -0.0533 -0.8168  1.1269
 5525TIP3    H238067   6.099   4.262  15.716 -0.4100  0.5958 -1.3849
 5526TIP3   OH238068   2.413   1.592   3.367 -0.1695 -0.6368 -0.5924
 5526TIP3    H138069   2.398   1.547   3.283  0.1072 -0.3477 -0.7990
 5526TIP3    H238070   2.353   1.667   3.364  1.1269  0.4293 -1.3471
 5527TIP3   OH238071   5.555   3.725  15.664 -0.5632  0.0820  0.0304
 5527TIP3    H138072   5.593   3.657  15.609 -1.4847 -0.4122 -0.0147
 5527TIP3    H238073   5.599   3.805  15.637  0.3104 -0.4439 -0.1349
 5528TIP3   OH238074   0.283   2.583  13.160 -0.0824  0.4193 -0.6286
 5528TIP3    H138075   0.312   2.496  13.187 -0.0343  0.7501  0.4416
 5528TIP3    H238076   0.188   2.577  13.157 -0.0501  0.1148 -1.3730
 5529TIP3   OH238077   0.620   2.821   0.840  0.3608  0.5412  0.1873
 5529TIP3    H138078   0.634   2.747   0.781 -0.1699 -0.0954  0.8381
 5529TIP3    H238079   0.668   2.893   0.799  0.0412  0.1165 -1.0013
 5530TIP3   OH238080   5.901   5.596   2.535  0.2332  0.3161 -0.1481
 5530TIP3    H138081   5.977   5.626   2.486  0.0601 -0.8022 -1.1464
 5530TIP3    H238082   5.932   5.585   2.625  0.9115  1.0665 -0.2854
 5531TIP3   OH238083   6.119   0.591  16.209  0.0875 -0.5972 -0.0108
 5531TIP3    H138084   6.050   0.531  16.180 -0.5441 -0.5244  1.2876
 5531TIP3    H238085   6.148   0.556  16.293  1.8745 -0.7994 -0.6468
 5532TIP3   OH238086   4.911   4.645   3.833 -0.0406 -0.0905  0.6514
 5532TIP3    H138087   4.980   4.687   3.885  0.9660 -0.7581 -0.0997
 5532TIP3    H238088   4.895   4.561   3.877  0.3407 -0.3624  0.2913
 5533TIP3   OH238089   0.795   3.160  14.730  0.1753  0.4725 -0.6697
 5533TIP3    H138090   0.799   3.125  14.641  1.5861  1.9857 -1.2407
 5533TIP3    H238091   0.709   3.202  14.735 -0.1371 -0.0926 -1.1207
 5534TIP3   OH238092   2.450   5.036  12.398  0.5736  0.2905  0.6320
 5534TIP3    H138093   2.381   5.082  12.446  0.2674 -0.0763  0.5473
 5534TIP3    H238094   2.528   5.092  12.408  1.1656 -0.8546  3.5264
 5535TIP3   OH238095   3.908   2.781  13.758  0.5766  0.1213 -0.3057
 5535TIP3    H138096   3.954   2.701  13.781 -1.3304 -0.1866  2.9089
 5535TIP3    H238097   3.850   2.755  13.686  0.6473 -1.1424  0.0704
 5536TIP3   OH238098   4.278   4.166  13.898 -0.0141 -0.0543  0.2699
 5536TIP3    H138099   4.373   4.160  13.911 -0.0527 -0.5317  0.3553
 5536TIP3    H238100   4.249   4.229  13.964  0.1671 -0.3675  0.6594
 5537TIP3   OH238101   6.721   0.282  15.761 -0.8301 -0.0355  0.3147
 5537TIP3    H138102   6.756   0.237  15.837  1.0928  2.6972  1.2133
 5537TIP3    H238103   6.795   0.288  15.700 -1.1352  1.4453  0.0489
 5538TIP3   OH238104   5.372   5.522  14.934  0.1241  0.1632 -0.0375
 5538TIP3    H138105   5.304   5.567  14.985  0.5295 -0.8048  1.4174
 5538TIP3    H238106   5.330   5.504  14.850 -1.6835 -0.9532  1.0218
 5539TIP3   OH238107   4.066   3.847  14.309 -0.5504 -0.2341 -0.2515
 5539TIP3    H138108   4.032   3.875  14.224 -1.7638  2.6385  1.0733
 5539TIP3    H238109   4.157   3.825  14.292 -0.8207  0.0516 -2.3317
 5540TIP3   OH238110   0.556   4.122   3.898 -0.1450  0.6697  0.3653
 5540TIP3    H138111   0.534   4.064   3.971 -2.3754  2.2585  1.0532
 5540TIP3    H238112   0.554   4.210   3.936  0.4451  1.4148 -1.2383
 5541TIP3   OH238113   2.404   5.258  12.942 -0.3385 -0.1329  0.1306
 5541TIP3    H138114   2.440   5.320  12.878  0.6929 -1.2581 -0.4282
 5541TIP3    H238115   2.323   5.299  12.972  0.4000  1.5636 -0.0737
 5542TIP3   OH238116   6.329   6.347   2.611  0.2324 -0.0978  0.0800
 5542TIP3    H138117   6.312   6.417   2.549  0.7241  1.0464  1.2043
 5542TIP3    H238118   6.420   6.322   2.594  0.8219  1.1786  1.2474
 5543TIP3   OH238119   2.533   5.223  11.905 -0.0389 -0.2643 -0.0745
 5543TIP3    H138120   2.444   5.259  11.900 -0.7112 -1.6703  1.1415
 5543TIP3    H238121   2.575   5.253  11.824 -1.9374 -0.4333 -1.1772
 5544TIP3   OH238122   4.874   1.120  12.234 -0.0520 -0.5086 -0.0003
 5544TIP3    H138123   4.905   1.121  12.144 -0.8502  1.5751 -0.3123
 5544TIP3    H238124   4.948   1.089  12.285  0.4448 -1.6248 -1.3379
 5545TIP3   OH238125   3.601   1.815  16.976 -0.2156  0.7060  0.2492
 5545TIP3    H138126   3.691   1.826  17.006 -0.2211 -0.1555  0.5998
 5545TIP3    H238127   3.575   1.729  17.009 -1.7722  1.6645  1.6604
 5546TIP3   OH238128   4.852   4.286  14.108  0.0066 -0.1013  0.0691
 5546TIP3    H138129   4.849   4.347  14.035 -0.1811 -0.6492 -0.3845
 5546TIP3    H238130   4.926   4.316  14.161  2.1468 -1.4856 -1.9334
 5547TIP3   OH238131   0.732   0.721   4.047  0.2884  0.0773  0.2839
 5547TIP3    H138132   0.764   0.659   3.981  0.1076 -0.6666  0.8714
 5547TIP3    H238133   0.747   0.676   4.131 -1.9074 -0.1611  0.6196
 5548TIP3   OH238134   4.335   5.540   5.355  0.2712  0.1122 -0.2276
 5548TIP3    H138135   4.249   5.557   5.316 -0.5043 -0.9517  0.9516
 5548TIP3    H238136   4.317   5.520   5.447  1.5991 -1.7084 -0.3030
 5549TIP3   OH238137   5.843   3.838  14.917  0.1619  0.3515  0.3343
 5549TIP3    H138138   5.938   3.847  14.913  0.4820 -2.6167 -1.6567
 5549TIP3    H238139   5.826   3.790  14.998  0.2003  1.7537  1.2077
 5550TIP3   OH238140   3.384   0.831  15.186 -0.1658 -0.5431  0.1759
 5550TIP3    H138141   3.377   0.759  15.249 -1.2748 -0.7175 -0.1313
 5550TIP3    H238142   3.338   0.800  15.108 -1.7333  0.9419  0.4501
 5551TIP3   OH238143   1.001   6.495  11.595 -0.2327 -0.9034 -0.2575
 5551TIP3    H138144   0.933   6.562  11.601 -0.9231 -1.6208  0.1176
 5551TIP3    H238145   1.020   6.487  11.502 -1.8396 -1.8286 -0.5475
 5552TIP3   OH238146   2.524   5.471  11.516  0.4763 -0.3716 -0.1403
 5552TIP3    H138147   2.513   5.566  11.512 -0.2151 -0.3276  1.8875
 5552TIP3    H238148   2.555   5.447  11.428 -1.4197  1.4430 -1.4005
 5553TIP3   OH238149   2.248   5.763  14.553 -0.3732  0.1504  0.1841
 5553TIP3    H138150   2.257   5.784  14.646 -0.8431  0.9405  0.0616
 5553TIP3    H238151   2.223   5.846  14.512 -4.2154 -0.9353 -0.0609
 5554TIP3   OH238152   3.475   5.345  15.823 -0.6285  0.1898  0.0110
 5554TIP3    H138153   3.459   5.381  15.736 -0.2687  0.6620  0.1359
 5554TIP3    H238154   3.513   5.417  15.873 -2.3317  0.4190  1.0608
 5555TIP3   OH238155   4.336   3.649   2.467  0.3285  0.0717 -0.0217
 5555TIP3    H138156   4.378   3.731   2.444 -0.5031 -0.1025 -2.4057
 5555TIP3    H238157   4.408   3.587   2.477  0.8439  0.6323 -0.1980
 5556TIP3   OH238158   5.016   1.436  14.032  0.0610  0.3635 -0.0407
 5556TIP3    H138159   5.069   1.499  13.984  0.6124 -0.5111 -0.6157
 5556TIP3    H238160   4.984   1.484  14.108  1.3457  1.0201  0.1078
 5557TIP3   OH238161   3.450   4.387   0.921  0.3770 -1.3615 -0.3035
 5557TIP3    H138162   3.457   4.444   0.998  1.2606 -2.5473  0.5282
 5557TIP3    H238163   3.398   4.438   0.859  2.2224  0.9100 -0.1362
 5558TIP3   OH238164   3.322   2.437   0.360  0.7244 -0.4385  0.1680
 5558TIP3    H138165   3.277   2.362   0.320 -0.5791  0.1830  0.3898
 5558TIP3    H238166   3.394   2.457   0.301  0.7162 -1.4859 -0.2087
 5559TIP3   OH238167   2.085   3.210   5.602  0.5578 -0.3444 -0.5410
 5559TIP3    H138168   2.111   3.190   5.512  0.1535 -0.3226 -0.6613
 5559TIP3    H238169   2.164   3.191   5.654  0.9010 -0.0354 -0.9349
 5560TIP3   OH238170   3.651   0.889  12.623  0.5804  0.1081 -0.2803
 5560TIP3    H138171   3.746   0.877  12.625  0.4811 -0.6026  1.6114
 5560TIP3    H238172   3.639   0.983  12.640  0.9522  0.3733 -1.4129
 5561TIP3   OH238173   4.027   3.823  16.264 -0.3116  0.5418 -1.0872
 5561TIP3    H138174   4.003   3.914  16.245  0.0131  0.8336 -0.1988
 5561TIP3    H238175   4.060   3.788  16.181  0.6311  1.5958 -1.1858
 5562TIP3   OH238176   1.889   3.350   4.062  0.4212 -0.2351  0.0502
 5562TIP3    H138177   1.883   3.415   3.993 -0.4103  0.4165  0.7116
 5562TIP3    H238178   1.983   3.343   4.081  0.8346 -1.5629 -2.1673
 5563TIP3   OH238179   4.501   0.060  12.599 -0.0585  0.1028 -0.0393
 5563TIP3    H138180   4.594   0.078  12.615  0.0667  0.2040 -0.8134
 5563TIP3    H238181   4.501  -0.006  12.530 -0.5455 -1.9969  1.8794
 5564TIP3   OH238182   0.594   1.370  12.801 -0.2571 -0.0428 -0.1670
 5564TIP3    H138183   0.637   1.423  12.868  0.0781 -0.0460 -0.3786
 5564TIP3    H238184   0.660   1.307  12.773  0.5315  1.6734 -2.4183
 5565TIP3   OH238185   0.803   0.341   2.732  0.2296 -0.1257 -0.2559
 5565TIP3    H138186   0.753   0.406   2.782  1.5613  0.3470  0.5374
 5565TIP3    H238187   0.746   0.317   2.660 -1.2547  0.1500  0.7680
 5566TIP3   OH238188   4.522   3.315  16.076  0.0834 -0.0824 -0.1528
 5566TIP3    H138189   4.589   3.383  16.067 -0.4151  0.2326 -1.9788
 5566TIP3    H238190   4.484   3.307  15.988  0.4396 -3.0717 -0.1442
 5567TIP3   OH238191   2.726   6.352  13.464  0.1457  1.0464 -0.2849
 5567TIP3    H138192   2.735   6.344  13.369  0.5251  0.3645 -0.1997
 5567TIP3    H238193   2.637   6.384  13.477  0.1592  1.3398 -0.8761
 5568TIP3   OH238194   0.204   2.168  13.506 -0.0731 -0.2692  0.0765
 5568TIP3    H138195   0.262   2.157  13.581 -2.1236  0.9174  1.9488
 5568TIP3    H238196   0.196   2.263  13.496 -1.0052 -0.4157 -0.7060
 5569TIP3   OH238197   3.745   3.401   4.986 -0.6234  0.1466 -0.1331
 5569TIP3    H138198   3.674   3.424   5.046 -0.4331 -1.4043  0.7404
 5569TIP3    H238199   3.825   3.424   5.033 -0.5037  1.2259 -0.8271
 5570TIP3   OH238200   2.335   5.647   3.364  0.5827 -0.0749  0.2190
 5570TIP3    H138201   2.346   5.582   3.433  0.4795  0.6613  0.9470
 5570TIP3    H238202   2.415   5.640   3.311  1.4359  0.4683  1.3858
 5571TIP3   OH238203   1.460   4.622  10.672  0.2080  0.2416 -0.6449
 5571TIP3    H138204   1.418   4.590  10.592 -0.3068  0.0979 -0.3223
 5571TIP3    H238205   1.491   4.710  10.649  1.4660 -0.3880 -1.4749
 5572TIP3   OH238206   1.273   0.945   4.383 -0.0574  0.0030  0.3854
 5572TIP3    H138207   1.182   0.968   4.365 -0.5344  0.7064  3.1718
 5572TIP3    H238208   1.273   0.849   4.390 -0.4677 -0.0379 -0.1501
 5573TIP3   OH238209   4.877   0.561  13.261  0.5285  0.0847 -0.4088
 5573TIP3    H138210   4.939   0.607  13.205  2.7212 -0.4727  1.4042
 5573TIP3    H238211   4.911   0.472  13.266 -0.1559 -0.1295  0.9681
 5574TIP3   OH238212   5.937   6.325  13.634  0.0759 -0.4712 -0.6557
 5574TIP3    H138213   5.940   6.389  13.706 -0.5285 -1.7166  0.5187
 5574TIP3    H238214   6.015   6.344  13.581  0.5964  0.3983  0.3855
 5575TIP3   OH238215   4.318   5.025  12.367  0.2178  0.2909 -0.0563
 5575TIP3    H138216   4.408   4.993  12.362  0.3941  0.2777  2.4029
 5575TIP3    H238217   4.278   4.973  12.437 -1.2122  1.4667  0.0338
 5576TIP3   OH238218   3.660   2.529   2.903 -0.0074  0.3538  0.2649
 5576TIP3    H138219   3.653   2.625   2.897 -2.4682  0.2616  0.8069
 5576TIP3    H238220   3.718   2.515   2.978 -0.6795  1.4445  1.0280
 5577TIP3   OH238221   4.659   5.827   1.043  0.0447  0.5964  0.1603
 5577TIP3    H138222   4.725   5.894   1.062 -1.2913  1.6523  1.2333
 5577TIP3    H238223   4.582   5.853   1.093 -1.8800  0.4500 -2.4707
 5578TIP3   OH238224   4.132   3.453  11.636  0.4316  0.2401  0.2863
 5578TIP3    H138225   4.125   3.399  11.714 -1.8671  0.7263  0.5031
 5578TIP3    H238226   4.192   3.523  11.660 -0.7031  0.7261  1.8932
 5579TIP3   OH238227   2.353   1.295   5.146  0.0601 -0.6754  0.1820
 5579TIP3    H138228   2.428   1.273   5.202  0.5709  0.1037 -0.1823
 5579TIP3    H238229   2.315   1.372   5.188  1.6449  1.1756 -1.5830
 5580TIP3   OH238230   2.239   0.126  11.217  0.1541  0.5745  0.3846
 5580TIP3    H138231   2.331   0.135  11.190  0.2730  0.3747  0.7239
 5580TIP3    H238232   2.205   0.215  11.219 -0.0584  0.5595 -1.1361
 5581TIP3   OH238233   1.582   4.314  10.539 -0.2540  0.6598  0.4302
 5581TIP3    H138234   1.556   4.234  10.583  0.1166  0.7047  0.7336
 5581TIP3    H238235   1.677   4.313  10.540 -0.2406  0.7891 -0.1396
 5582TIP3   OH238236   3.627   1.330   3.192 -0.0289 -0.1040  0.2209
 5582TIP3    H138237   3.589   1.243   3.209  1.7926 -1.4322 -1.9346
 5582TIP3    H238238   3.721   1.318   3.206  0.8532  0.2550 -4.0481
 5583TIP3   OH238239   0.171   2.346   2.369 -0.1896  0.1894  0.3347
 5583TIP3    H138240   0.102   2.349   2.435 -0.8096  0.9436 -0.3282
 5583TIP3    H238241   0.126   2.363   2.287  0.8320  0.9705 -0.0750
 5584TIP3   OH238242   2.966   1.025   0.547 -0.2590 -0.5295  0.1639
 5584TIP3    H138243   3.007   1.110   0.532  1.4527 -1.5257 -1.1945
 5584TIP3    H238244   2.918   1.007   0.466 -0.4626 -0.9550  0.3729
 5585TIP3   OH238245   6.349   3.137   1.572  0.2377 -0.5377 -0.1369
 5585TIP3    H138246   6.418   3.070   1.568  0.8037 -0.1740  2.0842
 5585TIP3    H238247   6.336   3.152   1.666 -2.8030 -0.4814 -0.4621
 5586TIP3   OH238248   4.464   2.067   4.000  0.7266 -0.1288 -0.5631
 5586TIP3    H138249   4.495   2.150   4.036  0.8682 -0.8232  0.9584
 5586TIP3    H238250   4.541   2.030   3.957  0.4117  0.9713 -2.2047
 5587TIP3   OH238251   0.713   4.878  11.337  0.6646 -0.1968  0.4193
 5587TIP3    H138252   0.671   4.871  11.422 -0.4568 -0.7571 -0.1538
 5587TIP3    H238253   0.754   4.793  11.323 -2.8059 -1.8096 -1.3831
 5588TIP3   OH238254   0.974   1.114  16.225 -0.2595 -0.1589 -0.1555
 5588TIP3    H138255   1.014   1.065  16.296  0.5823 -1.1732 -1.2731
 5588TIP3    H238256   1.033   1.102  16.151 -1.4769  0.2194 -1.2424
 5589TIP3   OH238257   5.674   3.512   0.186 -0.4293  0.1432  0.4740
 5589TIP3    H138258   5.638   3.488   0.271 -1.2602  0.6570  0.2772
 5589TIP3    H238259   5.721   3.434   0.156 -1.8025 -0.7221  0.5176
 5590TIP3   OH238260   2.567   5.342   4.675 -0.2916 -0.1723 -0.4582
 5590TIP3    H138261   2.555   5.250   4.698 -0.8170 -0.0121 -0.0700
 5590TIP3    H238262   2.661   5.352   4.663 -0.2538 -0.8141 -0.7298
 5591TIP3   OH238263   5.038   4.709  16.828 -0.4143  0.5889 -0.3855
 5591TIP3    H138264   4.983   4.714  16.906  0.2584 -3.1656  0.5319
 5591TIP3    H238265   5.016   4.626  16.787  0.1067  1.8804 -3.6546
 5592TIP3   OH238266   2.100   1.129   0.196 -0.2824 -0.1549  0.0873
 5592TIP3    H138267   2.180   1.145   0.145 -0.6515  2.0768  0.1300
 5592TIP3    H238268   2.121   1.161   0.284 -1.3000  0.7309  0.0247
 5593TIP3   OH238269   2.195   3.282   4.757  0.4737 -0.1718 -0.3020
 5593TIP3    H138270   2.129   3.241   4.701  0.9097  0.0315 -0.9828
 5593TIP3    H238271   2.250   3.210   4.786 -0.6497 -0.4963  1.1404
 5594TIP3   OH238272   0.434   2.864  13.874  0.0999 -0.2081 -0.4224
 5594TIP3    H138273   0.393   2.787  13.913  1.5307 -0.2185  1.1533
 5594TIP3    H238274   0.464   2.916  13.948 -0.5887  1.7858 -1.4492
 5595TIP3   OH238275   1.252   4.712   3.467  0.1119  0.3306  0.1994
 5595TIP3    H138276   1.346   4.698   3.455 -0.0947  0.5087 -1.9365
 5595TIP3    H238277   1.222   4.633   3.513  0.9680 -0.7143 -0.9665
 5596TIP3   OH238278   3.736   3.026   3.032 -0.5137 -0.0961  0.0026
 5596TIP3    H138279   3.679   3.086   2.984  1.0644  2.0158  0.6232
 5596TIP3    H238280   3.775   3.080   3.102  2.3408 -1.3318 -0.4867
 5597TIP3   OH238281   3.158   2.187  16.272  0.6192 -0.3497 -0.3096
 5597TIP3    H138282   3.117   2.108  16.307 -1.5288  0.6139 -0.5158
 5597TIP3    H238283   3.147   2.180  16.177  1.7540 -0.4850 -0.4413
 5598TIP3   OH238284   3.718   4.450   4.278 -0.3637  0.4354 -0.2396
 5598TIP3    H138285   3.751   4.478   4.364  0.8550  1.7785 -1.1131
 5598TIP3    H238286   3.668   4.525   4.246 -2.5638 -0.7731  0.1050
 5599TIP3   OH238287   5.274   1.173  15.013  0.1129 -0.5018  0.9365
 5599TIP3    H138288   5.370   1.177  15.011  0.1137 -0.5151  0.9439
 5599TIP3    H238289   5.254   1.115  15.087  0.1162 -1.1511  0.4417
 5600TIP3   OH238290   0.442   0.775  13.647  0.1185  0.1433  0.4791
 5600TIP3    H138291   0.463   0.690  13.685  5.2973  0.1947 -1.4235
 5600TIP3    H238292   0.355   0.765  13.610 -0.5671 -3.3790  2.6481
 5601TIP3   OH238293   5.748   5.172  14.647  0.2546  0.5449 -0.7404
 5601TIP3    H138294   5.657   5.199  14.653 -0.5405 -1.9970  0.4923
 5601TIP3    H238295   5.786   5.227  14.579 -2.3911  1.1403 -1.8480
 5602TIP3   OH238296   6.035   1.937   0.797  0.1121 -0.5443  0.0618
 5602TIP3    H138297   6.068   1.873   0.861  1.5916  0.4383  0.3242
 5602TIP3    H238298   6.105   1.942   0.731 -1.7209 -2.1798 -2.1800
 5603TIP3   OH238299   2.905   3.099  11.984  0.5527  0.3047 -0.9506
 5603TIP3    H138300   2.891   3.022  12.038 -0.0399  0.4314 -0.9198
 5603TIP3    H238301   2.836   3.095  11.918  1.0245  0.3656 -1.4593
 5604TIP3   OH238302   0.205   6.453   6.031  0.1832 -0.3118  0.2269
 5604TIP3    H138303   0.244   6.540   6.040  1.2173 -0.7111 -0.3238
 5604TIP3    H238304   0.276   6.393   6.054 -0.2748 -1.0377 -0.2478
 5605TIP3   OH238305   2.181   4.180  13.172  0.7560  0.4057  0.3226
 5605TIP3    H138306   2.248   4.125  13.212  1.3164  1.3975  0.7922
 5605TIP3    H238307   2.195   4.267  13.211  3.2213  2.2502 -3.8923
 5606TIP3   OH238308   5.792   2.945  11.675  0.5585  0.1045 -0.7146
 5606TIP3    H138309   5.809   2.890  11.751 -1.5722  1.9189  1.2037
 5606TIP3    H238310   5.852   3.019  11.685  1.4267 -0.4285 -1.7529
 5607TIP3   OH238311   1.426   3.115  13.305 -0.2227 -0.0223 -0.1113
 5607TIP3    H138312   1.495   3.060  13.341 -0.8296  0.6358  2.2411
 5607TIP3    H238313   1.467   3.162  13.233  1.9315  0.6435  1.4617
 5608TIP3   OH238314   2.475   3.162  13.019 -0.7947 -0.5659 -0.4534
 5608TIP3    H138315   2.510   3.077  12.996 -1.3432 -1.2915  1.1992
 5608TIP3    H238316   2.412   3.182  12.950  0.0997 -0.9982 -1.4105
 5609TIP3   OH238317   1.856   5.990  16.959 -0.1612  0.3012  0.4239
 5609TIP3    H138318   1.861   5.917  17.021  0.1064  0.3383  0.4443
 5609TIP3    H238319   1.805   6.057  17.006 -0.2136  0.2159  0.4900
 5610TIP3   OH238320   0.234   4.165  15.999  0.0883  1.0462  0.1350
 5610TIP3    H138321   0.218   4.231  16.067 -0.6808 -0.5190  1.5596
 5610TIP3    H238322   0.317   4.191  15.960  1.5478  1.0466  2.9684
 5611TIP3   OH238323   1.239   1.694   2.903  0.0526 -0.3018 -0.2977
 5611TIP3    H138324   1.294   1.656   2.835 -0.1245  0.8584 -1.1136
 5611TIP3    H238325   1.301   1.727   2.969  0.2749 -0.4145 -0.4508
 5612TIP3   OH238326   2.196   5.279  11.578 -0.2414 -0.0590  0.5999
 5612TIP3    H138327   2.190   5.344  11.647 -0.4003 -2.1234  2.6486
 5612TIP3    H238328   2.113   5.231  11.582  1.2641 -2.7899  1.7756
 5613TIP3   OH238329   1.011   0.644   3.206 -0.2491  0.4368 -0.1679
 5613TIP3    H138330   0.921   0.615   3.199 -0.5668  1.4609 -0.5208
 5613TIP3    H238331   1.009   0.736   3.180  1.2030 -0.0205 -2.1322
 5614TIP3   OH238332   2.962   3.389   3.401  0.5751  0.3457 -0.3155
 5614TIP3    H138333   3.002   3.473   3.378  0.7269  0.3062 -0.1927
 5614TIP3    H238334   2.871   3.398   3.374  0.3912  0.8477  0.4519
 5615TIP3   OH238335   6.180   4.508   3.363 -0.4137  0.2917  0.3593
 5615TIP3    H138336   6.183   4.603   3.370 -1.5688  0.3128  0.7804
 5615TIP3    H238337   6.093   4.485   3.393  0.8666 -1.1595  3.3949
 5616TIP3   OH238338   1.453   3.694  16.113 -0.2017  0.1075 -0.4987
 5616TIP3    H138339   1.459   3.602  16.141  1.8952 -0.0312 -1.2368
 5616TIP3    H238340   1.405   3.737  16.184 -0.0233 -1.2946  0.5281
 5617TIP3   OH238341   5.596   4.311  16.167  0.2391  0.8050 -0.5448
 5617TIP3    H138342   5.558   4.389  16.208 -0.1991  1.0621 -1.4147
 5617TIP3    H238343   5.521   4.261  16.136  0.4345 -0.6555  1.1624
 5618TIP3   OH238344   6.025   0.376   1.176 -0.1756  0.0286 -0.3823
 5618TIP3    H138345   5.986   0.348   1.259  2.0125  1.6912  1.3283
 5618TIP3    H238346   6.070   0.298   1.143 -0.6895 -0.5312  0.2157
 5619TIP3   OH238347   0.850   4.995   2.643  0.6098  0.1061  0.4127
 5619TIP3    H138348   0.763   4.971   2.675  0.1530 -0.9136 -1.4500
 5619TIP3    H238349   0.850   4.970   2.551  0.8501  5.2419 -1.3236
 5620TIP3   OH238350   2.296   3.783  12.526  0.2861 -0.4286 -0.1142
 5620TIP3    H138351   2.219   3.821  12.484  1.4303 -0.3271 -2.2744
 5620TIP3    H238352   2.358   3.769  12.455  2.3600 -0.3275  1.5592
 5621TIP3   OH238353   3.906   3.589  16.588 -0.3116  0.0625 -0.3475
 5621TIP3    H138354   3.914   3.579  16.494 -2.2415 -1.2990 -0.4252
 5621TIP3    H238355   3.963   3.663  16.610 -0.9434  1.3585 -2.7692
 5622TIP3   OH238356   5.718   2.771   0.279  0.4030 -0.4045  0.7430
 5622TIP3    H138357   5.812   2.758   0.275  0.3015 -1.0631  0.2415
 5622TIP3    H238358   5.695   2.755   0.370  0.8680  0.4819  1.0257
 5623TIP3   OH238359   3.778   1.875  11.798 -0.3182 -0.3123 -0.1126
 5623TIP3    H138360   3.687   1.901  11.786 -0.9140 -1.6913  1.0268
 5623TIP3    H238361   3.797   1.817  11.724 -1.2922 -2.1804  1.0193
 5624TIP3   OH238362   5.671   6.792  16.400 -0.0902 -0.1083  0.1460
 5624TIP3    H138363   5.587   6.753  16.377  0.8483 -1.3958 -1.3493
 5624TIP3    H238364   5.694   6.846  16.324  0.5132  0.0899  0.4593
 5625TIP3   OH238365   2.230   3.189   0.470 -0.0271 -0.8999 -0.2299
 5625TIP3    H138366   2.227   3.265   0.528 -0.9213 -0.0304 -1.3444
 5625TIP3    H238367   2.294   3.130   0.509  1.3903  0.8410  0.1999
 5626TIP3   OH238368   6.451   5.583  13.500 -0.2823  0.0853 -0.0147
 5626TIP3    H138369   6.461   5.515  13.434  1.4261  1.1039 -0.8558
 5626TIP3    H238370   6.539   5.595  13.537 -0.9954  0.2462  1.7429
 5627TIP3   OH238371   5.448   1.412  14.614  0.5476  0.2077 -0.1410
 5627TIP3    H138372   5.369   1.442  14.659  0.6873  1.4149 -0.6797
 5627TIP3    H238373   5.475   1.485  14.559  1.4760 -0.5513 -0.7407
 5628TIP3   OH238374   4.400   5.170   5.875 -0.7092  0.3143  0.2628
 5628TIP3    H138375   4.461   5.244   5.878  1.1514 -1.0987 -0.6371
 5628TIP3    H238376   4.425   5.115   5.949  0.2675 -1.1041 -1.0827
 5629TIP3   OH238377   1.165   0.614  13.679  0.1757 -0.3113  0.4095
 5629TIP3    H138378   1.135   0.693  13.633  0.9578 -0.5195 -0.4854
 5629TIP3    H238379   1.246   0.641  13.723 -0.4070 -0.1948  1.4643
 5630TIP3   OH238380   0.642   6.480  14.777  0.4371 -0.1783 -0.0250
 5630TIP3    H138381   0.635   6.461  14.683 -3.3682 -0.2703  0.1191
 5630TIP3    H238382   0.656   6.395  14.818 -2.0633 -0.8126 -0.3301
 5631TIP3   OH238383   2.301   4.548   0.447  0.3106  0.2507  0.3166
 5631TIP3    H138384   2.334   4.630   0.483  0.7138  0.2810 -0.1210
 5631TIP3    H238385   2.312   4.484   0.518  0.4630  0.4600  0.4800
 5632TIP3   OH238386   3.780   5.857  17.121  0.2483 -0.0395 -0.1072
 5632TIP3    H138387   3.814   5.913  17.191  2.1999  1.3149 -2.0025
 5632TIP3    H238388   3.839   5.781  17.122  0.0372 -0.2014 -0.0293
 5633TIP3   OH238389   5.195   0.851   4.315 -0.0033  0.4171 -0.3704
 5633TIP3    H138390   5.128   0.918   4.304  0.3229  0.6353 -1.0826
 5633TIP3    H238391   5.278   0.900   4.314  0.2251  0.0321 -0.6911
 5634TIP3   OH238392   1.399   5.031  11.529 -0.6307 -0.2451  0.2533
 5634TIP3    H138393   1.411   5.125  11.545  1.3010 -0.7772  2.4265
 5634TIP3    H238394   1.436   4.988  11.606  0.2686 -2.8588 -1.4740
 5635TIP3   OH238395   0.593   1.612  11.847 -0.1642  0.1928  0.3292
 5635TIP3    H138396   0.613   1.602  11.754  0.6297 -1.4752  0.6498
 5635TIP3    H238397   0.659   1.674  11.880 -1.8903  2.7072 -0.6299
 5636TIP3   OH238398   1.635   3.352  16.760 -0.2652  0.2874 -0.1080
 5636TIP3    H138399   1.544   3.327  16.748 -0.2615  0.3272 -0.2211
 5636TIP3    H238400   1.637   3.447  16.743 -0.1694  0.2530 -0.2933
 5637TIP3   OH238401   2.176   6.321  11.939 -0.5028  0.0653  0.5670
 5637TIP3    H138402   2.178   6.264  11.861  0.9820 -1.5089  1.6660
 5637TIP3    H238403   2.085   6.350  11.945 -0.6360  0.3743 -1.8148
 5638TIP3   OH238404   1.309   2.220   2.415 -0.1932  0.2375 -0.3612
 5638TIP3    H138405   1.357   2.147   2.454 -2.3028 -0.5885  0.8376
 5638TIP3    H238406   1.294   2.193   2.324 -0.3177 -0.4688 -0.1327
 5639TIP3   OH238407   3.925   1.896  15.606  0.7872  0.2290 -0.6105
 5639TIP3    H138408   3.918   1.907  15.701  0.9309  1.9969 -0.7818
 5639TIP3    H238409   3.961   1.808  15.595  0.6336 -0.0598  0.9684
 5640TIP3   OH238410   3.430   0.928  13.196  0.6055 -0.1185  0.3664
 5640TIP3    H138411   3.427   0.844  13.150  0.7932 -0.7789  1.5187
 5640TIP3    H238412   3.353   0.927  13.253  0.4031  0.6614  0.1225
 5641TIP3   OH238413   5.480   1.277  16.291 -0.2274 -0.2598 -0.2866
 5641TIP3    H138414   5.399   1.258  16.339 -0.4102 -0.0709 -0.5138
 5641TIP3    H238415   5.506   1.192  16.254 -0.4708 -0.2727 -0.4346
 5642TIP3   OH238416   1.965   2.272  15.886 -0.7756 -0.3625 -0.4438
 5642TIP3    H138417   2.038   2.295  15.944 -0.7830 -0.8748 -0.2309
 5642TIP3    H238418   1.908   2.349  15.889  0.2092  0.4455 -1.3652
 5643TIP3   OH238419   5.601   3.595  15.157 -0.0255  0.0053 -0.0087
 5643TIP3    H138420   5.533   3.649  15.116  1.1601  1.2415 -0.4178
 5643TIP3    H238421   5.554   3.542  15.221 -1.2555  1.6130  0.5042
 5644TIP3   OH238422   3.489   1.890   0.326 -0.5730  0.3839  0.3740
 5644TIP3    H138423   3.474   1.815   0.268 -0.1454 -0.4131  1.2601
 5644TIP3    H238424   3.402   1.917   0.353 -0.7745  0.7032 -0.5408
 5645TIP3   OH238425   1.423   2.110   0.366 -0.6175 -0.5059  0.1264
 5645TIP3    H138426   1.473   2.152   0.295  0.5266  0.3048  1.3615
 5645TIP3    H238427   1.333   2.109   0.334 -0.1749  0.0449 -1.2418
 5646TIP3   OH238428   4.133   1.244  16.063  0.0035 -0.2100 -0.4282
 5646TIP3    H138429   4.103   1.325  16.103  1.0220 -0.3357  0.6696
 5646TIP3    H238430   4.211   1.269  16.013 -0.5889 -0.2542 -1.3855
 5647TIP3   OH238431   4.645   0.056  11.544  0.0623  0.1460 -0.6827
 5647TIP3    H138432   4.574  -0.006  11.560 -0.5562  0.7006 -1.1882
 5647TIP3    H238433   4.603   0.142  11.551  1.0160  0.5338  0.5360
 5648TIP3   OH238434   6.763   4.233  13.004  0.4609 -0.2359  0.1039
 5648TIP3    H138435   6.687   4.247  13.061  1.1978  0.3736  0.9525
 5648TIP3    H238436   6.830   4.292  13.038  1.2043 -0.5009 -0.8627
 5649TIP3   OH238437   0.257   3.642  11.919 -0.5243 -0.2198  0.3683
 5649TIP3    H138438   0.210   3.709  11.869 -1.1277 -1.0517 -0.2076
 5649TIP3    H238439   0.349   3.653  11.895 -0.8330 -0.7688 -1.1491
 5650TIP3   OH238440   6.288   1.737   4.689 -0.0704  0.1585  0.1233
 5650TIP3    H138441   6.314   1.762   4.600  0.1133 -0.9104 -0.1392
 5650TIP3    H238442   6.339   1.658   4.707 -1.3985 -0.6315  0.5037
 5651TIP3   OH238443   4.711   3.699  15.491  0.4507 -0.2147  0.3956
 5651TIP3    H138444   4.776   3.637  15.458  0.0669 -1.4217  1.7945
 5651TIP3    H238445   4.628   3.650  15.490  0.1472  0.2403  1.5823
 5652TIP3   OH238446   1.158   0.655   2.008  0.1578  0.4392  0.3275
 5652TIP3    H138447   1.146   0.672   1.915  1.0933 -0.1890  0.0724
 5652TIP3    H238448   1.234   0.709   2.032  1.9861 -1.7870 -0.0686
 5653TIP3   OH238449   4.282   5.935  17.020  0.6284 -0.2691 -0.2772
 5653TIP3    H138450   4.363   5.895  17.052  0.7834  0.8107  0.7617
 5653TIP3    H238451   4.215   5.868  17.033  0.9685 -0.3861  0.9549
 5654TIP3   OH238452   0.658   4.994  10.687  0.4253 -0.1020  0.1752
 5654TIP3    H138453   0.567   4.969  10.703  0.1488  0.6193 -0.1998
 5654TIP3    H238454   0.705   4.911  10.677 -0.3101 -0.4731 -0.2707
 5655TIP3   OH238455   5.636   3.274   4.741 -0.1040 -0.3567 -0.5988
 5655TIP3    H138456   5.640   3.350   4.798 -0.2942 -0.2959 -0.6637
 5655TIP3    H238457   5.603   3.308   4.658  1.1243 -0.2595 -1.0701
 5656TIP3   OH238458   5.050   3.375   4.666 -0.3432 -0.4890 -0.4607
 5656TIP3    H138459   4.981   3.314   4.694  0.1650 -0.1497  1.7639
 5656TIP3    H238460   5.123   3.356   4.724  0.4891  0.9627 -0.9877
 5657TIP3   OH238461   1.845   5.240   5.712  0.0438 -0.1046  0.4287
 5657TIP3    H138462   1.800   5.312   5.666  1.4689  0.9362  0.5972
 5657TIP3    H238463   1.777   5.174   5.724 -1.0144  0.6834 -0.8479
 5658TIP3   OH238464   0.032   6.673  16.657  0.0347  0.0064 -0.4682
 5658TIP3    H138465   0.010   6.672  16.750  1.4638 -2.3453 -0.0850
 5658TIP3    H238466   0.020   6.583  16.628  0.1718  0.5652 -2.4617
 5659TIP3   OH238467   4.496   5.021   5.014  0.0880  0.3715  0.1420
 5659TIP3    H138468   4.543   4.973   4.946 -0.6558 -1.0635  0.6086
 5659TIP3    H238469   4.554   5.022   5.089  1.5103  3.1661 -0.8368
 5660TIP3   OH238470   6.169   1.651  14.441 -0.3169 -0.2698  0.5865
 5660TIP3    H138471   6.145   1.578  14.382  1.4079  0.5856 -1.2969
 5660TIP3    H238472   6.220   1.610  14.510  0.4679 -0.9252 -0.3429
 5661TIP3   OH238473   0.604   3.852   5.587 -0.3844  0.1417 -0.7316
 5661TIP3    H138474   0.640   3.825   5.503  0.1518 -0.3121 -0.3589
 5661TIP3    H238475   0.679   3.860   5.645 -0.7930 -0.0399 -0.1601
 5662TIP3   OH238476   2.288   5.387  16.831 -0.1430 -0.3137  0.1724
 5662TIP3    H138477   2.227   5.447  16.873  1.2513  0.9215  0.5277
 5662TIP3    H238478   2.329   5.438  16.761  0.3773 -1.1499 -0.1611
 5663TIP3   OH238479   3.342   5.041   3.182  0.0314 -0.4895 -0.6557
 5663TIP3    H138480   3.334   4.991   3.101 -1.8137 -2.4003  0.6137
 5663TIP3    H238481   3.324   4.978   3.251 -2.1320  1.8327  1.0567
 5664TIP3   OH238482   0.050   1.458  16.959 -0.3387 -0.4287  0.5877
 5664TIP3    H138483   0.070   1.383  17.015 -0.3250  1.0239  2.6238
 5664TIP3    H238484   0.121   1.459  16.894 -0.4699 -2.2741  0.3727
 5665TIP3   OH238485   0.603   4.307   4.365  0.6961  0.6782 -0.2136
 5665TIP3    H138486   0.590   4.376   4.300  0.2279  2.8061  2.0131
 5665TIP3    H238487   0.514   4.277   4.386  0.8487 -0.0115 -0.5145
 5666TIP3   OH238488   6.821   1.447   0.245 -0.2074  0.0824  0.5174
 5666TIP3    H138489   6.735   1.415   0.219 -0.5094  0.3795  1.1427
 5666TIP3    H238490   6.804   1.527   0.294  0.4858  0.6669 -0.1663
 5667TIP3   OH238491   6.063   1.709  13.914 -0.4395  0.6635 -0.8614
 5667TIP3    H138492   6.029   1.713  13.825 -1.6488 -0.9391 -0.5277
 5667TIP3    H238493   6.009   1.770  13.963  1.3043  2.8212 -1.4734
 5668TIP3   OH238494   3.994   5.978  14.335  0.6986  0.6882  0.0297
 5668TIP3    H138495   3.988   5.991  14.430 -2.7241  2.6846 -0.2987
 5668TIP3    H238496   4.031   5.890  14.325 -0.6081 -0.3801  3.2630
 5669TIP3   OH238497   4.941   0.742  12.434 -0.8460 -0.0691  0.4576
 5669TIP3    H138498   4.878   0.761  12.365 -0.1832 -0.3830 -0.2434
 5669TIP3    H238499   4.934   0.647  12.446 -0.3249 -0.1420  0.1944
 5670TIP3   OH238500   6.820   4.903  13.365 -0.1564  0.2385  0.3979
 5670TIP3    H138501   6.873   4.957  13.424 -0.9338  0.7249  0.6614
 5670TIP3    H238502   6.774   4.843  13.423 -0.0462 -0.0548  0.1846
 5671TIP3   OH238503   2.532   6.491  11.737  0.0010  0.3718  0.4030
 5671TIP3    H138504   2.590   6.562  11.709  0.8847 -0.5837 -0.2490
 5671TIP3    H238505   2.447   6.514  11.699  1.0546 -0.6663 -2.9329
 5672TIP3   OH238506   5.076   2.221  14.837 -0.2582  0.0409  0.2780
 5672TIP3    H138507   4.986   2.228  14.804 -0.4388 -1.9903  0.1721
 5672TIP3    H238508   5.103   2.132  14.813  1.8008  0.6062  0.3054
 5673TIP3   OH238509   2.894   0.851  11.956 -0.6060  0.1404  0.5669
 5673TIP3    H138510   2.971   0.815  11.912 -0.4803  0.9820  0.0905
 5673TIP3    H238511   2.885   0.939  11.921 -2.3451 -0.2551 -0.0727
 5674TIP3   OH238512   2.333   0.669  15.646 -0.0853 -0.3888 -0.0777
 5674TIP3    H138513   2.282   0.588  15.648  1.1756 -1.2076  0.4473
 5674TIP3    H238514   2.322   0.707  15.733 -0.6081 -0.0277 -0.2970
 5675TIP3   OH238515   5.293   5.220  16.266  0.0598  0.7060 -0.4832
 5675TIP3    H138516   5.335   5.135  16.259  0.0061  0.3781  2.1019
 5675TIP3    H238517   5.362   5.278  16.299 -0.6017  0.9599  0.5021
 5676TIP3   OH238518   6.691   6.487  12.285 -0.2288 -0.0487 -0.3895
 5676TIP3    H138519   6.625   6.449  12.343  1.6233 -1.0576  1.1782
 5676TIP3    H238520   6.746   6.413  12.259  2.9574  1.2286  2.0448
 5677TIP3   OH238521   6.513   4.327  11.795  0.3901 -0.1002 -0.3589
 5677TIP3    H138522   6.541   4.388  11.863 -0.7213  0.3794 -0.3036
 5677TIP3    H238523   6.571   4.252  11.804  0.3381  0.0018  1.0523
 5678TIP3   OH238524   0.065   1.646  16.569 -0.3278 -0.2283 -0.3079
 5678TIP3    H138525   0.009   1.616  16.641  2.1198  0.1590  1.9212
 5678TIP3    H238526   0.032   1.733  16.548 -0.4292  0.1383  1.1997
 5679TIP3   OH238527   4.158   0.699   3.381 -0.2646  0.7510 -0.2864
 5679TIP3    H138528   4.183   0.792   3.384  0.9083  0.4246  0.7390
 5679TIP3    H238529   4.198   0.661   3.459 -0.3714 -0.7230 -0.9276
 5680TIP3   OH238530   3.731   3.939  14.131 -0.0990  0.0938  0.1832
 5680TIP3    H138531   3.703   4.002  14.064 -4.2534 -1.4269  0.1820
 5680TIP3    H238532   3.748   3.992  14.209 -3.0667  1.3671  0.0718
 5681TIP3   OH238533   5.055   4.332  11.715  0.4410  0.1143  0.2183
 5681TIP3    H138534   5.079   4.352  11.624  0.9509  1.3051  0.5999
 5681TIP3    H238535   5.087   4.243  11.729  0.1241 -0.1837 -0.8435
 5682TIP3   OH238536   1.621   2.011  16.251  0.0737 -0.1295  0.1019
 5682TIP3    H138537   1.699   2.028  16.199  0.6480  0.5273  1.1428
 5682TIP3    H238538   1.552   2.061  16.208  0.3617 -0.2072 -0.4573
 5683TIP3   OH238539   3.675   1.153   3.489  0.0324  0.6113  1.0409
 5683TIP3    H138540   3.765   1.180   3.508  0.1485  0.9892  0.0171
 5683TIP3    H238541   3.641   1.121   3.573  1.7741 -1.4729  1.0538
 5684TIP3   OH238542   6.744   4.939   2.759 -0.3763  0.3346  0.1906
 5684TIP3    H138543   6.814   4.885   2.722  0.7558  0.5775  1.8603
 5684TIP3    H238544   6.710   4.888   2.832  0.1321  1.4895  1.2738
 5685TIP3   OH238545   4.087   0.078   0.194  0.4682  0.5273 -0.3576
 5685TIP3    H138546   4.159   0.142   0.192  0.2466  0.9514  2.2425
 5685TIP3    H238547   4.074   0.060   0.287 -1.9952 -0.4671 -0.8383
 5686TIP3   OH238548   3.715   0.409   0.105 -0.1430  0.3901  0.0231
 5686TIP3    H138549   3.759   0.377   0.184  0.7698  1.4054 -0.0474
 5686TIP3    H238550   3.623   0.416   0.129 -0.2928 -1.6252  0.2278
 5687TIP3   OH238551   4.026   5.768   4.364  0.6244  0.0914  0.3042
 5687TIP3    H138552   4.026   5.740   4.455 -0.1808  1.6423  0.8126
 5687TIP3    H238553   4.054   5.860   4.366 -1.5361  0.8494 -0.7368
 5688TIP3   OH238554   1.862   5.782  16.079 -0.4325  0.3794  0.0396
 5688TIP3    H138555   1.822   5.715  16.135 -0.3105  0.2979  0.0284
 5688TIP3    H238556   1.787   5.832  16.046 -0.4549  1.1404  1.1666
 5689TIP3   OH238557   2.533   2.202   5.462  0.5113  0.1548  0.3194
 5689TIP3    H138558   2.546   2.130   5.524  0.5673 -1.3399 -1.3478
 5689TIP3    H238559   2.605   2.193   5.399 -1.3577 -0.4288 -1.8311
 5690TIP3   OH238560   1.123   6.267  17.008 -0.4107  0.1450  0.9824
 5690TIP3    H138561   1.032   6.239  16.999 -0.5348  0.7008  0.3897
 5690TIP3    H238562   1.163   6.246  16.923 -0.0403  0.1026  1.1642
 5691TIP3   OH238563   6.031   1.142  14.337 -0.3481  0.1920 -0.4343
 5691TIP3    H138564   6.085   1.067  14.312 -0.4410  0.2236 -0.7356
 5691TIP3    H238565   5.952   1.103  14.376 -0.3737  0.1331 -0.5441
 5692TIP3   OH238566   1.880   0.664   4.221 -0.7958 -0.5086 -0.1112
 5692TIP3    H138567   1.807   0.702   4.271  1.2461  3.3210  0.3253
 5692TIP3    H238568   1.877   0.709   4.137  2.4495  1.7828  0.8399
 5693TIP3   OH238569   2.187   1.383   2.129 -0.3423  0.0737  0.3357
 5693TIP3    H138570   2.270   1.337   2.117 -0.1437  0.5021  0.0349
 5693TIP3    H238571   2.197   1.429   2.212 -0.0327  0.6342 -0.0085
 5694TIP3   OH238572   6.212   4.740  14.941 -0.5042  0.0717  0.1602
 5694TIP3    H138573   6.254   4.762  15.024 -0.3929 -1.1549  0.4569
 5694TIP3    H238574   6.232   4.813  14.883  2.0904 -0.4484  0.2723
 5695TIP3   OH238575   2.322   1.092   2.094  0.3034  0.0509 -0.2228
 5695TIP3    H138576   2.383   1.036   2.142 -1.4811 -0.0640  2.1305
 5695TIP3    H238577   2.307   1.046   2.012  0.9001 -1.5743  0.5204
 5696TIP3   OH238578   1.158   6.723   5.056  0.3520  0.5568 -0.5420
 5696TIP3    H138579   1.122   6.808   5.082  0.8541  0.6439 -0.0931
 5696TIP3    H238580   1.229   6.707   5.119 -2.2638 -2.0664  2.0383
 5697TIP3   OH238581   5.347   0.165   4.003  0.4751 -0.7677  0.5235
 5697TIP3    H138582   5.361   0.195   3.913  0.2042 -0.7671  0.4809
 5697TIP3    H238583   5.435   0.157   4.039  0.5875 -0.8151  0.2435
 5698TIP3   OH238584   1.085   5.274  11.919 -0.1476  0.1884  0.1102
 5698TIP3    H138585   1.086   5.339  11.849 -2.5029 -0.7987 -0.9476
 5698TIP3    H238586   1.120   5.194  11.879  0.8305  0.2501  0.8097
 5699TIP3   OH238587   4.202   6.047   4.796 -0.3795  0.1138  0.3366
 5699TIP3    H138588   4.286   6.011   4.769 -0.1563  1.0140 -0.1866
 5699TIP3    H238589   4.209   6.141   4.781 -1.7818  0.1091 -0.5192
 5700TIP3   OH238590   5.811   1.596  15.564 -0.4651 -0.0719  0.0034
 5700TIP3    H138591   5.838   1.686  15.547 -0.7000 -0.0717 -0.3769
 5700TIP3    H238592   5.886   1.557  15.609 -0.7196  0.5644  0.9867
 5701TIP3   OH238593   4.493   6.657  16.364  0.0578  0.6641  0.2258
 5701TIP3    H138594   4.540   6.632  16.284  2.7531 -1.1616  2.2180
 5701TIP3    H238595   4.538   6.736  16.394 -0.2558  0.7284  0.5292
 5702TIP3   OH238596   5.386   4.295   2.542  0.2519 -0.2632  0.5985
 5702TIP3    H138597   5.307   4.271   2.493  0.3299 -1.8667  1.2085
 5702TIP3    H238598   5.376   4.253   2.627 -0.5004  3.5130  2.5999
 5703TIP3   OH238599   3.826   1.506   0.911  0.0455 -0.1282  0.1270
 5703TIP3    H138600   3.917   1.518   0.939 -0.2520  1.4853  0.5317
 5703TIP3    H238601   3.790   1.595   0.910  0.1552  0.2442 -5.9885
 5704TIP3   OH238602   0.048   5.603  12.879 -0.1230 -0.3951 -0.1518
 5704TIP3    H138603   0.032   5.525  12.932 -0.4078  0.4813  1.1004
 5704TIP3    H238604  -0.032   5.655  12.889 -0.4261 -0.4564 -1.9331
 5705TIP3   OH238605   2.083   0.047  16.641  0.4028  0.0048 -0.3732
 5705TIP3    H138606   2.018   0.015  16.579  1.8166  0.1284 -1.9854
 5705TIP3    H238607   2.089  -0.021  16.708 -0.9962 -0.2298 -0.4636
 5706TIP3   OH238608   6.140   1.143   5.863 -0.1405  0.1884  0.3865
 5706TIP3    H138609   6.122   1.147   5.957 -2.0927 -2.7097  0.2736
 5706TIP3    H238610   6.232   1.120   5.856  0.0602  0.5944  1.5826
 5707TIP3   OH238611   5.089   1.813  13.470 -0.2129  0.0850  0.4091
 5707TIP3    H138612   5.117   1.812  13.379  0.9758 -0.7846  0.7678
 5707TIP3    H238613   5.046   1.728  13.483  1.7106 -0.8157  1.2560
 5708TIP3   OH238614   5.339   3.896   3.535  0.0163  0.5209  0.3654
 5708TIP3    H138615   5.363   3.915   3.444 -3.0098  1.9511 -0.2846
 5708TIP3    H238616   5.291   3.814   3.530  0.6986  0.0858  0.8532
 5709TIP3   OH238617   6.397   3.346   4.913 -0.2156 -0.6378  0.7991
 5709TIP3    H138618   6.352   3.386   4.839  1.1870  2.3719  1.4340
 5709TIP3    H238619   6.339   3.359   4.987 -0.8426 -2.0894  0.5958
 5710TIP3   OH238620   0.950   3.270   6.002  0.1105 -0.3709 -0.2510
 5710TIP3    H138621   0.921   3.225   5.923 -1.0480 -0.6029  0.2769
 5710TIP3    H238622   0.873   3.270   6.059  1.0517 -0.6486  1.0735
 5711TIP3   OH238623   0.352   1.997   2.623 -0.2832 -0.1015  0.4997
 5711TIP3    H138624   0.377   2.045   2.544  1.3782 -1.1629  0.3562
 5711TIP3    H238625   0.277   2.047   2.658  0.3774  1.6749 -0.4949
 5712TIP3   OH238626   4.560   3.805   3.451  0.0718  0.3109 -0.3383
 5712TIP3    H138627   4.528   3.721   3.482 -0.1767  0.3458 -0.5022
 5712TIP3    H238628   4.572   3.857   3.531  0.2071  0.1284 -0.2401
 5713TIP3   OH238629   0.200   4.441  16.513 -0.7185  0.2300  0.4090
 5713TIP3    H138630   0.230   4.382  16.444  0.6341  1.9535 -0.5792
 5713TIP3    H238631   0.142   4.388  16.567 -0.0700 -1.7917 -0.7725
 5714TIP3   OH238632   3.441   1.951   2.243 -0.6164 -0.6659  0.1404
 5714TIP3    H138633   3.377   1.972   2.310  0.1382 -0.4460  0.8061
 5714TIP3    H238634   3.447   2.030   2.189 -1.2009 -0.8335 -0.1781
 5715TIP3   OH238635   2.083   2.332  12.663  0.1889 -0.2401 -0.4796
 5715TIP3    H138636   2.121   2.359  12.746  1.5466  0.4151 -1.2702
 5715TIP3    H238637   2.157   2.293  12.615 -0.8686 -1.9088 -0.8534
 5716TIP3   OH238638   0.464   0.710   2.735  0.1113  0.0695 -0.4115
 5716TIP3    H138639   0.534   0.682   2.676 -0.5559 -0.1111 -1.1307
 5716TIP3    H238640   0.419   0.629   2.760  0.7190  0.0738  0.8081
 5717TIP3   OH238641   6.647   4.883   1.443  0.3906 -0.0047 -0.1154
 5717TIP3    H138642   6.594   4.838   1.377 -1.0211  0.4440  0.6750
 5717TIP3    H238643   6.586   4.901   1.515  1.3382  1.5627  0.3465
 5718TIP3   OH238644   0.478   5.245   6.319 -0.4528 -0.7713 -0.0673
 5718TIP3    H138645   0.500   5.189   6.394  1.6054 -0.6120 -0.4779
 5718TIP3    H238646   0.401   5.204   6.280  0.5722 -2.9733  0.0381
 5719TIP3   OH238647   0.669   2.662  12.211  0.2700  0.2881 -0.4136
 5719TIP3    H138648   0.604   2.670  12.280 -0.2020  0.7838 -0.9083
 5719TIP3    H238649   0.617   2.657  12.130  0.8611  2.7932 -1.0305
 5720TIP3   OH238650   1.787   2.569  11.332  0.6841  0.6124  0.2315
 5720TIP3    H138651   1.758   2.480  11.312  1.2536 -0.0397  2.1031
 5720TIP3    H238652   1.766   2.620  11.253 -0.3354 -1.0067 -0.5863
 5721TIP3   OH238653   1.139   2.222   4.283 -0.5665  0.2382  0.1911
 5721TIP3    H138654   1.087   2.293   4.318  1.3582  0.9872  1.7319
 5721TIP3    H238655   1.190   2.262   4.212 -1.4863 -0.3065 -0.8049
 5722TIP3   OH238656   0.762   1.237   2.983 -0.2254 -0.0544 -0.2833
 5722TIP3    H138657   0.732   1.221   2.894  1.1351  0.0423 -0.7721
 5722TIP3    H238658   0.701   1.187   3.038 -0.9054 -0.3407 -1.2755
 5723TIP3   OH238659   3.194   3.590  11.976 -0.0590  0.2076  0.2516
 5723TIP3    H138660   3.261   3.526  11.949 -1.4883 -1.3301  0.1893
 5723TIP3    H238661   3.147   3.546  12.047  0.5935  2.2916  2.1045
 5724TIP3   OH238662   3.311   3.575   1.389  0.1161  0.5136  0.2675
 5724TIP3    H138663   3.399   3.583   1.425  0.9840 -2.1221 -1.0167
 5724TIP3    H238664   3.322   3.588   1.295 -0.9407  0.5291  0.1321
 5725TIP3   OH238665   6.414   3.840  15.896 -0.5296  0.5331 -0.2010
 5725TIP3    H138666   6.325   3.824  15.929  0.1347 -0.3153  1.2921
 5725TIP3    H238667   6.430   3.770  15.833 -0.1342 -0.7164  1.2220
 5726TIP3   OH238668   6.201   0.311  14.696  0.3475  0.0451 -0.1379
 5726TIP3    H138669   6.155   0.352  14.769  1.5543 -0.9704  1.2602
 5726TIP3    H238670   6.134   0.261  14.650 -0.9150  2.5411 -1.1958
 5727TIP3   OH238671   1.990   4.674   0.431  0.6606 -0.6516 -0.4048
 5727TIP3    H138672   2.071   4.625   0.416 -0.4093 -1.7688 -3.2575
 5727TIP3    H238673   2.003   4.757   0.385  0.9564  0.1493  1.0456
 5728TIP3   OH238674   3.768   4.101  12.156  0.2447 -0.4602  0.6849
 5728TIP3    H138675   3.710   4.067  12.088  2.3459 -2.0358 -0.4515
 5728TIP3    H238676   3.810   4.178  12.117 -0.0165 -0.1702  0.9678
 5729TIP3   OH238677   2.701   2.988   4.569  0.3848  0.2108  0.7859
 5729TIP3    H138678   2.758   2.947   4.635  1.3715 -0.3078 -0.3604
 5729TIP3    H238679   2.751   2.983   4.488  0.2036  2.9707  0.4169
 5730TIP3   OH238680   4.049   3.434   1.355  0.1755  0.1120  0.2031
 5730TIP3    H138681   4.039   3.341   1.334  0.6859  0.1549 -0.2491
 5730TIP3    H238682   4.024   3.440   1.447  0.3864 -0.5230  0.3088
 5731TIP3   OH238683   4.014   4.000   5.566 -0.8626  0.0045 -0.2494
 5731TIP3    H138684   3.990   4.093   5.567 -3.9204 -0.6678 -0.5173
 5731TIP3    H238685   4.109   4.000   5.568 -0.7579  3.1290  0.6190
 5732TIP3   OH238686   3.188   5.004   4.876  0.4269 -0.2576 -0.1101
 5732TIP3    H138687   3.255   5.067   4.850 -0.7053  0.9490 -0.1949
 5732TIP3    H238688   3.212   4.979   4.966  0.7240  0.5119  0.0268
 5733TIP3   OH238689   0.977   2.042   2.601  0.2783 -0.3399 -0.2064
 5733TIP3    H138690   1.037   2.116   2.614  0.0406 -0.3173  0.8732
 5733TIP3    H238691   1.034   1.965   2.606  0.0806 -0.4156  2.4133
 5734TIP3   OH238692   3.396   0.418   0.803  0.4828 -0.4343  0.2289
 5734TIP3    H138693   3.408   0.412   0.897  0.5433  0.2463  0.2714
 5734TIP3    H238694   3.484   0.409   0.766  0.6732  0.8831  0.3325
 5735TIP3   OH238695   6.093   2.010   5.066 -0.2925  0.4472  0.0161
 5735TIP3    H138696   6.151   1.958   5.122 -1.1104 -0.6587 -0.1131
 5735TIP3    H238697   6.106   1.974   4.978  0.2942  1.5423 -0.3625
 5736TIP3   OH238698   4.142   3.947  15.836  0.1521 -0.1742 -0.3916
 5736TIP3    H138699   4.099   3.930  15.752 -1.1747 -0.5465  0.3291
 5736TIP3    H238700   4.187   4.030  15.823 -2.3932  1.2707 -0.6687
 5737TIP3   OH238701   4.924   0.864   1.253 -0.1871  0.2612 -0.0475
 5737TIP3    H138702   4.889   0.815   1.179 -0.8036  0.7912 -0.1256
 5737TIP3    H238703   4.917   0.804   1.328  0.8159 -0.4182 -0.4888
 5738TIP3   OH238704   4.034   5.034  11.678 -0.1362  0.6628 -0.4673
 5738TIP3    H138705   4.013   5.088  11.602  1.6546  1.1107 -0.6903
 5738TIP3    H238706   3.952   5.030  11.728 -0.7534  2.2078 -1.2814
 5739TIP3   OH238707   5.611   0.648  12.459  0.0865  0.6904  0.1373
 5739TIP3    H138708   5.700   0.649  12.423 -0.8186  0.6437 -2.2746
 5739TIP3    H238709   5.591   0.740  12.476 -0.0500  0.9218 -1.1452
 5740TIP3   OH238710   4.642   0.132  15.626  0.5355  0.4912  0.1564
 5740TIP3    H138711   4.722   0.088  15.595  0.2216  0.9531 -1.3870
 5740TIP3    H238712   4.648   0.220  15.590 -0.8400  0.4224 -0.2754
 5741TIP3   OH238713   1.779   1.434   1.134 -0.1360 -0.1350 -0.3041
 5741TIP3    H138714   1.800   1.414   1.042 -0.7339  0.4875 -0.5898
 5741TIP3    H238715   1.861   1.419   1.181  0.3355  0.0804 -1.0314
 5742TIP3   OH238716   6.793   1.214  12.365 -0.5907  0.0610 -0.4220
 5742TIP3    H138717   6.785   1.307  12.387 -1.7808 -0.3673  1.1806
 5742TIP3    H238718   6.839   1.213  12.281  0.5023  2.0291  0.0988
 5743TIP3   OH238719   1.036   3.885   2.223  0.0045  0.2159  0.3055
 5743TIP3    H138720   0.979   3.926   2.288  0.7347  1.3559  0.2702
 5743TIP3    H238721   0.978   3.829   2.171 -0.7872  0.1550  1.2303
 5744TIP3   OH238722   2.474   2.940   3.888 -0.9025 -0.0080  0.7056
 5744TIP3    H138723   2.402   2.949   3.826  1.0425  2.7784 -1.4217
 5744TIP3    H238724   2.537   2.883   3.843  0.4395  1.8840  0.0583
 5745TIP3   OH238725   4.965   2.550  16.066  0.2187  0.4159  0.5842
 5745TIP3    H138726   5.052   2.510  16.074 -0.4110 -1.0350  0.3420
 5745TIP3    H238727   4.982   2.634  16.023  1.3162 -0.6729 -1.2618
 5746TIP3   OH238728   6.758   4.742  16.639  0.2307 -0.0968 -0.1935
 5746TIP3    H138729   6.766   4.720  16.731 -0.9164  0.7393  0.1318
 5746TIP3    H238730   6.848   4.753  16.608  0.6518 -1.1622  0.6125
 5747TIP3   OH238731   1.009   4.395  15.388 -0.0880  0.0250 -0.5863
 5747TIP3    H138732   0.977   4.306  15.399 -2.0019  0.3246 -3.0348
 5747TIP3    H238733   1.101   4.385  15.364 -0.4694 -1.3511 -1.5496
 5748TIP3   OH238734   3.624   3.512  15.447 -0.0851  0.2901  0.0794
 5748TIP3    H138735   3.646   3.459  15.524 -1.5240 -1.0934 -0.4164
 5748TIP3    H238736   3.543   3.557  15.471 -0.4734 -0.0526 -0.5552
 5749TIP3   OH238737   2.520   6.218  15.517 -0.1968 -0.4462  0.3090
 5749TIP3    H138738   2.600   6.269  15.505 -0.3352  0.1501  1.7672
 5749TIP3    H238739   2.479   6.218  15.430  1.6120 -1.2206 -0.5987
 5750TIP3   OH238740   3.077   3.197  15.295  0.2557 -0.1886 -0.2410
 5750TIP3    H138741   3.026   3.137  15.348  1.4119 -0.9799  0.0103
 5750TIP3    H238742   3.156   3.213  15.346  0.4574  0.6921 -0.7969
 5751TIP3   OH238743   0.853   5.739   4.887 -0.2453 -0.2880  0.1008
 5751TIP3    H138744   0.763   5.725   4.916 -0.1994 -2.2446 -0.5585
 5751TIP3    H238745   0.861   5.686   4.808  0.6799  2.0589 -1.5157
 5752TIP3   OH238746   1.968   2.089  11.572 -0.0208 -0.1024 -0.0528
 5752TIP3    H138747   1.996   2.159  11.514  1.0837 -0.9182 -0.5487
 5752TIP3    H238748   1.990   2.008  11.525 -0.0055 -0.7852  1.0837
 5753TIP3   OH238749   0.766   3.233  16.157  0.1435 -0.2928 -0.1452
 5753TIP3    H138750   0.802   3.319  16.136 -1.7537 -0.0232 -2.6834
 5753TIP3    H238751   0.682   3.252  16.199 -2.0117 -0.7203 -3.8880
 5754TIP3   OH238752   2.703   6.067  13.362 -0.1546  0.0719  0.8332
 5754TIP3    H138753   2.787   6.096  13.396 -0.6268  2.4601  0.1940
 5754TIP3    H238754   2.709   6.082  13.267 -1.5781  1.2345  0.8827
 5755TIP3   OH238755   3.550   5.053  15.857  0.6326  0.4375  0.2262
 5755TIP3    H138756   3.558   5.049  15.952  0.7699  1.3171  0.2660
 5755TIP3    H238757   3.527   5.144  15.839 -3.3107 -0.4699 -0.3386
 5756TIP3   OH238758   6.021   3.556   4.879  0.3414  0.6850  0.1908
 5756TIP3    H138759   6.098   3.576   4.826  0.4951  1.6485  0.7500
 5756TIP3    H238760   6.014   3.630   4.940 -1.7099  1.1982 -0.6106
 5757TIP3   OH238761   4.560   6.278  16.897  0.3431 -0.0886  0.6024
 5757TIP3    H138762   4.641   6.282  16.846  0.4359 -0.1628  0.7452
 5757TIP3    H238763   4.506   6.348  16.860  0.7375  0.4130  0.9714
 5758TIP3   OH238764   1.686   4.201  16.766 -0.7455 -0.2530 -0.1384
 5758TIP3    H138765   1.710   4.115  16.800  1.2604 -0.0114 -0.8249
 5758TIP3    H238766   1.633   4.182  16.689  1.2658 -0.9644 -1.4166
 5759TIP3   OH238767   0.666   3.564  11.946 -0.3854 -0.6255  0.0282
 5759TIP3    H138768   0.704   3.542  11.861  0.9576  0.9149  0.2016
 5759TIP3    H238769   0.690   3.490  12.003  0.4485 -0.7076 -0.4249
 5760TIP3   OH238770   0.585   3.243   5.397 -0.3128  0.2661  0.2103
 5760TIP3    H138771   0.636   3.323   5.409  0.1832 -0.2735  1.9176
 5760TIP3    H238772   0.650   3.173   5.395 -0.7311 -0.1202 -1.4159
 5761TIP3   OH238773   4.555   0.545   5.181 -0.1686 -0.3676  0.3693
 5761TIP3    H138774   4.474   0.505   5.147 -0.4566  0.6232 -0.1626
 5761TIP3    H238775   4.535   0.638   5.185  0.7445 -0.1827  0.8633
 5762TIP3   OH238776   2.030   4.633   5.800  0.0107 -0.5018 -0.3485
 5762TIP3    H138777   2.121   4.661   5.787 -0.3498  1.4023  0.8516
 5762TIP3    H238778   1.979   4.695   5.749 -0.6592 -1.4611 -0.8723
 5763TIP3   OH238779   0.870   5.935   1.217 -0.3598  0.3010 -0.4258
 5763TIP3    H138780   0.831   5.973   1.295  0.2580  0.3116 -0.1168
 5763TIP3    H238781   0.951   5.893   1.248 -0.1357  0.2572 -1.0439
 5764TIP3   OH238782   3.023   0.887  12.886 -0.1285  0.5631 -0.3111
 5764TIP3    H138783   2.948   0.925  12.841  1.1164  1.1499 -1.9881
 5764TIP3    H238784   3.065   0.961  12.930 -0.9428  0.1069  1.2827
 5765TIP3   OH238785   2.703   4.067  16.862  0.0649  0.2447  0.0982
 5765TIP3    H138786   2.746   4.153  16.868 -0.2993  0.3847  0.7488
 5765TIP3    H238787   2.612   4.087  16.840 -0.0734  0.0405  0.4769
 5766TIP3   OH238788   2.254   1.999   5.029 -0.6557  0.3742 -0.3492
 5766TIP3    H138789   2.166   2.012   4.993 -1.2723  0.8982  1.2681
 5766TIP3    H238790   2.268   2.074   5.086  0.1729 -0.5389  0.6961
 5767TIP3   OH238791   6.444   5.301   5.560 -0.4764  0.0069  0.5379
 5767TIP3    H138792   6.457   5.211   5.589  4.5891  0.0875 -0.4560
 5767TIP3    H238793   6.416   5.348   5.638 -1.2237 -2.0771  1.5785
 5768TIP3   OH238794   4.007   0.381   4.920  0.4236 -0.3232 -0.0741
 5768TIP3    H138795   3.933   0.343   4.967 -2.3695  0.5983 -3.3180
 5768TIP3    H238796   4.051   0.307   4.880  1.1815 -0.8606  1.6635
 5769TIP3   OH238797   4.517   6.731   0.371  0.2632 -0.0675  0.1851
 5769TIP3    H138798   4.456   6.705   0.301 -0.6383  0.8204  0.6263
 5769TIP3    H238799   4.574   6.655   0.381 -1.1403 -1.1768  0.1691
 5770TIP3   OH238800   5.272   1.434   5.588 -0.1335 -0.4537  0.7094
 5770TIP3    H138801   5.201   1.425   5.525  0.4097  0.6546 -0.1076
 5770TIP3    H238802   5.264   1.358   5.645 -0.6241 -1.5256 -0.7307
 5771TIP3   OH238803   6.693   5.078  16.784 -0.1517  0.1137  0.2773
 5771TIP3    H138804   6.657   5.055  16.870 -0.8826 -1.1970 -0.3570
 5771TIP3    H238805   6.739   5.160  16.799  0.5920 -0.5794  2.1646
 5772TIP3   OH238806   6.674   0.644  13.107  0.0369 -0.3096  0.0969
 5772TIP3    H138807   6.640   0.710  13.169 -2.1312 -0.4523 -0.8413
 5772TIP3    H238808   6.767   0.663  13.100 -0.0163  0.8960  1.9648
 5773TIP3   OH238809   6.236   2.601   5.971  0.1029 -0.5981  0.0454
 5773TIP3    H138810   6.322   2.599   5.930 -0.1675 -0.9906 -0.5052
 5773TIP3    H238811   6.254   2.584   6.064  0.8799  1.7917  0.4205
 5774TIP3   OH238812   1.917   1.367   4.885  0.0344  0.3103 -0.4754
 5774TIP3    H138813   2.007   1.398   4.891  0.3416 -0.2418 -1.9041
 5774TIP3    H238814   1.880   1.415   4.811 -1.3374  1.6348  0.9869
 5775TIP3   OH238815   6.366   3.449   2.721  0.0465 -0.2049  0.3807
 5775TIP3    H138816   6.358   3.359   2.753  0.2949  0.1863  1.6143
 5775TIP3    H238817   6.275   3.477   2.708 -0.0108 -1.1664 -1.6975
 5776TIP3   OH238818   2.971   2.583   3.083 -0.2878  0.0620  0.6326
 5776TIP3    H138819   3.057   2.584   3.039  0.8730  1.6858  2.7899
 5776TIP3    H238820   2.910   2.611   3.015  1.0538  0.0394 -0.6495
 5777TIP3   OH238821   4.607   3.176  11.797 -0.3045  0.1220  0.2858
 5777TIP3    H138822   4.604   3.092  11.842  1.4844 -0.7454 -1.1017
 5777TIP3    H238823   4.557   3.163  11.717  1.0942 -0.0765 -0.5818
 5778TIP3   OH238824   4.203   3.181  13.599 -0.3098 -0.1217  0.2839
 5778TIP3    H138825   4.249   3.162  13.680 -1.8607  0.2138  1.2874
 5778TIP3    H238826   4.144   3.107  13.586 -2.3943  1.2245  1.2716
 5779TIP3   OH238827   3.173   1.688  16.483 -0.4977 -0.4030 -0.1248
 5779TIP3    H138828   3.149   1.672  16.392  2.2846  0.9526 -1.1905
 5779TIP3    H238829   3.217   1.608  16.511 -0.9767 -0.6569 -0.0800
 5780TIP3   OH238830   4.191   0.505  12.040 -0.2745 -0.4044 -0.5452
 5780TIP3    H138831   4.253   0.555  11.986 -1.0306 -0.0484 -1.0992
 5780TIP3    H238832   4.142   0.452  11.977 -0.7654 -0.4324 -0.1408
 5781TIP3   OH238833   5.588   2.441   4.588  0.5333  0.6387  0.4761
 5781TIP3    H138834   5.585   2.384   4.666  1.5576 -1.4512 -0.8995
 5781TIP3    H238835   5.496   2.454   4.564  0.2530 -1.1875  0.3847
 5782TIP3   OH238836   5.025   3.148   3.797  0.7317 -0.9577  0.6562
 5782TIP3    H138837   5.054   3.125   3.885 -1.8049  0.1697  1.9271
 5782TIP3    H238838   5.018   3.244   3.799 -1.9629 -1.0555  0.2501
 5783TIP3   OH238839   5.992   4.959   5.618 -0.0618 -0.6480 -0.1361
 5783TIP3    H138840   5.995   4.914   5.534 -0.7261  1.8675 -1.6362
 5783TIP3    H238841   5.962   5.047   5.597 -0.8048 -0.0600  2.8409
 5784TIP3   OH238842   6.704   6.032   5.045  0.2170  0.0320  0.0414
 5784TIP3    H138843   6.643   6.104   5.025 -1.1171 -1.0243  0.1392
 5784TIP3    H238844   6.789   6.063   5.014 -0.7385  0.7157 -2.0388
 5785TIP3   OH238845   2.900   3.049  14.434 -0.5346  0.2891  0.0360
 5785TIP3    H138846   2.941   3.135  14.442 -0.7936  0.4463 -0.2982
 5785TIP3    H238847   2.935   3.013  14.352 -0.0420 -0.1331  0.4297
 5786TIP3   OH238848   1.116   6.692  16.868 -0.1893  0.4140 -0.8304
 5786TIP3    H138849   1.105   6.738  16.951  1.1446  0.1415 -0.4659
 5786TIP3    H238850   1.029   6.659  16.846 -0.4339 -0.1791  0.8768
 5787TIP3   OH238851   2.668   1.164  14.494 -0.6105 -0.2701  0.8258
 5787TIP3    H138852   2.604   1.226  14.528 -1.2796  0.3720 -1.4607
 5787TIP3    H238853   2.657   1.167  14.399  0.3025 -2.8817  0.5515
 5788TIP3   OH238854   5.410   5.349  11.569  0.2132  0.7226 -0.0627
 5788TIP3    H138855   5.362   5.266  11.564  0.1941  0.7273  0.0444
 5788TIP3    H238856   5.350   5.414  11.532  0.6892  0.4935 -1.2878
 5789TIP3   OH238857   3.850   3.907  15.375  0.3444  0.6155 -0.1910
 5789TIP3    H138858   3.787   3.860  15.431  0.3110  1.1122  0.1941
 5789TIP3    H238859   3.926   3.920  15.431  0.8448 -0.0655 -0.6841
 5790TIP3   OH238860   5.746   0.260  14.190 -0.1344  0.6907  0.5131
 5790TIP3    H138861   5.822   0.304  14.151  1.5275 -0.3579  2.3905
 5790TIP3    H238862   5.736   0.180  14.139  1.2256 -0.0577  1.3619
 5791TIP3   OH238863   0.709   3.113   1.020 -0.1902  0.1293 -0.1382
 5791TIP3    H138864   0.782   3.073   1.067 -2.7765 -4.9792  0.2851
 5791TIP3    H238865   0.731   3.104   0.927  0.3308  0.0227 -0.0032
 5792TIP3   OH238866   2.631   3.026   4.172 -1.2376 -0.3693  0.2150
 5792TIP3    H138867   2.680   3.041   4.092  0.4647 -1.7172  0.9269
 5792TIP3    H238868   2.553   2.978   4.145 -1.2584  0.2014 -0.7480
 5793TIP3   OH238869   5.026   6.785  14.535  0.2219  0.2192 -0.4492
 5793TIP3    H138870   5.037   6.879  14.528 -0.4547  0.3493  0.1393
 5793TIP3    H238871   4.933   6.772  14.554  0.6418 -0.4440  1.3836
 5794TIP3   OH238872   4.680   4.498  12.076 -0.4689  0.3441  0.3450
 5794TIP3    H138873   4.598   4.500  12.027 -0.0374 -0.5728 -0.4377
 5794TIP3    H238874   4.713   4.410  12.065  1.1991  1.0175 -0.3230
 5795TIP3   OH238875   6.632   4.611   4.150 -0.4848  0.3415  0.0462
 5795TIP3    H138876   6.704   4.632   4.209 -0.3130  1.5317 -0.5474
 5795TIP3    H238877   6.557   4.599   4.207 -0.0517  0.2255  0.5972
 5796TIP3   OH238878   4.289   0.618   1.140 -0.7630 -0.0496 -0.1850
 5796TIP3    H138879   4.209   0.612   1.193 -2.0910 -0.6518 -2.1259
 5796TIP3    H238880   4.317   0.709   1.150 -1.3570  0.0356  0.9730
 5797TIP3   OH238881   1.925   6.824  11.861 -0.2580 -0.2391  0.3349
 5797TIP3    H138882   1.905   6.820  11.767 -0.3537 -0.0893  0.3478
 5797TIP3    H238883   1.969   6.907  11.873 -0.7326 -0.0065  0.5106
 5798TIP3   OH238884   6.230   2.698  13.758 -0.7943  0.4950 -0.1823
 5798TIP3    H138885   6.197   2.727  13.673 -2.8991 -1.0971  0.0126
 5798TIP3    H238886   6.320   2.669  13.740 -1.7955 -1.5827 -2.3102
 5799TIP3   OH238887   6.087   0.090   3.476  0.9716 -0.4318  0.6754
 5799TIP3    H138888   6.124   0.173   3.446  1.7309 -0.4717  1.4542
 5799TIP3    H238889   6.131   0.023   3.424  0.0213 -0.3409 -0.2827
 5800TIP3   OH238890   4.214   4.034  16.819 -0.3892 -0.0285 -0.3863
 5800TIP3    H138891   4.171   4.086  16.887 -0.7916 -1.7655  0.7517
 5800TIP3    H238892   4.240   3.954  16.864  1.4663 -0.2402 -1.7534
 5801TIP3   OH238893   4.240   0.787   3.934 -1.0587  0.8244  0.4207
 5801TIP3    H138894   4.319   0.755   3.889 -2.0470  0.9536 -1.4822
 5801TIP3    H238895   4.272   0.858   3.990  0.8556 -1.8501  3.1098
 5802TIP3   OH238896   1.600   1.719  16.066  0.1641  0.4002 -0.2369
 5802TIP3    H138897   1.687   1.684  16.084 -0.3995 -0.4126  1.0826
 5802TIP3    H238898   1.557   1.722  16.151 -0.9955  1.0853 -0.8176
 5803TIP3   OH238899   6.369   3.748   0.628  0.1798  0.2941 -0.6864
 5803TIP3    H138900   6.354   3.767   0.720 -3.4150 -0.7031 -0.9342
 5803TIP3    H238901   6.388   3.834   0.589  0.5861  0.8903  0.7433
 5804TIP3   OH238902   2.229   1.224  14.499  0.2892  0.3148 -0.5991
 5804TIP3    H138903   2.298   1.193  14.440  0.0751  0.4878 -0.9454
 5804TIP3    H238904   2.274   1.245  14.580  0.3241 -1.7922 -0.0125
 5805TIP3   OH238905   1.903   2.526   5.177  0.4251 -0.0580 -0.4186
 5805TIP3    H138906   1.889   2.610   5.135 -2.2254 -0.9332 -1.5141
 5805TIP3    H238907   1.882   2.541   5.269 -0.8316  0.3163 -0.7548
 5806TIP3   OH238908   3.828   1.832   3.679  0.4817  0.3779 -0.3525
 5806TIP3    H138909   3.881   1.846   3.758 -0.9383  0.4880  0.6224
 5806TIP3    H238910   3.768   1.761   3.703 -0.1630  0.6080 -1.2357
 5807TIP3   OH238911   4.495   3.613   0.994 -0.1230  0.1476  0.4561
 5807TIP3    H138912   4.475   3.698   1.033  0.4143 -0.1874  1.5058
 5807TIP3    H238913   4.409   3.573   0.979 -0.3451  0.3639  1.1242
 5808TIP3   OH238914   1.908   4.777  16.296 -0.2512 -0.2731  0.3058
 5808TIP3    H138915   1.816   4.752  16.304 -0.5930  1.2742  1.6164
 5808TIP3    H238916   1.947   4.751  16.379  0.5478 -1.0240 -0.2852
 5809TIP3   OH238917   5.324   0.700  12.588  0.5870  0.2010 -0.4021
 5809TIP3    H138918   5.338   0.628  12.526  1.1410 -1.2509  1.3068
 5809TIP3    H238919   5.410   0.740  12.598  0.7658 -0.3322  0.2870
 5810TIP3   OH238920   5.333   3.690  13.202 -0.4025 -0.2770 -0.0453
 5810TIP3    H138921   5.306   3.607  13.162 -0.0605 -1.1599  1.4704
 5810TIP3    H238922   5.367   3.665  13.288 -2.0845  1.6100  1.2822
 5811TIP3   OH238923   0.295   5.691  12.286 -0.3411 -0.1063  0.0437
 5811TIP3    H138924   0.293   5.639  12.366  0.1033 -1.1455 -0.5955
 5811TIP3    H238925   0.388   5.708  12.270 -0.4394  0.3012 -0.1308
 5812TIP3   OH238926   5.372   4.164  15.201 -0.4745  0.0868 -0.3757
 5812TIP3    H138927   5.413   4.225  15.262 -0.5355 -1.8023  1.6733
 5812TIP3    H238928   5.443   4.104  15.176 -0.6724  0.2856 -1.4617
 5813TIP3   OH238929   0.145   1.036  16.819 -0.0020  0.0378  0.4099
 5813TIP3    H138930   0.212   1.063  16.756 -0.3542  1.3539  0.5737
 5813TIP3    H238931   0.169   1.079  16.900 -1.3814  1.0969  0.3116
 5814TIP3   OH238932   0.260   1.479  16.041 -0.0278 -0.2225 -0.2333
 5814TIP3    H138933   0.276   1.570  16.016 -0.6086  0.0376  0.3132
 5814TIP3    H238934   0.229   1.484  16.132  3.2650 -1.2183  1.1068
 5815TIP3   OH238935   6.292   1.600   3.454 -0.6970  0.1876  0.7528
 5815TIP3    H138936   6.361   1.536   3.437 -1.5745 -0.6805  0.3808
 5815TIP3    H238937   6.335   1.667   3.508  0.1154 -0.9522  1.5867
 5816TIP3   OH238938   4.888   1.062  15.314 -0.1887 -0.1460 -0.1379
 5816TIP3    H138939   4.852   1.032  15.231 -2.1594 -0.6739  0.8467
 5816TIP3    H238940   4.932   1.144  15.294 -0.4497 -0.3734 -1.7141
 5817TIP3   OH238941   1.870   2.149   1.162  0.3424  0.0556  0.0933
 5817TIP3    H138942   1.932   2.194   1.218  0.7428 -1.7610  1.2049
 5817TIP3    H238943   1.878   2.056   1.187  1.7635 -1.1493 -4.0809
 5818TIP3   OH238944   4.444   2.833  15.850 -0.3710  0.5699  0.0922
 5818TIP3    H138945   4.364   2.869  15.814 -1.3828 -0.1728  1.5017
 5818TIP3    H238946   4.429   2.739  15.855  0.3875  0.4714  0.8137
 5819TIP3   OH238947   4.177   5.881   1.732 -0.6029  0.0382  0.0181
 5819TIP3    H138948   4.115   5.941   1.690 -1.3332 -1.0683 -0.5372
 5819TIP3    H238949   4.216   5.832   1.660 -0.3203 -0.4440  0.4887
 5820TIP3   OH238950   3.026   1.587   5.410 -0.2174 -0.5355 -0.5708
 5820TIP3    H138951   3.015   1.628   5.324 -1.3325 -2.4553 -1.4070
 5820TIP3    H238952   2.938   1.558   5.434  0.3915 -1.7849  0.2650
 5821TIP3   OH238953   6.192   5.140  11.788 -0.3183  0.3309  0.5866
 5821TIP3    H138954   6.161   5.065  11.839 -0.6535  0.5465  0.7019
 5821TIP3    H238955   6.268   5.107  11.740  1.8735  0.8390  3.4118
 5822TIP3   OH238956   3.011   5.093   2.550  0.0517 -0.2963  0.0508
 5822TIP3    H138957   3.071   5.165   2.527 -1.3631  0.4111 -1.7035
 5822TIP3    H238958   3.067   5.027   2.590  2.0508  0.2447 -1.6676
 5823TIP3   OH238959   3.647   1.174  17.179 -0.4277  0.2348 -0.5856
 5823TIP3    H138960   3.568   1.121  17.168 -1.3779  1.5567 -0.4932
 5823TIP3    H238961   3.643   1.206  17.269  1.1268 -1.0108 -0.0201
 5824TIP3   OH238962   1.145   2.906  16.941  0.5196  0.5967 -0.7956
 5824TIP3    H138963   1.102   2.938  16.862 -1.8392 -0.1293  0.1135
 5824TIP3    H238964   1.176   2.819  16.917  0.4074  0.6396 -1.1107
 5825TIP3   OH238965   0.068   4.360   1.036  0.3997  0.0631 -0.0287
 5825TIP3    H138966   0.016   4.279   1.035  0.5677 -0.0991 -2.6332
 5825TIP3    H238967   0.133   4.346   1.105  1.0432 -2.4571 -1.0426
 5826TIP3   OH238968   4.691   5.055  12.193  0.0868  0.1193  0.2942
 5826TIP3    H138969   4.758   5.116  12.164 -0.3868 -0.0944 -1.3475
 5826TIP3    H238970   4.610   5.106  12.194 -0.3952 -0.5313 -1.5312
 5827TIP3   OH238971   2.723   4.151  12.396 -0.0984 -0.2846 -0.4223
 5827TIP3    H138972   2.779   4.216  12.353  1.6735  0.4471  2.6549
 5827TIP3    H238973   2.681   4.198  12.468  1.4606 -2.4286  2.0999
 5828TIP3   OH238974   1.626   6.630  15.208  0.0600  0.3109  0.1530
 5828TIP3    H138975   1.611   6.619  15.114 -0.9889 -0.4844  0.3952
 5828TIP3    H238976   1.713   6.670  15.214  0.1584  0.3322 -1.1492
 5829TIP3   OH238977   0.979   3.964   5.265  0.3211 -0.0929  0.3571
 5829TIP3    H138978   0.898   3.972   5.216  0.4273 -1.3216 -0.0458
 5829TIP3    H238979   1.025   4.046   5.250 -1.1505  0.9205  1.1847
 5830TIP3   OH238980   6.140   1.835  16.277  0.0712  0.8867 -0.2946
 5830TIP3    H138981   6.058   1.791  16.299  0.1377  0.0965 -1.5297
 5830TIP3    H238982   6.184   1.847  16.361 -1.1106  0.9457  0.3457
 5831TIP3   OH238983   6.761   5.923  12.966 -0.0859  0.0275 -0.4256
 5831TIP3    H138984   6.732   5.890  13.051 -1.4888  0.1471 -0.8271
 5831TIP3    H238985   6.834   5.982  12.986 -0.1452 -0.2483  0.6541
 5832TIP3   OH238986   4.709   2.438  12.693  0.0406 -0.4444 -0.0061
 5832TIP3    H138987   4.762   2.373  12.648 -0.0551  0.6282 -1.7908
 5832TIP3    H238988   4.648   2.469  12.626  1.6327  3.1739 -0.0161
 5833TIP3   OH238989   0.926   2.775  13.447  0.2175  0.1157  0.7325
 5833TIP3    H138990   0.959   2.823  13.371  1.7641 -0.2111  1.1646
 5833TIP3    H238991   0.916   2.685  13.416  3.1958 -0.5804  1.4584
 5834TIP3   OH238992   4.183   3.904   2.151 -0.1642 -0.7617 -0.0912
 5834TIP3    H138993   4.216   3.814   2.148  1.8367 -0.0975  0.1258
 5834TIP3    H238994   4.163   3.925   2.060 -1.4887 -1.6844 -0.0385
 5835TIP3   OH238995   4.153   6.170   5.378  0.2604  0.0183  0.1378
 5835TIP3    H138996   4.071   6.123   5.394  1.2956 -1.1604  2.4669
 5835TIP3    H238997   4.210   6.145   5.451  3.1469 -0.1518 -1.9918
 5836TIP3   OH238998   4.898   4.137  14.884  0.1108  0.0497 -0.1901
 5836TIP3    H138999   4.897   4.149  14.789  0.9799 -1.6903 -0.4559
 5836TIP3    H239000   4.807   4.121  14.907  0.0401 -0.6428 -0.9087
 5837TIP3   OH239001   4.703   2.246  16.185  0.5456 -0.0607 -0.5003
 5837TIP3    H139002   4.664   2.159  16.194  1.8304 -0.5232  1.4693
 5837TIP3    H239003   4.673   2.293  16.263  0.9329  0.7993 -0.8618
 5838TIP3   OH239004   3.222   6.789  15.702 -0.6375  0.2400 -0.4200
 5838TIP3    H139005   3.219   6.851  15.775  0.6186 -1.3270  1.0535
 5838TIP3    H239006   3.218   6.844  15.624 -3.6563  1.9194  0.7343
 5839TIP3   OH239007   3.187   0.879  16.831 -0.3101  0.6279 -0.0779
 5839TIP3    H139008   3.176   0.947  16.764 -1.4911  0.7497  0.2041
 5839TIP3    H239009   3.122   0.812  16.807 -0.4525  0.4786  0.7001
 5840TIP3   OH239010   6.502   3.921  16.744  0.5877  0.2585 -0.5747
 5840TIP3    H139011   6.407   3.908  16.754  0.6857 -0.4291 -0.4896
 5840TIP3    H239012   6.538   3.832  16.743  1.1213  0.4787 -1.7561
 5841TIP3   OH239013   5.290   4.002  11.147 -0.6044  0.3449  0.4748
 5841TIP3    H139014   5.200   3.992  11.115  0.1650 -1.1141 -1.4480
 5841TIP3    H239015   5.289   3.961  11.233 -1.5476 -0.8128 -0.0470
 5842TIP3   OH239016   5.145   2.010   0.402  0.3747  0.1664 -0.9838
 5842TIP3    H139017   5.124   2.055   0.320  2.8012 -0.0457 -1.8034
 5842TIP3    H239018   5.093   1.930   0.399  0.0905  0.3743 -2.0916
 5843TIP3   OH239019   3.158   1.566   1.679  0.3236 -0.1344  0.0541
 5843TIP3    H139020   3.229   1.627   1.698  1.0184 -1.3880  1.7131
 5843TIP3    H239021   3.185   1.524   1.597 -0.3701  1.9779 -1.3576
 5844TIP3   OH239022   0.779   2.659   3.964  0.0342  0.5035  0.2451
 5844TIP3    H139023   0.696   2.696   3.993  0.8069  0.8874  2.0942
 5844TIP3    H239024   0.754   2.580   3.915 -1.5058  2.0787 -1.6873
 5845TIP3   OH239025   4.653   5.131  13.749 -0.2252 -0.3513  0.4837
 5845TIP3    H139026   4.591   5.168  13.686  1.0615  0.4871 -0.3194
 5845TIP3    H239027   4.701   5.065  13.700 -0.4465 -0.9855  1.1021
 5846TIP3   OH239028   2.924   2.005  13.875  0.6321 -0.5916 -0.3064
 5846TIP3    H139029   2.924   2.094  13.910 -1.6450 -1.0632  1.0252
 5846TIP3    H239030   2.884   2.013  13.788 -1.6442 -0.5704  0.6949
 5847TIP3   OH239031   6.756   6.025  15.835  0.2935  0.1548 -0.4114
 5847TIP3    H139032   6.769   6.038  15.741 -3.4799  1.0348 -0.9734
 5847TIP3    H239033   6.743   6.113  15.870 -0.4137 -0.3015  0.5283
 5848TIP3   OH239034   5.878   2.960  13.078 -0.4228 -0.1778 -0.1000
 5848TIP3    H139035   5.922   3.043  13.097  0.7896 -0.9159  0.5031
 5848TIP3    H239036   5.813   2.951  13.148  0.5341 -0.4627  0.7791
 5849TIP3   OH239037   1.043   3.532   2.177  0.0105 -0.3806  0.4676
 5849TIP3    H139038   1.041   3.601   2.112  0.5660  0.0494  0.8982
 5849TIP3    H239039   0.952   3.526   2.209  0.1046  0.6712  0.9630
 5850TIP3   OH239040   5.629   1.801  14.245  0.3322 -0.1009 -0.7074
 5850TIP3    H139041   5.721   1.782  14.228  1.1844  1.6913  1.4120
 5850TIP3    H239042   5.617   1.891  14.217 -1.1321 -0.6398 -1.9733
 5851TIP3   OH239043   3.503   4.569  12.245 -0.2275  0.1840 -0.4608
 5851TIP3    H139044   3.529   4.642  12.189 -0.6891  2.8358  2.4880
 5851TIP3    H239045   3.408   4.576  12.251 -0.3002 -0.7984 -0.2782
 5852TIP3   OH239046   3.499   1.670   1.130 -0.3654 -0.6743 -0.0046
 5852TIP3    H139047   3.489   1.582   1.093  0.0950  0.0507 -1.9858
 5852TIP3    H239048   3.459   1.728   1.066  1.8244  0.7916 -0.1680
 5853TIP3   OH239049   0.784   0.402  13.113 -0.1813  0.2195  0.6478
 5853TIP3    H139050   0.690   0.393  13.098 -0.1023 -0.7377  0.6447
 5853TIP3    H239051   0.800   0.496  13.107 -0.8171  0.2405 -1.2405
 5854TIP3   OH239052   2.858   5.909   1.758  0.1952  0.7524 -0.7261
 5854TIP3    H139053   2.920   5.890   1.688 -0.7558  2.3106 -2.0519
 5854TIP3    H239054   2.844   6.004   1.753  0.7405  1.0974  2.1342
 5855TIP3   OH239055   6.209   0.350   3.449  0.4108  0.2670  0.1329
 5855TIP3    H139056   6.255   0.432   3.429 -2.0114  1.5583 -0.4669
 5855TIP3    H239057   6.131   0.351   3.394 -2.1154 -0.1870  3.3765
 5856TIP3   OH239058   1.526   3.366  12.904 -0.5303 -0.0356 -1.0429
 5856TIP3    H139059   1.528   3.432  12.973 -0.7097 -0.6885 -0.3977
 5856TIP3    H239060   1.618   3.349  12.884 -0.4502 -0.5013 -0.3147
 5857TIP3   OH239061   6.349   6.427   1.422 -0.7083 -0.6781  0.2195
 5857TIP3    H139062   6.273   6.420   1.479 -0.8466  1.4101  0.3476
 5857TIP3    H239063   6.383   6.338   1.418 -1.8106 -1.2399  1.9991
 5858TIP3   OH239064   4.823   1.854   5.813  0.4677 -0.0736 -0.2553
 5858TIP3    H139065   4.812   1.940   5.774 -1.2765  0.7004  1.7457
 5858TIP3    H239066   4.917   1.837   5.809  0.7791  1.6775 -1.1258
 5859TIP3   OH239067   3.516   2.522  13.553  0.4544  0.2662 -0.5801
 5859TIP3    H139068   3.449   2.586  13.578  1.1028  0.9018 -0.4367
 5859TIP3    H239069   3.492   2.443  13.601  0.3873  0.7892  0.2789
 5860TIP3   OH239070   5.919   6.158   4.803 -0.9408 -0.4150 -0.4958
 5860TIP3    H139071   5.926   6.087   4.739  0.4177 -1.5727  0.8548
 5860TIP3    H239072   5.849   6.214   4.769 -1.3155 -1.7997 -2.1706
 5861TIP3   OH239073   1.739   0.170  16.825  0.0915 -0.1536  0.1193
 5861TIP3    H139074   1.755   0.077  16.815  1.4510  0.2094 -1.4025
 5861TIP3    H239075   1.687   0.194  16.749 -0.5892  0.2718  0.7055
 5862TIP3   OH239076   1.140   3.347   6.347  0.2499 -0.0598  0.3417
 5862TIP3    H139077   1.194   3.320   6.273 -0.4885  0.5880 -0.4515
 5862TIP3    H239078   1.203   3.377   6.413  0.8946 -0.2023 -0.1962
 5863TIP3   OH239079   6.376   4.929   0.506 -0.5726  0.7613  0.1597
 5863TIP3    H139080   6.335   4.942   0.420  0.1104 -0.7533 -0.4399
 5863TIP3    H239081   6.318   4.868   0.551  0.1848 -0.2020 -0.1173
 5864TIP3   OH239082   0.092   3.362   5.418 -0.1644  0.2095 -0.2410
 5864TIP3    H139083   0.162   3.368   5.484  0.1046 -1.6392 -0.3106
 5864TIP3    H239084   0.108   3.436   5.360 -0.3340  1.8355  1.6627
 5865TIP3   OH239085   2.825   2.919  12.389 -0.5668  0.3461 -0.6940
 5865TIP3    H139086   2.852   2.994  12.441 -3.0350  1.6186 -1.0898
 5865TIP3    H239087   2.736   2.940  12.360 -1.0406 -2.3573 -1.5558
 5866TIP3   OH239088   6.625   6.076   1.522 -0.3266  0.7117 -0.1965
 5866TIP3    H139089   6.669   6.025   1.453 -1.5751 -0.0938 -0.4300
 5866TIP3    H239090   6.586   6.010   1.579  0.7862  1.3590  1.3954
 5867TIP3   OH239091   3.081   4.242  12.517 -0.0660 -0.2274 -0.3496
 5867TIP3    H139092   3.147   4.267  12.582  0.4314  1.2080 -1.3567
 5867TIP3    H239093   2.998   4.254  12.563  0.3253 -1.6986  0.8132
 5868TIP3   OH239094   4.427   6.271   2.574 -0.3099  0.3222 -0.2804
 5868TIP3    H139095   4.404   6.321   2.652  0.7016  0.5411 -0.1062
 5868TIP3    H239096   4.515   6.237   2.593 -1.4601 -2.6803  0.2078
 5869TIP3   OH239097   2.717   3.137  16.520  0.4575  0.2164 -0.2020
 5869TIP3    H139098   2.743   3.211  16.464 -0.3615 -0.2484 -1.2307
 5869TIP3    H239099   2.682   3.073  16.459  1.8000 -1.3334  0.5880
 5870TIP3   OH239100   4.010   3.717  16.924  0.1168 -0.1985  0.1888
 5870TIP3    H139101   4.008   3.622  16.910  0.1625  0.1685 -2.9686
 5870TIP3    H239102   3.918   3.742  16.929  0.0998 -0.3719  0.7897
 5871TIP3   OH239103   0.466   5.594   4.771  0.5298  0.2002  0.0515
 5871TIP3    H139104   0.441   5.608   4.680 -0.6789  0.9525  0.4760
 5871TIP3    H239105   0.508   5.676   4.798  1.6646 -0.3208 -0.0504
 5872TIP3   OH239106   6.316   2.577  12.697 -0.3133  0.3284  0.4709
 5872TIP3    H139107   6.321   2.597  12.604 -0.0871  2.9132  0.9747
 5872TIP3    H239108   6.318   2.481  12.701 -2.7420  0.0285 -2.2867
 5873TIP3   OH239109   1.421   1.756   3.481 -0.0741 -0.0153  0.4230
 5873TIP3    H139110   1.508   1.738   3.516  0.1341  1.3062  0.6177
 5873TIP3    H239111   1.401   1.845   3.511 -1.4499 -0.2681  0.2959
 5874TIP3   OH239112   6.007   5.060  13.337 -0.5040  0.1178 -0.2731
 5874TIP3    H139113   6.037   4.977  13.301 -1.2744  0.4320 -1.7172
 5874TIP3    H239114   5.927   5.080  13.288 -0.3673  1.6628  0.0896
 5875TIP3   OH239115   3.923   2.261   5.647 -0.3235 -0.2460  0.8449
 5875TIP3    H139116   4.009   2.299   5.661 -0.7362  1.5021 -0.8854
 5875TIP3    H239117   3.916   2.251   5.552 -2.1546 -0.0058  0.9144
 5876TIP3   OH239118   6.048   3.830   1.395  0.6875  0.2966  0.0893
 5876TIP3    H139119   6.016   3.915   1.365 -0.3161  0.4529  1.4731
 5876TIP3    H239120   6.136   3.823   1.359  0.7006  1.8304 -0.2377
 5877TIP3   OH239121   5.709   2.324  12.808 -0.0994 -0.2961 -0.1874
 5877TIP3    H139122   5.622   2.357  12.787  0.3386  2.0917  1.4070
 5877TIP3    H239123   5.769   2.392  12.777  1.2760 -1.9692 -1.4158
 5878TIP3   OH239124   2.329   3.333  12.382 -0.2079  0.5001  0.0008
 5878TIP3    H139125   2.292   3.284  12.309  1.6735  0.9103 -1.2901
 5878TIP3    H239126   2.254   3.371  12.426 -1.8562 -3.5630  1.1963
 5879TIP3   OH239127   1.745   5.530   1.003  0.4322  0.3450  0.0676
 5879TIP3    H139128   1.664   5.480   1.013 -0.0283  0.8097 -1.1982
 5879TIP3    H239129   1.751   5.581   1.085 -1.6726  1.8480 -0.6218
 5880TIP3   OH239130   6.781   6.320   1.050 -0.2184 -0.7631 -0.2332
 5880TIP3    H139131   6.813   6.353   0.966  0.1577 -0.1253  0.1477
 5880TIP3    H239132   6.860   6.285   1.093 -0.4403 -1.2572 -0.2183
 5881TIP3   OH239133   6.823   6.131  17.191  0.3980 -0.0225  0.2511
 5881TIP3    H139134   6.764   6.107  17.262  0.8811  0.2980  0.7645
 5881TIP3    H239135   6.902   6.079  17.207  1.9988  2.7317  2.1361
 5882TIP3   OH239136   1.036   2.383  10.678 -0.3959  0.8877 -0.0263
 5882TIP3    H139137   1.088   2.372  10.758 -0.4274  0.3329 -0.0801
 5882TIP3    H239138   1.015   2.294  10.651 -1.9504  1.1041  0.3738
 5883TIP3   OH239139   3.300   2.356   5.976  0.7120  0.6095 -0.0181
 5883TIP3    H139140   3.385   2.366   6.018  0.3472  0.3958  0.7857
 5883TIP3    H239141   3.240   2.333   6.047  0.2847 -0.8387 -0.8014
 5884TIP3   OH239142   3.605   0.354  16.754 -0.0562 -0.0255 -0.5154
 5884TIP3    H139143   3.511   0.349  16.772  0.1241  1.4682  1.0374
 5884TIP3    H239144   3.613   0.325  16.663 -1.9651 -0.4796 -0.5920
 5885TIP3   OH239145   0.581   3.471  16.808 -0.0635  0.0843  0.0106
 5885TIP3    H139146   0.662   3.519  16.789  0.8626 -0.9375  1.2241
 5885TIP3    H239147   0.600   3.381  16.782 -0.7091 -0.2191  0.5652
 5886TIP3   OH239148   3.804   5.218   0.896 -0.1703  0.1488 -0.2281
 5886TIP3    H139149   3.795   5.220   0.800  1.2189  0.5440 -0.3781
 5886TIP3    H239150   3.762   5.299   0.925 -1.3779 -0.3952 -0.4100
 5887TIP3   OH239151   2.988   4.121   4.486  0.4730  0.0161 -0.1828
 5887TIP3    H139152   3.009   4.124   4.393  1.5871 -0.7501  0.0260
 5887TIP3    H239153   2.988   4.213   4.514 -1.1079  0.3629 -1.1719
 5888TIP3   OH239154   1.456   0.552  17.091 -0.5793 -0.6240 -0.3919
 5888TIP3    H139155   1.512   0.629  17.081  0.3095 -1.5130 -3.2787
 5888TIP3    H239156   1.479   0.518  17.178  2.2730 -0.0501 -0.8067
 5889TIP3   OH239157   2.098   2.032   0.814 -0.5650 -0.1952  0.1536
 5889TIP3    H139158   2.118   2.118   0.777  0.0111 -0.8177 -1.0160
 5889TIP3    H239159   2.015   2.007   0.774  0.4658 -1.2349 -1.4376
 5890TIP3   OH239160   5.037   3.879  12.446  0.3467 -0.1755 -0.0112
 5890TIP3    H139161   4.963   3.864  12.505  0.6564 -0.1483  0.3830
 5890TIP3    H239162   5.025   3.968  12.415  1.8471  0.9665  2.4060
 5891TIP3   OH239163   1.998   6.353   1.879  0.0838 -0.4179 -0.3195
 5891TIP3    H139164   2.092   6.356   1.896 -0.1574 -1.0415  1.3306
 5891TIP3    H239165   1.990   6.297   1.802  1.0327 -0.9499 -0.0561
 5892TIP3   OH239166   0.343   4.832  12.812 -0.2211 -0.3928  0.0509
 5892TIP3    H139167   0.417   4.850  12.754  0.8107  1.4101  1.8230
 5892TIP3    H239168   0.291   4.912  12.809 -0.3655 -0.4247  1.2935
 5893TIP3   OH239169   5.801   5.352   4.475  0.4811  0.1240 -0.4934
 5893TIP3    H139170   5.802   5.432   4.529  0.3925 -1.5271  2.1359
 5893TIP3    H239171   5.859   5.292   4.521 -1.0112 -2.0042 -1.2440
 5894TIP3   OH239172   6.432   3.998   2.524  0.4393 -0.4418 -0.5469
 5894TIP3    H139173   6.422   3.923   2.582 -0.4659  1.1329  1.4678
 5894TIP3    H239174   6.344   4.016   2.493 -0.2433  2.1908  2.3488
 5895TIP3   OH239175   4.000   2.109   3.870 -0.7179 -0.1132 -0.0938
 5895TIP3    H139176   3.999   2.026   3.821 -0.3041 -0.9753  1.2924
 5895TIP3    H239177   3.921   2.154   3.841 -1.1779 -1.1728 -0.5772
 5896TIP3   OH239178   2.416   6.342   2.896 -0.2309 -1.0078  0.1020
 5896TIP3    H139179   2.372   6.267   2.856 -1.0717 -1.7340  2.2612
 5896TIP3    H239180   2.462   6.305   2.971  1.2021  0.3133 -0.0721
 5897TIP3   OH239181   4.709   3.435  11.819  0.2710 -0.0053 -0.6638
 5897TIP3    H139182   4.648   3.366  11.792  1.4566 -1.6344  0.5591
 5897TIP3    H239183   4.708   3.430  11.915  0.4416  1.6797 -0.5542
 5898TIP3   OH239184   3.490   1.732  15.236 -0.1653 -0.4714  0.0944
 5898TIP3    H139185   3.500   1.786  15.314 -1.1433  0.2429 -0.2569
 5898TIP3    H239186   3.403   1.693  15.245 -0.8076  0.5967 -1.2088
 5899TIP3   OH239187   3.795   1.248  10.558  0.4150  0.1196 -0.3953
 5899TIP3    H139188   3.780   1.340  10.538  0.7096  0.2558 -0.0010
 5899TIP3    H239189   3.710   1.207  10.547  0.2297  0.4833 -0.3344
 5900TIP3   OH239190   3.206   5.859   6.364  0.1735  0.1619 -0.0321
 5900TIP3    H139191   3.151   5.922   6.411 -1.8249 -0.7012 -1.0951
 5900TIP3    H239192   3.216   5.896   6.276  0.4044 -0.2096 -0.1665
 5901TIP3   OH239193   4.782   6.353  11.860  0.0106 -0.3392  0.0087
 5901TIP3    H139194   4.702   6.305  11.838 -0.0404  0.1683 -0.9811
 5901TIP3    H239195   4.768   6.440  11.821  1.5247 -0.6062 -1.2179
 5902TIP3   OH239196   2.410   1.524   0.555  0.0338  0.4922  0.1324
 5902TIP3    H139197   2.494   1.563   0.577  0.5562 -1.9611  3.3121
 5902TIP3    H239198   2.348   1.596   0.555  1.8086  2.0849 -0.3981
 5903TIP3   OH239199   5.548   6.382  16.756 -0.2495  0.5013 -0.3338
 5903TIP3    H139200   5.619   6.361  16.695  1.0113  1.2526  0.8051
 5903TIP3    H239201   5.585   6.449  16.813 -0.6816 -1.4685  2.4547
 5904TIP3   OH239202   3.813   1.704  14.749  0.1947 -0.0968  0.2287
 5904TIP3    H139203   3.740   1.761  14.727 -0.6847 -0.6924  1.4597
 5904TIP3    H239204   3.794   1.674  14.838  1.4380 -1.0483  0.2073
 5905TIP3   OH239205   4.797   2.841   1.611  0.4161 -0.0721  0.5936
 5905TIP3    H139206   4.783   2.747   1.607 -1.1907  0.1603 -1.0142
 5905TIP3    H239207   4.840   2.863   1.528 -1.7829  0.8862 -0.3810
 5906TIP3   OH239208   0.028   3.560   3.703  0.1602  0.2706  0.3933
 5906TIP3    H139209   0.007   3.633   3.761  0.6880 -0.0258  0.9648
 5906TIP3    H239210   0.122   3.569   3.685 -0.0755  0.6083 -0.7709
 5907TIP3   OH239211   2.657   1.695   0.977  0.0733 -0.3522 -0.3491
 5907TIP3    H139212   2.743   1.737   0.984  0.5443 -1.1189 -1.3488
 5907TIP3    H239213   2.627   1.690   1.068  1.9330 -1.7547  0.2742
 5908TIP3   OH239214   4.368   0.194  15.716  0.0063 -0.4892 -0.3887
 5908TIP3    H139215   4.457   0.168  15.692  1.0597  0.9675  1.6203
 5908TIP3    H239216   4.313   0.162  15.645  2.1642 -1.1902 -1.8275
 5909TIP3   OH239217   0.490   3.599  12.364 -0.2890  0.1246 -0.4288
 5909TIP3    H139218   0.427   3.588  12.436 -0.1820 -0.5618 -0.4322
 5909TIP3    H239219   0.450   3.666  12.308 -1.8614 -1.4325 -1.3048
 5910TIP3   OH239220   6.710   3.018  11.645  0.0830  0.0039  0.3688
 5910TIP3    H139221   6.748   2.938  11.681 -0.4191 -1.1097 -1.4357
 5910TIP3    H239222   6.778   3.051  11.586  0.0433  0.6018  0.6496
 5911TIP3   OH239223   3.139   2.333  11.730  0.1425  0.3420 -0.3541
 5911TIP3    H139224   3.135   2.428  11.745  0.2761  0.6379 -1.9899
 5911TIP3    H239225   3.069   2.297  11.784  0.8121  1.2431  1.1550
 5912TIP3   OH239226   5.456   2.743   5.938 -0.5928  0.5865 -0.4168
 5912TIP3    H139227   5.408   2.670   5.979  0.0333  0.8859  0.8824
 5912TIP3    H239228   5.548   2.718   5.946 -0.1221  2.7977  2.7653
 5913TIP3   OH239229   3.578   4.794  12.892 -0.6055  0.0705  0.3815
 5913TIP3    H139230   3.614   4.862  12.949 -0.2728 -0.1342  0.4138
 5913TIP3    H239231   3.488   4.823  12.875 -0.1355  1.0675 -0.4895
 5914TIP3   OH239232   6.679   1.406   4.085 -0.3537  0.5960 -0.3592
 5914TIP3    H139233   6.732   1.326   4.091 -2.8437 -1.6007 -3.8470
 5914TIP3    H239234   6.727   1.461   4.023 -0.6950 -0.1197 -1.2771
 5915TIP3   OH239235   0.224   4.828  15.960  1.0996 -0.0212 -0.1791
 5915TIP3    H139236   0.177   4.900  16.003  1.4827 -1.0501  2.1007
 5915TIP3    H239237   0.252   4.865  15.877  1.2478  2.4952  0.8788
 5916TIP3   OH239238   2.731   4.760   5.474 -0.4553  0.1468  0.3232
 5916TIP3    H139239   2.788   4.826   5.513  0.0848 -0.8647  1.3129
 5916TIP3    H239240   2.774   4.677   5.492 -2.1673 -0.6506  1.0208
 5917TIP3   OH239241   2.241   6.781   3.803  0.6891 -0.6784 -0.2824
 5917TIP3    H139242   2.187   6.742   3.872  0.5129 -2.1551 -1.2114
 5917TIP3    H239243   2.329   6.746   3.819  1.2670  1.1393  0.7880
 5918TIP3   OH239244   0.859   2.226   4.094 -0.0426  0.0723 -0.2572
 5918TIP3    H139245   0.802   2.151   4.106 -1.3414  0.8336 -1.3259
 5918TIP3    H239246   0.889   2.219   4.003  1.4403 -0.2106  0.2345
 5919TIP3   OH239247   0.996   1.553  11.958  0.7473 -0.3133  0.6223
 5919TIP3    H139248   0.942   1.622  11.920 -1.0766 -1.7483  0.3956
 5919TIP3    H239249   1.080   1.560  11.913 -0.4556 -0.2678 -1.8307
 5920TIP3   OH239250   6.594   0.325   5.309  0.2885  0.3851  0.4918
 5920TIP3    H139251   6.644   0.281   5.378  0.2020  0.7119  0.7641
 5920TIP3    H239252   6.608   0.418   5.326 -0.1720  0.4717  0.3844
 5921TIP3   OH239253   6.336   5.697   1.528 -0.2998  0.1304  0.1925
 5921TIP3    H139254   6.271   5.638   1.566 -0.9885  1.7291  1.5923
 5921TIP3    H239255   6.396   5.639   1.481 -2.0146 -1.4933 -0.0885
 5922TIP3   OH239256   2.169   5.495   4.847  0.1842 -1.3413  0.1644
 5922TIP3    H139257   2.112   5.491   4.924  0.4962  0.7806  0.5500
 5922TIP3    H239258   2.109   5.487   4.772 -0.5293 -0.0116  0.5777
 5923TIP3   OH239259   1.962   0.947  11.553 -0.0516 -0.1685 -0.6651
 5923TIP3    H139260   1.924   0.915  11.471 -0.8779 -0.8540 -0.0399
 5923TIP3    H239261   2.034   0.886  11.572 -1.2226 -1.3490  0.1965
 5924TIP3   OH239262   4.311   1.997  16.200 -0.5585 -0.0775  0.3986
 5924TIP3    H139263   4.339   2.063  16.136  0.2623 -0.2946  0.5215
 5924TIP3    H239264   4.379   1.999  16.268 -1.3353  0.0249  1.1774
 5925TIP3   OH239265   2.370   1.491  16.811 -0.0350  0.5593 -0.1779
 5925TIP3    H139266   2.307   1.559  16.835 -2.3473 -1.2746 -0.6816
 5925TIP3    H239267   2.392   1.509  16.720 -0.8455  0.5433 -0.3907
 5926TIP3   OH239268   2.446   3.118  13.608  0.0180  0.0922  0.2190
 5926TIP3    H139269   2.496   3.124  13.689  0.6864  0.4640 -0.2169
 5926TIP3    H239270   2.393   3.039  13.619 -2.7252  2.0175  2.5945
 5927TIP3   OH239271   1.234   0.479   3.499  0.0698 -0.8110 -0.4329
 5927TIP3    H139272   1.149   0.442   3.522 -0.6749  1.9090  1.5984
 5927TIP3    H239273   1.294   0.445   3.566 -0.4645  0.9731  1.0009
 5928TIP3   OH239274   0.107   6.427  16.338 -0.1955 -0.0661 -0.0155
 5928TIP3    H139275   0.064   6.434  16.252  0.5965  0.5385 -0.3857
 5928TIP3    H239276   0.177   6.363  16.324 -0.4973 -0.4855  0.3776
 5929TIP3   OH239277   2.803   0.567   2.825  0.0450 -0.1075  0.0873
 5929TIP3    H139278   2.897   0.583   2.834 -0.3625  3.7003 -0.4948
 5929TIP3    H239279   2.780   0.515   2.901  2.8503 -2.8943 -0.7649
 5930TIP3   OH239280   0.615   2.516   1.287 -0.0913 -0.2047 -0.4689
 5930TIP3    H139281   0.639   2.598   1.242  0.8067  0.0476  0.4275
 5930TIP3    H239282   0.616   2.539   1.380 -1.4183 -0.8483 -0.2717
 5931TIP3   OH239283   0.458   2.571  10.636 -0.0778  0.0652  0.0316
 5931TIP3    H139284   0.502   2.654  10.656  1.8049 -1.1132  1.0674
 5931TIP3    H239285   0.515   2.528  10.573  0.2706 -1.4578  1.3170
 5932TIP3   OH239286   0.219   0.795   2.893 -0.9932 -0.0116  0.1928
 5932TIP3    H139287   0.267   0.846   2.827 -2.5409  1.0797 -0.1365
 5932TIP3    H239288   0.277   0.722   2.913  0.7583  1.1815 -0.2713
 5933TIP3   OH239289   0.062   2.790  11.683  0.3454 -0.9749 -0.3002
 5933TIP3    H139290  -0.012   2.768  11.738 -1.0188 -0.1362 -1.7160
 5933TIP3    H239291   0.098   2.706  11.655 -0.9446 -1.4191 -0.6897
 5934TIP3   OH239292   1.487   1.507  16.533 -0.0695 -0.3253  0.1506
 5934TIP3    H139293   1.522   1.485  16.447  1.8888 -0.7255  0.9882
 5934TIP3    H239294   1.523   1.593  16.552 -0.4465 -0.2624  0.5852
 5935TIP3   OH239295   3.218   2.260   0.172  0.1634  0.5978 -0.7574
 5935TIP3    H139296   3.138   2.310   0.152  0.0128  0.2741 -0.9801
 5935TIP3    H239297   3.186   2.180   0.214  0.3205  0.1437 -1.4819
 5936TIP3   OH239298   1.395   4.949  13.792  0.0099 -0.2344 -0.1428
 5936TIP3    H139299   1.464   4.892  13.759 -0.3460 -1.2625  0.8262
 5936TIP3    H239300   1.335   4.891  13.839 -1.2730  0.7004 -0.5506
 5937TIP3   OH239301   6.448   4.275  16.578  0.3405 -0.1529 -0.1532
 5937TIP3    H139302   6.455   4.232  16.664  0.4862 -0.7098 -0.4406
 5937TIP3    H239303   6.460   4.368  16.597 -0.6608 -0.1544  0.5812
 5938TIP3   OH239304   1.259   6.603   5.927 -0.2013  0.3193 -0.0027
 5938TIP3    H139305   1.240   6.556   5.846  0.7389  1.1996 -0.7566
 5938TIP3    H239306   1.248   6.695   5.905  3.4387  0.8608 -0.1893
 5939TIP3   OH239307   0.855   0.273  14.808 -0.0934 -0.2386  0.0113
 5939TIP3    H139308   0.936   0.225  14.791 -0.0462 -0.3980  0.6629
 5939TIP3    H239309   0.861   0.300  14.900  1.2665  3.6619 -1.0321
 5940TIP3   OH239310   0.094   3.718  16.045 -0.1946  0.1509 -0.0761
 5940TIP3    H139311   0.133   3.640  16.086  0.7421 -0.5269 -2.1352
 5940TIP3    H239312   0.055   3.685  15.964 -1.6427  1.5144  0.0122
 5941TIP3   OH239313   3.240   0.472   1.313 -0.4130 -0.2308  0.1219
 5941TIP3    H139314   3.168   0.480   1.376 -1.9391 -0.8390 -1.4659
 5941TIP3    H239315   3.198   0.474   1.227  1.6702  1.4913 -0.9694
 5942TIP3   OH239316   5.990   5.592   0.347 -0.0401 -0.2790 -0.2553
 5942TIP3    H139317   5.903   5.554   0.333  1.6568 -4.0355 -2.1934
 5942TIP3    H239318   6.029   5.595   0.259  1.9613  0.8796  0.6006
 5943TIP3   OH239319   4.151   0.488   2.388 -0.1793 -0.0429 -0.7308
 5943TIP3    H139320   4.240   0.453   2.392  0.5556  1.7931  0.4762
 5943TIP3    H239321   4.114   0.450   2.308  0.5540 -3.3182  0.3428
 5944TIP3   OH239322   5.404   6.728  17.184 -0.0016 -0.3598  0.0696
 5944TIP3    H139323   5.344   6.772  17.245  0.6564  0.7830 -0.0731
 5944TIP3    H239324   5.479   6.705  17.238  0.4583  0.3945 -0.2265
 5945TIP3   OH239325   2.043   2.430   0.701 -0.7600  0.0404  0.0211
 5945TIP3    H139326   2.029   2.525   0.697 -0.1871  0.1053 -0.6393
 5945TIP3    H239327   1.981   2.400   0.768 -2.8165  0.5465 -1.5446
 5946TIP3   OH239328   3.579   5.105   4.048 -0.2724  0.0199  0.2456
 5946TIP3    H139329   3.505   5.074   4.101 -1.0214  0.1452 -0.6918
 5946TIP3    H239330   3.539   5.167   3.987  0.8253  1.0314  0.5385
 5947TIP3   OH239331   1.938   5.169  13.424  0.3629  0.5980 -0.1729
 5947TIP3    H139332   1.894   5.085  13.427  2.0142 -0.2903  0.5339
 5947TIP3    H239333   1.897   5.216  13.352 -1.3011 -0.3907  0.0991
 5948TIP3   OH239334   0.950   0.840  11.108 -0.1751 -0.3048  0.4387
 5948TIP3    H139335   0.939   0.922  11.060  0.5268 -0.0358  0.7228
 5948TIP3    H239336   1.042   0.816  11.096 -0.3733 -1.0573  0.3551
 5949TIP3   OH239337   0.818   2.575   1.782 -0.5507  0.5548  0.0450
 5949TIP3    H139338   0.824   2.525   1.864 -0.0070 -2.0453 -1.4561
 5949TIP3    H239339   0.909   2.584   1.753 -0.5524  3.1987  0.6072
 5950TIP3   OH239340   2.799   1.645  14.199  0.5812 -0.8354  0.1249
 5950TIP3    H139341   2.838   1.639  14.286  1.7568  0.1865 -0.3145
 5950TIP3    H239342   2.854   1.589  14.144  0.2245 -0.9684 -0.1033
 5951TIP3   OH239343   6.793   2.952  17.093  0.1338 -0.1404 -0.7044
 5951TIP3    H139344   6.716   2.986  17.138  1.2919 -0.2975  1.5214
 5951TIP3    H239345   6.771   2.860  17.075  0.4094 -0.7270  1.5893
 5952TIP3   OH239346   1.331   1.150  13.393 -0.6458  0.1040  0.1567
 5952TIP3    H139347   1.395   1.096  13.439  0.2692  0.8498 -0.1906
 5952TIP3    H239348   1.302   1.096  13.320  0.7469  0.2833 -0.5645
 5953TIP3   OH239349   1.225   1.136   2.409  0.0786  0.1850 -0.3443
 5953TIP3    H139350   1.230   1.064   2.472  2.5020  0.9599  0.4867
 5953TIP3    H239351   1.132   1.154   2.399 -0.4481 -0.9735  1.8788
 5954TIP3   OH239352   2.906   0.838   4.296 -0.0984 -0.0332  0.5983
 5954TIP3    H139353   2.831   0.896   4.281 -0.0606 -0.4222 -1.4144
 5954TIP3    H239354   2.903   0.819   4.390 -1.0500  1.9183  1.0296
 5955TIP3   OH239355   1.005   5.026   3.700 -0.2362 -0.2512  0.6933
 5955TIP3    H139356   1.089   5.065   3.674  0.5509 -1.3769  1.4675
 5955TIP3    H239357   0.969   5.089   3.763 -0.0924  0.3380  0.2049
 5956TIP3   OH239358   5.855   5.740   4.553  0.1229 -0.0780 -0.0799
 5956TIP3    H139359   5.858   5.762   4.646 -1.3538  1.8788 -0.4285
 5956TIP3    H239360   5.945   5.755   4.521 -0.1833  3.1674  0.2813
 5957TIP3   OH239361   5.072   1.314   4.158 -0.7668 -1.1865  0.0977
 5957TIP3    H139362   5.002   1.344   4.216 -1.4257  0.8617 -1.6360
 5957TIP3    H239363   5.041   1.336   4.070  0.6163 -3.2844 -1.0006
 5958TIP3   OH239364   2.546   0.410  15.851 -0.3033 -0.4008 -0.2262
 5958TIP3    H139365   2.461   0.443  15.881 -0.1558 -0.8944  0.7747
 5958TIP3    H239366   2.527   0.321  15.820 -0.4523  0.1045 -1.6163
 5959TIP3   OH239367   1.973   0.537   3.428  0.0043  0.0492  0.6853
 5959TIP3    H139368   2.026   0.479   3.374  0.8251  0.6801  0.7995
 5959TIP3    H239369   1.974   0.621   3.381 -0.7097  0.1293  0.8035
 5960TIP3   OH239370   1.548   2.211  12.812  0.6598 -0.9566 -0.1054
 5960TIP3    H139371   1.591   2.297  12.808  0.4370 -0.7875  0.9299
 5960TIP3    H239372   1.492   2.216  12.889 -0.7053 -1.4203 -1.0240
 5961TIP3   OH239373   4.333   6.388  16.349  0.1705 -0.0116 -0.1020
 5961TIP3    H139374   4.388   6.466  16.356  1.0951 -0.7606  2.4941
 5961TIP3    H239375   4.351   6.340  16.430 -1.4461 -2.2161 -0.9582
 5962TIP3   OH239376   1.035   4.260   0.750  0.1191 -0.4823 -0.1208
 5962TIP3    H139377   1.006   4.311   0.826 -0.0280 -0.3247 -0.2816
 5962TIP3    H239378   1.072   4.180   0.788  1.0608  0.0761  0.1721
 5963TIP3   OH239379   2.796   4.855   3.628  0.4522 -0.2984  0.2725
 5963TIP3    H139380   2.788   4.895   3.714  0.3823 -1.8752  1.0234
 5963TIP3    H239381   2.706   4.854   3.594  0.6603  1.5910 -0.4517
 5964TIP3   OH239382   2.553   0.513   4.022 -0.0107  0.4627  0.4688
 5964TIP3    H139383   2.574   0.553   4.106  0.6508 -0.0107  0.5379
 5964TIP3    H239384   2.549   0.419   4.040  1.8157  0.1861 -0.3314
 5965TIP3   OH239385   3.282   4.406  12.663 -0.1968 -0.2899 -0.2550
 5965TIP3    H139386   3.361   4.416  12.717 -0.4383  1.1368 -0.1356
 5965TIP3    H239387   3.284   4.481  12.604 -0.2802 -1.4870 -1.8355
 5966TIP3   OH239388   3.040   2.564   5.978 -0.1023 -0.4135 -0.0968
 5966TIP3    H139389   3.097   2.488   5.970  1.0347  0.4646 -0.6516
 5966TIP3    H239390   3.006   2.560   6.067  1.5609 -0.4557  0.5624
 5967TIP3   OH239391   3.568   6.439   6.200  0.6243  0.1846  0.2454
 5967TIP3    H139392   3.536   6.522   6.235 -1.5842 -0.7877  0.6715
 5967TIP3    H239393   3.599   6.391   6.276 -1.0624 -0.5996  0.4765
 5968TIP3   OH239394   1.815   5.831   1.503  0.3274 -0.1384  0.1051
 5968TIP3    H139395   1.907   5.830   1.529 -0.1066 -0.8970  1.7485
 5968TIP3    H239396   1.801   5.919   1.468  1.6673 -0.0102 -0.1564
 5969TIP3   OH239397   3.136   4.122   2.499  0.4589  0.2169  0.4919
 5969TIP3    H139398   3.112   4.215   2.504 -0.7109 -0.0915  1.1936
 5969TIP3    H239399   3.122   4.090   2.588  4.0670  0.0584  1.1371
 5970TIP3   OH239400   6.208   1.504  15.052 -0.3334 -0.2683 -0.0658
 5970TIP3    H139401   6.154   1.535  15.125 -0.9562 -0.2038 -0.5470
 5970TIP3    H239402   6.295   1.492  15.090 -0.9103 -1.3942  1.0039
 5971TIP3   OH239403   4.249   3.258   2.786  0.7307 -0.1038  0.6275
 5971TIP3    H139404   4.295   3.334   2.752  0.2196  0.5617  1.3733
 5971TIP3    H239405   4.298   3.183   2.754 -0.9665  0.3060 -3.4964
 5972TIP3   OH239406   0.765   2.945   4.292 -0.0835  0.3130  0.6656
 5972TIP3    H139407   0.758   3.008   4.220 -0.0040 -0.9663 -0.5204
 5972TIP3    H239408   0.859   2.935   4.307 -0.0456 -0.2693  0.1220
 5973TIP3   OH239409   2.136   2.686   2.623 -0.1748 -0.3768  0.5336
 5973TIP3    H139410   2.176   2.758   2.672 -0.3612 -1.0786  1.7586
 5973TIP3    H239411   2.210   2.634   2.593  0.0370  0.9275 -1.4157
 5974TIP3   OH239412   4.758   3.747   3.863  0.7024 -0.2940 -0.4631
 5974TIP3    H139413   4.670   3.719   3.840  0.0486  1.3550 -0.0953
 5974TIP3    H239414   4.813   3.716   3.791  0.1329 -2.7322  0.0692
 5975TIP3   OH239415   4.351   2.013   5.074 -0.4429  0.1070 -0.0147
 5975TIP3    H139416   4.370   1.921   5.093  1.5389  0.3733 -0.4887
 5975TIP3    H239417   4.318   2.048   5.157  1.3085 -0.4253  0.9584
 5976TIP3   OH239418   1.330   2.787  15.914  0.0735 -0.4759 -0.6541
 5976TIP3    H139419   1.276   2.858  15.879  0.4329  0.2413  0.2219
 5976TIP3    H239420   1.417   2.803  15.879  0.9812  1.5247  2.1480
 5977TIP3   OH239421   2.228   3.380  11.851  0.0608 -0.1633  0.3645
 5977TIP3    H139422   2.317   3.389  11.818  0.0045  0.7582  0.4439
 5977TIP3    H239423   2.189   3.466  11.839 -1.2002 -0.8519 -0.7442
 5978TIP3   OH239424   1.471   0.609  11.821 -0.0894  0.1914 -0.4996
 5978TIP3    H139425   1.382   0.588  11.850  0.3478 -0.5212  0.3759
 5978TIP3    H239426   1.520   0.529  11.837  1.0173  1.0047  0.2586
 5979TIP3   OH239427   6.208   2.358   1.913  0.0635  0.0270 -0.0341
 5979TIP3    H139428   6.259   2.309   1.977  0.3285  1.2876  0.7416
 5979TIP3    H239429   6.118   2.328   1.926  0.1431  0.1372  0.8074
 5980TIP3   OH239430   3.503   0.858   1.236  0.1605 -0.2368 -0.1463
 5980TIP3    H139431   3.452   0.901   1.305  1.3811  0.9478  0.0723
 5980TIP3    H239432   3.505   0.766   1.261 -0.8097 -0.0971  0.4953
 5981TIP3   OH239433   0.263   3.253   2.524  0.0748  0.0501 -0.3436
 5981TIP3    H139434   0.357   3.238   2.532  0.4266  0.5592 -2.6111
 5981TIP3    H239435   0.246   3.246   2.430 -1.7298  2.2405 -0.2804
 5982TIP3   OH239436   4.588   4.140   5.197 -0.3535 -0.0298  0.1186
 5982TIP3    H139437   4.567   4.218   5.248  2.1167  2.2390 -2.0491
 5982TIP3    H239438   4.650   4.092   5.251  0.4353  1.1338  0.2906
 5983TIP3   OH239439   1.913   4.205  16.640 -0.5841 -0.7035 -0.0917
 5983TIP3    H139440   1.845   4.219  16.705  1.4111  0.1188  1.9361
 5983TIP3    H239441   1.915   4.110  16.628 -1.4260 -0.8154  0.5761
 5984TIP3   OH239442   5.026   2.845  16.261 -0.5259  0.5281  0.0484
 5984TIP3    H139443   4.976   2.847  16.179 -0.2231  0.5116 -0.1422
 5984TIP3    H239444   5.068   2.931  16.264  0.6842 -0.0117 -0.5927
 5985TIP3   OH239445   0.178   2.430  12.061 -0.0104 -0.5374 -0.5319
 5985TIP3    H139446   0.093   2.452  12.023  0.2982 -0.9443 -1.4969
 5985TIP3    H239447   0.228   2.395  11.988  0.7180 -1.0548  0.2020
 5986TIP3   OH239448   4.247   5.685   5.032  0.0083 -0.0310 -0.3305
 5986TIP3    H139449   4.257   5.752   5.099  3.4890  0.5987 -1.2842
 5986TIP3    H239450   4.237   5.603   5.080  1.8283  0.4833  1.0017
 5987TIP3   OH239451   0.852   3.034   0.750 -0.6354 -0.1140  0.0227
 5987TIP3    H139452   0.838   3.069   0.662 -1.1273  0.5116  0.3362
 5987TIP3    H239453   0.946   3.045   0.766 -0.4500 -0.7083 -0.6129
 5988TIP3   OH239454   1.814   6.039   1.014 -0.0862  0.0263  0.4224
 5988TIP3    H139455   1.725   6.036   0.977  0.3071  2.3072 -0.9284
 5988TIP3    H239456   1.800   6.030   1.109 -1.5974 -1.0415  0.1486
 5989TIP3   OH239457   0.586   3.385  15.631  0.4465  0.0079  0.3311
 5989TIP3    H139458   0.506   3.348  15.668  0.7163  0.0747  1.0017
 5989TIP3    H239459   0.575   3.377  15.537 -1.1059  1.5822  0.3344
 5990TIP3   OH239460   0.022   3.798  16.733  0.3103 -0.5439 -0.0146
 5990TIP3    H139461   0.044   3.891  16.744  0.4289 -0.4499 -0.9237
 5990TIP3    H239462   0.002   3.789  16.640 -0.8944 -1.1938  0.2881
 5991TIP3   OH239463   3.309   6.446  12.592  0.2705  0.3842 -0.5227
 5991TIP3    H139464   3.402   6.428  12.575 -0.1886 -2.1833 -0.7034
 5991TIP3    H239465   3.295   6.534  12.557  2.3346  0.3062 -1.7042
 5992TIP3   OH239466   6.006   2.350  11.203  0.0599 -0.1182  0.0173
 5992TIP3    H139467   6.005   2.255  11.194 -1.5446 -0.1852  0.5629
 5992TIP3    H239468   5.974   2.382  11.119  0.7431 -0.0318 -0.2204
 5993TIP3   OH239469   5.705   3.918   0.507  0.1623 -0.1577  0.0652
 5993TIP3    H139470   5.693   3.888   0.417  1.7512  0.5608 -0.4172
 5993TIP3    H239471   5.774   3.984   0.501 -0.8352  1.0710  1.5868
 5994TIP3   OH239472   3.851   0.595   5.846  0.5891 -0.3683 -0.0857
 5994TIP3    H139473   3.812   0.651   5.914  0.0316 -1.4606  0.5162
 5994TIP3    H239474   3.794   0.605   5.770  0.3999 -0.2419  0.0727
 5995TIP3   OH239475   4.645   2.338   1.765  0.0850 -0.3026 -0.5693
 5995TIP3    H139476   4.736   2.356   1.789 -0.2727 -1.1387  1.5804
 5995TIP3    H239477   4.593   2.387   1.828 -0.9153 -2.0987  0.0729
 5996TIP3   OH239478   2.677   1.925   2.968  0.0903  0.0131  0.2365
 5996TIP3    H139479   2.758   1.897   2.925  0.2756 -1.4738  1.4252
 5996TIP3    H239480   2.701   1.929   3.061 -0.2374  3.2926  0.2936
 5997TIP3   OH239481   0.264   0.974  15.269 -0.3554  0.9138  0.9018
 5997TIP3    H139482   0.244   0.916  15.342 -1.3650  0.4762  0.2949
 5997TIP3    H239483   0.185   1.027  15.258 -0.4822  0.4943 -0.3153
 5998TIP3   OH239484   1.631   3.153   4.222  0.7980  0.5160  0.0703
 5998TIP3    H139485   1.562   3.093   4.250  0.3862  1.3987  1.0102
 5998TIP3    H239486   1.686   3.101   4.163  0.0199 -0.5501  0.2608
 5999TIP3   OH239487   4.187   5.164  15.505 -0.6393  0.4637  0.3519
 5999TIP3    H139488   4.108   5.111  15.508 -0.3829  0.0440 -0.0961
 5999TIP3    H239489   4.258   5.100  15.509 -0.3226  0.8237  0.5656
 6000TIP3   OH239490   2.574   2.735  15.998 -0.6841 -0.6552  0.1227
 6000TIP3    H139491   2.600   2.827  16.000 -1.9498 -0.2764  2.4900
 6000TIP3    H239492   2.653   2.688  15.970 -0.4347  1.2055 -2.6459
 6001TIP3   OH239493   4.630   5.139  13.327  0.1273  0.4752  0.6245
 6001TIP3    H139494   4.670   5.109  13.246  1.8290  1.0970  1.1908
 6001TIP3    H239495   4.671   5.086  13.396 -1.8163 -0.5637  1.0719
 6002TIP3   OH239496   1.003   1.886   0.426 -0.1368 -0.4134 -0.0645
 6002TIP3    H139497   1.061   1.812   0.410  0.6207  0.5165 -1.9484
 6002TIP3    H239498   1.011   1.904   0.520 -0.5449 -2.8220  0.4861
 6003TIP3   OH239499   3.867   3.338   4.248  0.3460  0.4078 -0.6123
 6003TIP3    H139500   3.961   3.323   4.258  0.2837  0.9366  1.3586
 6003TIP3    H239501   3.826   3.263   4.291 -0.0544  1.5923  1.1822
 6004TIP3   OH239502   6.158   1.797  13.410 -0.2054 -0.1119  0.2145
 6004TIP3    H139503   6.076   1.816  13.455 -0.6105 -1.3631  0.0427
 6004TIP3    H239504   6.226   1.822  13.473 -0.7411 -0.4185  0.9330
 6005TIP3   OH239505   5.580   1.857   1.640  0.2669  0.4422  0.0326
 6005TIP3    H139506   5.512   1.790   1.628 -0.4377  1.0074  0.7471
 6005TIP3    H239507   5.608   1.846   1.731 -0.6241  1.7936  0.5036
 6006TIP3   OH239508   4.391   6.463   3.953  0.1766 -0.3406 -0.0845
 6006TIP3    H139509   4.335   6.425   3.886  1.2490 -0.1762 -1.1221
 6006TIP3    H239510   4.453   6.517   3.904  0.9060 -0.1078  1.0565
 6007TIP3   OH239511   5.437   1.516   3.101 -0.2403  0.2680  0.0128
 6007TIP3    H139512   5.442   1.587   3.036 -1.5859 -0.0566 -0.4726
 6007TIP3    H239513   5.483   1.551   3.177 -0.1835  1.3524 -0.4928
 6008TIP3   OH239514   0.690   4.242   2.597 -1.1743 -0.0656  0.1537
 6008TIP3    H139515   0.707   4.197   2.680 -0.2762 -2.2997 -1.1601
 6008TIP3    H239516   0.614   4.197   2.561 -1.1081  0.3940 -0.5756
 6009TIP3   OH239517   3.096   1.847  15.968  0.0352 -0.5287  0.1938
 6009TIP3    H139518   3.075   1.783  16.036  0.5456 -2.1320 -1.0888
 6009TIP3    H239519   3.188   1.868  15.982 -0.2546  0.3639  0.9169
 6010TIP3   OH239520   5.128   6.170  13.324  0.2970  0.8813  0.3372
 6010TIP3    H139521   5.219   6.139  13.333  0.5961  1.5266 -0.3642
 6010TIP3    H239522   5.121   6.243  13.386 -0.2892 -0.2727  1.6927
 6011TIP3   OH239523   6.249   4.022  12.530  0.7229  0.2732  0.2641
 6011TIP3    H139524   6.295   3.942  12.558  1.7858  1.2520  1.4028
 6011TIP3    H239525   6.319   4.085  12.513 -0.1714  1.6462  1.4783
 6012TIP3   OH239526   4.201   3.266   0.269 -0.0533  0.3441 -0.2239
 6012TIP3    H139527   4.125   3.217   0.237  0.7072 -0.9757 -0.0644
 6012TIP3    H239528   4.175   3.298   0.355 -0.7294  0.6514 -0.5308
 6013TIP3   OH239529   4.045   3.519  12.674  0.2366  0.4926 -0.1985
 6013TIP3    H139530   3.979   3.578  12.708  0.3508  1.3161 -1.3318
 6013TIP3    H239531   4.003   3.476  12.599  0.1538 -0.8842  0.6057
 6014TIP3   OH239532   3.229   3.644   1.119  0.1576  0.4701 -0.5446
 6014TIP3    H139533   3.260   3.732   1.098  1.0660  0.2646 -0.1068
 6014TIP3    H239534   3.142   3.658   1.157 -0.1576  1.0850 -1.4597
 6015TIP3   OH239535   2.789   2.884   5.405  0.4262  0.6192  0.2469
 6015TIP3    H139536   2.816   2.805   5.454 -1.1578 -0.6555 -0.8249
 6015TIP3    H239537   2.792   2.954   5.470  1.7442 -0.3352  1.2812
 6016TIP3   OH239538   0.056   2.123   1.400  0.2888  0.1253 -0.1101
 6016TIP3    H139539   0.044   2.054   1.334  0.8159  0.7145 -0.8285
 6016TIP3    H239540   0.089   2.198   1.351 -1.0428  1.1741  0.5143
 6017TIP3   OH239541   0.209   4.494   2.533  0.0550  0.1677 -0.3335
 6017TIP3    H139542   0.236   4.435   2.463  1.3797  1.2045 -0.7513
 6017TIP3    H239543   0.242   4.453   2.613 -0.3445 -0.3932 -0.4565
 6018TIP3   OH239544   3.451   6.078  13.332  0.1490 -0.0111  0.3480
 6018TIP3    H139545   3.444   6.153  13.391 -1.7375 -0.3148  0.5639
 6018TIP3    H239546   3.469   6.117  13.246 -0.6523  0.6949  0.4845
 6019TIP3   OH239547   5.083   5.829   4.980 -0.0593  0.1198  0.7886
 6019TIP3    H139548   5.031   5.750   4.995  0.7166 -0.3344  1.1205
 6019TIP3    H239549   5.056   5.858   4.893 -1.0748  0.0571  1.0691
 6020TIP3   OH239550   2.419   4.916   4.008  0.5042 -0.2296  0.0847
 6020TIP3    H139551   2.359   4.990   4.007 -0.5154 -0.9667 -2.5576
 6020TIP3    H239552   2.373   4.849   4.060 -2.3148 -1.6221 -3.7250
 6021TIP3   OH239553   1.446   1.568   5.758  0.9987  0.1306 -0.3458
 6021TIP3    H139554   1.538   1.595   5.760  0.4255  2.3429  2.2021
 6021TIP3    H239555   1.442   1.492   5.817  1.3704 -0.8651 -1.5634
 6022TIP3   OH239556   5.941   4.933  15.193 -0.2969 -0.1635 -0.1323
 6022TIP3    H139557   5.949   4.938  15.289 -0.5433  1.8527 -0.1745
 6022TIP3    H239558   5.966   4.843  15.172 -0.1652 -0.6363  1.8154
 6023TIP3   OH239559   2.714   1.665  12.263  0.4351  0.4370  0.4143
 6023TIP3    H139560   2.708   1.760  12.273  1.3931  0.6437 -0.6706
 6023TIP3    H239561   2.637   1.641  12.211  0.8629  0.8337 -0.4339
 6024TIP3   OH239562   5.824   3.842  14.451 -0.2576 -0.3514 -0.3681
 6024TIP3    H139563   5.813   3.747  14.438 -0.1289 -0.5808  0.9734
 6024TIP3    H239564   5.763   3.863  14.522 -0.5534  0.6568 -0.8988
 6025TIP3   OH239565   5.041   3.212  11.874 -0.7239  0.2531  0.6123
 6025TIP3    H139566   5.044   3.243  11.964 -1.1881  1.2568  0.2889
 6025TIP3    H239567   5.060   3.118  11.881 -0.7165  0.3238  1.7407
 6026TIP3   OH239568   5.073   2.513  12.823  0.0571  0.0841 -0.4129
 6026TIP3    H139569   5.025   2.430  12.822  0.7835 -0.3426 -0.9101
 6026TIP3    H239570   5.048   2.555  12.905  1.0497 -1.4355  0.7159
 6027TIP3   OH239571   4.169   2.404  14.758  0.0721 -0.5296 -0.1002
 6027TIP3    H139572   4.212   2.320  14.745  1.1027 -0.3791  1.9392
 6027TIP3    H239573   4.237   2.461  14.795 -1.2779  0.3789  1.1206
 6028TIP3   OH239574   4.285   2.714  16.570 -0.0121  0.4409 -0.0277
 6028TIP3    H139575   4.325   2.645  16.624 -0.9855  0.0587  0.2309
 6028TIP3    H239576   4.336   2.714  16.489 -0.3305 -0.9824 -0.2601
 6029TIP3   OH239577   3.869   5.810   1.549  0.5258  0.3187 -0.4986
 6029TIP3    H139578   3.786   5.780   1.514  1.5820 -1.4523 -1.6588
 6029TIP3    H239579   3.899   5.877   1.488  0.5236  0.0588 -0.7868
 6030TIP3   OH239580   3.916   3.761   3.930 -0.1514  0.2424  0.3571
 6030TIP3    H139581   3.934   3.726   4.017  0.4120 -1.1314 -0.2872
 6030TIP3    H239582   3.987   3.822   3.913 -1.1909  1.8796  1.5257
 6031TIP3   OH239583   6.816   4.189  14.729  0.3304  0.1166 -0.3033
 6031TIP3    H139584   6.737   4.156  14.687  0.3991 -1.7390  0.9422
 6031TIP3    H239585   6.807   4.284  14.724 -2.0200 -0.0423 -0.1091
 6032TIP3   OH239586   0.565   2.844   0.302  0.1383 -0.1475  0.1375
 6032TIP3    H139587   0.647   2.859   0.348 -0.4681  0.6706  1.0166
 6032TIP3    H239588   0.557   2.919   0.243  0.6221 -0.8840 -0.8886
 6033TIP3   OH239589   4.909   3.780   2.493  0.3523  0.4103  0.3624
 6033TIP3    H139590   4.970   3.716   2.458 -1.1002 -0.3403 -0.8816
 6033TIP3    H239591   4.883   3.833   2.418 -1.8284 -0.4064  0.4551
 6034TIP3   OH239592   2.789   3.881  12.419 -0.1614 -0.2400  0.0947
 6034TIP3    H139593   2.766   3.973  12.410 -0.8969 -0.4504 -0.3035
 6034TIP3    H239594   2.871   3.881  12.467 -1.0775  0.5473  1.7342
 6035TIP3   OH239595   6.232   3.455   6.127 -0.2760  0.7243  0.2449
 6035TIP3    H139596   6.295   3.403   6.177 -0.3064  2.0881  1.8015
 6035TIP3    H239597   6.153   3.402   6.126 -0.0005  0.2801  0.8963
 6036TIP3   OH239598   3.073   5.036   3.660 -0.2073  0.0704 -0.1383
 6036TIP3    H139599   3.134   5.071   3.595 -0.8986 -0.4619 -1.1024
 6036TIP3    H239600   3.106   4.949   3.679  2.1187  1.4614  3.0453
 6037TIP3   OH239601   4.043   6.232   0.976  0.0598 -0.2801  0.3077
 6037TIP3    H139602   3.953   6.253   0.954  0.2647 -0.8169 -1.1382
 6037TIP3    H239603   4.074   6.306   1.028 -0.3207  1.2967 -1.6219
 6038TIP3   OH239604   6.473   1.781  16.425  0.1794 -0.2263 -0.6593
 6038TIP3    H139605   6.522   1.750  16.501  0.5852  0.1262 -0.7772
 6038TIP3    H239606   6.399   1.828  16.462  1.1126  1.1300 -0.4707
 6039TIP3   OH239607   2.809   1.699  14.869  0.2516 -0.0459 -0.0169
 6039TIP3    H139608   2.820   1.701  14.964 -0.6987 -1.0344  0.1381
 6039TIP3    H239609   2.716   1.720  14.856  0.4851  0.5752 -0.7714
 6040TIP3   OH239610   5.779   4.898  14.510  0.1654  0.2000  0.2879
 6040TIP3    H139611   5.844   4.849  14.560  1.0527 -0.3837 -1.3409
 6040TIP3    H239612   5.780   4.985  14.548  0.2327 -0.4043  1.7485
 6041TIP3   OH239613   3.515   2.421   4.897  0.2294  0.0132  0.0693
 6041TIP3    H139614   3.446   2.410   4.962 -0.6119 -1.1372 -0.9724
 6041TIP3    H239615   3.567   2.495   4.929 -0.4464 -0.2084  1.7693
 6042TIP3   OH239616   2.225   3.031  15.502  0.2141 -0.0390 -0.0661
 6042TIP3    H139617   2.211   2.975  15.426  0.8148 -0.3830  0.0746
 6042TIP3    H239618   2.315   3.062  15.493  0.3412 -0.1970  0.5782
 6043TIP3   OH239619   2.431   3.411   4.119 -0.5816  0.2139 -0.3632
 6043TIP3    H139620   2.481   3.367   4.188 -0.4330 -0.7990 -1.0978
 6043TIP3    H239621   2.441   3.355   4.042 -2.6237  0.1520 -0.6181
 6044TIP3   OH239622   3.944   4.739   1.528 -0.8065  0.4115 -0.4934
 6044TIP3    H139623   3.853   4.759   1.505 -0.3215  2.1778 -1.0123
 6044TIP3    H239624   3.972   4.676   1.461 -1.5826 -0.0310 -0.4201
 6045TIP3   OH239625   0.954   4.764  14.546  0.3723  0.6437 -0.0735
 6045TIP3    H139626   0.983   4.680  14.582  0.6789  0.9677  0.4510
 6045TIP3    H239627   1.029   4.795  14.495  1.1535  1.6817  1.6269
 6046TIP3   OH239628   6.506   5.240   3.223  0.3307 -0.3626 -0.5239
 6046TIP3    H139629   6.468   5.298   3.157  1.8176  0.0085 -1.1187
 6046TIP3    H239630   6.598   5.232   3.196  0.4881 -1.8605  0.3576
 6047TIP3   OH239631   5.044   0.429  16.824  0.0930 -0.2688 -0.4364
 6047TIP3    H139632   5.093   0.353  16.855 -0.3136 -0.0451  0.8402
 6047TIP3    H239633   5.003   0.401  16.743 -0.8177 -1.7509  0.4823
 6048TIP3   OH239634   5.888   6.066   5.342 -0.4636  0.1277 -0.2982
 6048TIP3    H139635   5.938   5.992   5.309 -0.7540 -0.0721 -0.2916
 6048TIP3    H239636   5.892   6.058   5.437 -2.1729 -1.0359 -0.2779
 6049TIP3   OH239637   4.841   5.010  16.334 -0.3750  0.2847  0.1671
 6049TIP3    H139638   4.926   5.054  16.332 -0.0889 -0.1948  0.9388
 6049TIP3    H239639   4.788   5.064  16.392 -0.9419  1.1420 -1.1087
 6050TIP3   OH239640   4.850   3.719   4.128 -0.5014  0.1299  0.7687
 6050TIP3    H139641   4.815   3.714   4.039  0.4594 -3.8683  0.4242
 6050TIP3    H239642   4.800   3.654   4.178  1.2324 -0.1551  2.2467
 6051TIP3   OH239643   2.249   3.907  11.956  0.6197  0.2316  0.2005
 6051TIP3    H139644   2.291   3.990  11.979  0.5900  0.2493  0.1907
 6051TIP3    H239645   2.304   3.840  11.997 -0.4510  0.3324  1.9258
 6052TIP3   OH239646   4.696   0.711   1.145  0.1465 -0.2040  0.1108
 6052TIP3    H139647   4.616   0.689   1.097  0.1071  2.7289 -1.3955
 6052TIP3    H239648   4.671   0.707   1.237 -1.4352 -0.4142 -0.2992
 6053TIP3   OH239649   3.237   4.690  13.624 -0.2278 -0.2030  0.1986
 6053TIP3    H139650   3.182   4.714  13.698  0.3011 -1.9340  1.2172
 6053TIP3    H239651   3.174   4.671  13.554 -0.9348 -1.3748  1.1004
 6054TIP3   OH239652   5.608   1.201   2.227 -0.1382  0.5811 -0.3124
 6054TIP3    H139653   5.637   1.255   2.154 -0.3416  1.1678  0.0322
 6054TIP3    H239654   5.687   1.187   2.279  0.0802 -0.1274 -0.8144
 6055TIP3   OH239655   3.856   2.238  12.599  0.4380 -0.0646  0.6018
 6055TIP3    H139656   3.841   2.202  12.687 -0.5909  1.5583  1.1436
 6055TIP3    H239657   3.837   2.331  12.608  1.1976  0.3052 -1.1575
 6056TIP3   OH239658   4.217   5.496   3.128 -0.5875 -0.0691 -0.4053
 6056TIP3    H139659   4.298   5.544   3.108  0.2007 -1.4091 -0.5269
 6056TIP3    H239660   4.172   5.489   3.044 -0.7191  0.4793 -0.3817
 6057TIP3   OH239661   3.300   6.497   3.959 -0.3708 -0.3556 -0.0857
 6057TIP3    H139662   3.205   6.486   3.948 -0.4012  0.4873 -0.6713
 6057TIP3    H239663   3.337   6.414   3.930 -0.9028 -0.5505 -0.2197
 6058TIP3   OH239664   0.895   1.468  15.094 -0.3246  0.1710  0.3195
 6058TIP3    H139665   0.874   1.428  15.179 -1.0874 -1.7234 -0.7064
 6058TIP3    H239666   0.813   1.462  15.044 -0.2572  2.4291 -0.1606
 6059TIP3   OH239667   5.204   1.001  12.902 -0.1929  0.2898  0.4304
 6059TIP3    H139668   5.133   0.982  12.840  0.0994  0.4134  0.0558
 6059TIP3    H239669   5.160   1.041  12.977 -0.4839  0.6649  0.0641
 6060TIP3   OH239670   6.288   4.476   0.450  0.0492  0.2950  0.0634
 6060TIP3    H139671   6.261   4.391   0.417 -2.1958  0.9723 -0.0152
 6060TIP3    H239672   6.286   4.468   0.545  1.1813 -0.0861  0.0772
 6061TIP3   OH239673   5.806   2.646  13.592 -0.8759  0.3598 -0.5529
 6061TIP3    H139674   5.751   2.595  13.651  0.6130  0.2780  0.8311
 6061TIP3    H239675   5.758   2.728  13.579 -0.2459  1.3516  2.6674
 6062TIP3   OH239676   2.198   6.713  16.987  0.1133  0.0901 -0.3059
 6062TIP3    H139677   2.158   6.663  17.058 -2.0571 -0.8407 -2.0499
 6062TIP3    H239678   2.172   6.667  16.907 -0.6981  3.1196 -1.9548
 6063TIP3   OH239679   4.779   3.568   3.117 -0.0484  0.8618 -0.4250
 6063TIP3    H139680   4.844   3.509   3.156  1.7317  2.8264 -0.2525
 6063TIP3    H239681   4.718   3.510   3.072  0.7980 -1.1756  0.9044
 6064TIP3   OH239682   4.394   4.077   1.920 -0.4728 -0.1466  0.2339
 6064TIP3    H139683   4.385   4.170   1.899 -0.8339 -0.0193  0.9214
 6064TIP3    H239684   4.488   4.064   1.931 -0.3882  0.0537 -0.2275
 6065TIP3   OH239685   2.124   6.059   6.552 -0.3413  0.2731  0.2663
 6065TIP3    H139686   2.068   6.080   6.477  0.3667  1.9756  0.1839
 6065TIP3    H239687   2.117   6.135   6.609  0.5951 -0.2126  1.0545
 6066TIP3   OH239688   2.840   0.102   5.650 -0.3586 -0.0881  0.3284
 6066TIP3    H139689   2.772   0.049   5.610 -0.3887 -0.0721  0.3593
 6066TIP3    H239690   2.832   0.086   5.744 -0.3069 -0.1022  0.3305
 6067TIP3   OH239691   2.371   2.406   2.262 -0.1773  0.0734  0.5528
 6067TIP3    H139692   2.361   2.488   2.311 -0.7879  1.3978 -1.6624
 6067TIP3    H239693   2.436   2.426   2.194 -1.7316 -0.6194 -1.2305
 6068TIP3   OH239694   4.693   6.515  15.457 -0.2371  0.2564 -0.3492
 6068TIP3    H139695   4.662   6.472  15.537 -1.6680  0.6033 -0.6925
 6068TIP3    H239696   4.733   6.445  15.406  1.5448  0.1907  1.0472
 6069TIP3   OH239697   0.635   6.776  16.096 -0.5974  0.3660 -0.8433
 6069TIP3    H139698   0.676   6.767  16.182 -0.0448 -0.0855 -1.1487
 6069TIP3    H239699   0.707   6.766  16.034 -0.8742  1.4000 -1.3523
 6070TIP3   OH239700   2.614   3.572   0.927 -0.1745 -0.3776  0.2119
 6070TIP3    H139701   2.644   3.602   1.013  0.0920  0.0190 -0.0149
 6070TIP3    H239702   2.585   3.652   0.883  0.8560 -0.3849 -0.5266
 6071TIP3   OH239703   4.174   3.044  16.934  0.2462 -0.4492  0.4417
 6071TIP3    H139704   4.093   3.086  16.903 -0.6122 -1.1057  1.6816
 6071TIP3    H239705   4.210   3.000  16.857 -0.8641 -0.5580 -0.0324
 6072TIP3   OH239706   3.619   3.470   0.781  0.6524  0.5549 -0.0312
 6072TIP3    H139707   3.558   3.444   0.713  1.8026 -0.9898 -0.5433
 6072TIP3    H239708   3.705   3.468   0.738  1.2009  1.4188  0.9799
 6073TIP3   OH239709   2.942   6.193  14.900  0.4384  0.1697  0.1416
 6073TIP3    H139710   2.936   6.253  14.974 -0.0305  0.8725 -0.4440
 6073TIP3    H239711   2.991   6.118  14.933 -0.7812 -0.0698  1.5145
 6074TIP3   OH239712   1.775   2.867   3.526 -0.2169  0.3486  0.2226
 6074TIP3    H139713   1.819   2.923   3.591  0.1281  0.6592 -0.2757
 6074TIP3    H239714   1.708   2.820   3.577 -1.1405  1.8905  0.4804
 6075TIP3   OH239715   2.078   0.987   4.937 -0.1525  0.6514 -0.0147
 6075TIP3    H139716   2.093   1.015   5.027  0.1860  0.7794 -0.1132
 6075TIP3    H239717   2.018   1.052   4.901  0.3913  1.0843 -0.1490
 6076TIP3   OH239718   0.856   6.646   2.815 -0.0987  0.0735 -0.0996
 6076TIP3    H139719   0.898   6.625   2.898 -2.4219 -0.6237  0.9947
 6076TIP3    H239720   0.870   6.740   2.804  1.0686 -0.0057  0.5588
 6077TIP3   OH239721   0.055   6.751   5.627  0.3183 -0.0542  0.1851
 6077TIP3    H139722   0.089   6.748   5.716  0.6457  1.2402  0.1280
 6077TIP3    H239723  -0.015   6.685   5.625  0.6709 -0.4659  1.2334
 6078TIP3   OH239724   1.021   3.676   3.402  0.9940 -0.0713 -0.4917
 6078TIP3    H139725   1.074   3.617   3.349 -1.9572 -1.2593 -2.4061
 6078TIP3    H239726   0.999   3.625   3.480  2.5694  0.4323  0.3140
 6079TIP3   OH239727   3.185   5.055   5.650 -0.2612 -0.0198  0.1610
 6079TIP3    H139728   3.223   5.139   5.623  0.2091 -0.2780  0.0038
 6079TIP3    H239729   3.145   5.073   5.735  0.6377  0.1458  0.5569
 6080TIP3   OH239730   0.447   4.259   0.896  0.2074  0.0133  0.0312
 6080TIP3    H139731   0.424   4.175   0.856  1.5426  0.5931 -2.1423
 6080TIP3    H239732   0.523   4.240   0.950 -0.4395 -0.4272  0.8130
 6081TIP3   OH239733   5.580   2.644  16.528 -0.4911  0.4137 -0.3329
 6081TIP3    H139734   5.625   2.679  16.452 -0.1245 -0.6733 -0.6357
 6081TIP3    H239735   5.625   2.684  16.603  0.0641  0.4106 -0.6592
 6082TIP3   OH239736   1.203   0.191  11.129 -0.5310 -0.5514 -0.1341
 6082TIP3    H139737   1.165   0.278  11.131  2.2836  0.8006 -0.2730
 6082TIP3    H239738   1.256   0.189  11.050  2.0081 -1.1376  1.4579
 6083TIP3   OH239739   0.650   5.426   6.178  0.2156  0.0416  0.0485
 6083TIP3    H139740   0.613   5.513   6.163  0.8480  0.1801 -0.7987
 6083TIP3    H239741   0.594   5.387   6.245  0.4717  1.4370  1.1241
 6084TIP3   OH239742   4.303   1.306   0.069 -0.0607 -0.5236  0.0679
 6084TIP3    H139743   4.356   1.244   0.119  0.8725  0.9772  1.0141
 6084TIP3    H239744   4.215   1.270   0.073  0.6257 -2.3277 -0.3128
 6085TIP3   OH239745   6.553   4.123   6.256 -0.4182  0.4170 -0.8906
 6085TIP3    H139746   6.625   4.137   6.317 -0.4330 -1.0196 -0.5172
 6085TIP3    H239747   6.476   4.159   6.300 -0.3175 -0.0584 -0.3259
 6086TIP3   OH239748   4.145   1.224  16.745 -0.3253 -0.3506 -0.2522
 6086TIP3    H139749   4.144   1.249  16.653 -0.8123 -0.0661 -0.1753
 6086TIP3    H239750   4.236   1.236  16.773  0.1544 -1.9050 -1.0760
 6087TIP3   OH239751   3.288   2.901   1.272  0.6939  0.2630  0.2120
 6087TIP3    H139752   3.266   2.854   1.191  1.3015  0.8605 -0.3216
 6087TIP3    H239753   3.325   2.985   1.241  0.6447  0.6268  1.1165
 6088TIP3   OH239754   5.208   1.424  15.883 -0.1259 -0.0413  0.1712
 6088TIP3    H139755   5.124   1.409  15.926 -0.5032  2.1746  0.2936
 6088TIP3    H239756   5.265   1.458  15.952 -0.3536  2.2961 -0.7199
 6089TIP3   OH239757   4.975   2.852   4.166 -0.1358 -0.0989 -0.0380
 6089TIP3    H139758   4.890   2.890   4.188 -1.1551 -1.8855 -0.6804
 6089TIP3    H239759   5.028   2.926   4.138 -1.1062  1.2102  1.4262
 6090TIP3   OH239760   3.482   6.011  13.772  0.1836 -0.1164  0.0477
 6090TIP3    H139761   3.510   6.041  13.859  0.3900 -0.3046  0.0469
 6090TIP3    H239762   3.418   6.076  13.744 -0.1686 -0.2592  0.5031
 6091TIP3   OH239763   4.522   1.698   0.145  0.1988 -0.3161  0.1299
 6091TIP3    H139764   4.604   1.736   0.115 -0.4067 -1.0362 -2.6790
 6091TIP3    H239765   4.535   1.604   0.139 -0.9849 -0.4386 -0.8994
 6092TIP3   OH239766   4.204   4.979  16.798 -0.4328  0.0217 -0.2790
 6092TIP3    H139767   4.144   4.905  16.811 -0.3126 -0.0556 -0.1650
 6092TIP3    H239768   4.174   5.045  16.860  1.2302 -0.9975  1.7203
 6093TIP3   OH239769   2.166   5.886   2.793 -0.2711 -0.0609  0.1586
 6093TIP3    H139770   2.209   5.813   2.837  0.3061  0.1149 -0.0987
 6093TIP3    H239771   2.089   5.847   2.752 -1.2184 -0.0951  1.8811
 6094TIP3   OH239772   4.165   1.272  16.460 -0.2639  0.0488 -0.2521
 6094TIP3    H139773   4.225   1.199  16.478 -2.5425 -1.8225  0.3706
 6094TIP3    H239774   4.182   1.296  16.369  0.0770 -1.7844 -0.7135
 6095TIP3   OH239775   0.529   0.313   4.219  0.0421  0.3976  0.0432
 6095TIP3    H139776   0.458   0.373   4.194 -0.0267  0.3807  0.2021
 6095TIP3    H239777   0.484   0.233   4.246  0.1606 -0.0833 -1.1242
 6096TIP3   OH239778   5.903   2.488   6.557  0.5043  0.0477 -0.3279
 6096TIP3    H139779   5.820   2.521   6.523  0.4130  0.9962  0.7797
 6096TIP3    H239780   5.905   2.514   6.649  2.2089  0.4299 -0.4241
 6097TIP3   OH239781   3.752   1.924   4.997 -0.6199  0.5793  0.4760
 6097TIP3    H139782   3.704   1.996   4.955 -1.0942  0.2440  0.4422
 6097TIP3    H239783   3.705   1.908   5.079 -1.3970 -0.6633 -0.1889
 6098TIP3   OH239784   0.360   3.351  12.327 -0.1314 -0.1813 -0.1491
 6098TIP3    H139785   0.288   3.407  12.357 -0.2676 -1.1393  1.4255
 6098TIP3    H239786   0.433   3.411  12.314 -0.4904  0.4705  0.7361
 6099TIP3   OH239787   1.160   2.263  16.946  0.4007 -0.1836  0.5126
 6099TIP3    H139788   1.165   2.177  16.903  4.5245  1.2081 -2.3846
 6099TIP3    H239789   1.136   2.323  16.875  1.1625  1.4939  1.6316
 6100TIP3   OH239790   6.174   0.951  13.265  0.4009 -0.3296 -0.8348
 6100TIP3    H139791   6.239   0.888  13.297  1.7844  0.4680 -1.9630
 6100TIP3    H239792   6.187   0.953  13.170  2.6546  3.8973 -0.6701
 6101TIP3   OH239793   3.805   3.604  12.776  0.1870  0.0348 -0.0884
 6101TIP3    H139794   3.718   3.568  12.796  0.8926 -0.6768  1.8557
 6101TIP3    H239795   3.786   3.676  12.715 -1.5071 -1.7421 -1.8266
 6102TIP3   OH239796   5.232   2.283  12.141 -0.6433 -0.4760  0.6254
 6102TIP3    H139797   5.219   2.336  12.063 -0.5064 -1.6241 -0.2052
 6102TIP3    H239798   5.227   2.345  12.214  1.0817  0.9138 -0.3711
 6103TIP3   OH239799   2.706   3.612  14.742 -0.0342  0.0095  0.3900
 6103TIP3    H139800   2.769   3.540  14.746  0.8814  0.7504 -0.0086
 6103TIP3    H239801   2.710   3.642  14.652  1.2649  1.9388  1.0133
 6104TIP3   OH239802   3.519   0.471  13.122  0.5633 -0.2880 -0.5650
 6104TIP3    H139803   3.531   0.376  13.127  0.0343 -0.3620 -0.6940
 6104TIP3    H239804   3.606   0.505  13.101  0.5418 -0.8192 -1.5526
 6105TIP3   OH239805   4.941   5.671  12.785 -0.0532 -0.6739 -0.5946
 6105TIP3    H139806   4.890   5.620  12.847 -0.4543 -1.1341 -1.2989
 6105TIP3    H239807   4.909   5.761  12.796  0.0689 -0.7038  0.0472
 6106TIP3   OH239808   6.032   1.481  13.215 -0.1996  0.5651  0.3670
 6106TIP3    H139809   6.049   1.555  13.157  0.4626  0.3647  0.3046
 6106TIP3    H239810   5.940   1.460  13.200 -0.1010  0.6820 -0.4129
 6107TIP3   OH239811   3.071   2.144  14.223 -0.0702  0.6427 -0.5448
 6107TIP3    H139812   3.111   2.172  14.141 -0.5328  0.0752 -0.9743
 6107TIP3    H239813   3.029   2.223  14.257 -1.6276  0.4619 -1.8970
 6108TIP3   OH239814   4.383   5.401  12.569 -0.3232  0.1492  0.6051
 6108TIP3    H139815   4.339   5.486  12.562 -0.2055  0.1731  0.1342
 6108TIP3    H239816   4.370   5.360  12.484  1.2604  0.5008  0.1548
 6109TIP3   OH239817   6.349   6.276  15.995  0.3089 -0.2654 -0.0110
 6109TIP3    H139818   6.332   6.211  16.062  0.8369 -0.1190  0.2671
 6109TIP3    H239819   6.265   6.323  15.985  0.9527  1.7052  2.6906
 6110TIP3   OH239820   4.270   6.617   0.226  0.0461  0.1860 -0.4143
 6110TIP3    H139821   4.267   6.687   0.161  3.9785  0.2918 -0.6646
 6110TIP3    H239822   4.269   6.536   0.174  0.5308  0.1913 -0.4294
 6111TIP3   OH239823   4.410   1.780   2.118  0.2157  0.0918 -0.3409
 6111TIP3    H139824   4.326   1.827   2.121  0.5139  0.6195  0.0901
 6111TIP3    H239825   4.463   1.823   2.186  1.0664  0.2192 -1.0675
 6112TIP3   OH239826   2.452   3.787   0.406  0.1788  0.3999 -0.2090
 6112TIP3    H139827   2.503   3.843   0.347 -1.0922 -1.0910 -2.8774
 6112TIP3    H239828   2.500   3.704   0.408 -1.1607 -0.4550 -1.4098
 6113TIP3   OH239829   4.031   2.421  16.782  0.0778 -0.0616  0.6748
 6113TIP3    H139830   4.029   2.471  16.700  0.2709 -1.5797 -0.2897
 6113TIP3    H239831   3.945   2.436  16.821 -0.7923 -0.8685 -0.8052
 6114TIP3   OH239832   2.873   2.244  11.142 -0.3070  0.2901  0.6088
 6114TIP3    H139833   2.836   2.169  11.189 -1.3415 -0.2495 -0.9886
 6114TIP3    H239834   2.897   2.306  11.211  0.2948 -1.3659  1.9576
 6115TIP3   OH239835   0.926   4.619   3.353  0.3359  0.0669  0.2777
 6115TIP3    H139836   0.989   4.558   3.391  0.9297  0.4333 -0.0922
 6115TIP3    H239837   0.883   4.569   3.283  2.1545  0.5903 -1.2926
 6116TIP3   OH239838   3.738   5.886  11.713 -0.2811  0.4596  0.0546
 6116TIP3    H139839   3.694   5.802  11.700 -1.5542  1.4099 -2.6894
 6116TIP3    H239840   3.829   5.870  11.688 -0.0789 -0.4595  1.2854
 6117TIP3   OH239841   5.659   2.109   2.364 -0.5104  0.3385 -0.2620
 6117TIP3    H139842   5.681   2.045   2.297  2.2196  0.0381  0.7980
 6117TIP3    H239843   5.598   2.063   2.422  0.3202 -0.8488 -0.2904
 6118TIP3   OH239844   6.315   1.771  11.884 -0.1266 -0.6531  0.1727
 6118TIP3    H139845   6.402   1.791  11.847 -0.2800 -0.9929 -0.3917
 6118TIP3    H239846   6.265   1.737  11.809 -1.0425  0.4031  0.2918
 6119TIP3   OH239847   5.794   3.470   1.600  0.5647 -0.1294 -0.2337
 6119TIP3    H139848   5.752   3.396   1.555 -0.8026  0.6599 -0.3312
 6119TIP3    H239849   5.831   3.522   1.529  0.0942  0.1145 -0.3068
 6120TIP3   OH239850   3.150   1.813  10.981 -0.5563 -0.8775  0.3226
 6120TIP3    H139851   3.106   1.881  11.032 -1.1695 -1.3725  0.4667
 6120TIP3    H239852   3.081   1.752  10.958 -0.0189 -1.4328  0.1527
 6121TIP3   OH239853   4.505   4.402   0.971  0.5335 -0.3493 -0.1683
 6121TIP3    H139854   4.476   4.492   0.960  2.7395  0.7645  2.1717
 6121TIP3    H239855   4.472   4.375   1.056  2.0572 -0.7708  0.3315
 6122TIP3   OH239856   1.618   0.756  17.028 -0.2589 -0.4680 -0.1438
 6122TIP3    H139857   1.698   0.725  16.987  0.1944 -0.0502  0.4016
 6122TIP3    H239858   1.645   0.832  17.080 -1.0738 -0.0897 -0.2527
 6123TIP3   OH239859   1.706   3.928   1.096 -0.6561  0.0889 -0.0731
 6123TIP3    H139860   1.763   3.974   1.034  1.0136  0.2736  1.5064
 6123TIP3    H239861   1.639   3.887   1.041  1.1544 -0.3821 -2.0971
 6124TIP3   OH239862   4.615   4.566   2.115  0.0076 -0.3256  0.1737
 6124TIP3    H139863   4.628   4.562   2.210  0.2137 -0.3673  0.1448
 6124TIP3    H239864   4.697   4.602   2.081  0.0273 -0.5415 -0.0124
 6125TIP3   OH239865   1.673   5.239  11.722 -0.2819  0.2783  0.3015
 6125TIP3    H139866   1.702   5.287  11.645  1.8210  1.5433  1.7786
 6125TIP3    H239867   1.612   5.298  11.765  1.3945  1.2265  1.4906
 6126TIP3   OH239868   4.762   0.756   2.487  0.3235  0.2976  0.7548
 6126TIP3    H139869   4.802   0.707   2.558 -0.1124 -0.4539  0.4929
 6126TIP3    H239870   4.687   0.703   2.460 -0.0983  1.0539  0.3924
 6127TIP3   OH239871   0.021   1.135  13.338 -0.1672  0.2676 -0.3448
 6127TIP3    H139872  -0.048   1.200  13.344  1.1686  1.6959  0.2271
 6127TIP3    H239873   0.098   1.184  13.310  0.7835 -1.1356 -0.2843
 6128TIP3   OH239874   2.877   5.210   0.860  0.4284 -0.1130  0.1455
 6128TIP3    H139875   2.853   5.302   0.859  1.1487  0.0813 -1.0332
 6128TIP3    H239876   2.828   5.171   0.788  0.0579 -0.6841  0.6906
 6129TIP3   OH239877   0.547   0.014   4.316 -0.3119  0.2295  0.1327
 6129TIP3    H139878   0.612   0.081   4.336  0.3960 -0.4123  0.0163
 6129TIP3    H239879   0.591  -0.069   4.335 -0.2849 -0.3286 -2.1225
 6130TIP3   OH239880   5.500   1.713   2.938  0.0720  0.0654  0.0696
 6130TIP3    H139881   5.422   1.764   2.917  1.2367  2.6966  1.6394
 6130TIP3    H239882   5.539   1.693   2.853 -1.8722 -0.7026 -0.7142
 6131TIP3   OH239883   2.055   3.226  14.735  0.5311  0.7240 -0.3745
 6131TIP3    H139884   2.139   3.182  14.721 -0.5832 -1.5405 -0.3593
 6131TIP3    H239885   2.073   3.291  14.803  1.8153 -1.2540  1.2970
 6132TIP3   OH239886   1.757   0.047   1.209 -1.0307 -0.5763 -0.3684
 6132TIP3    H139887   1.851   0.033   1.221 -1.0841 -1.0676 -0.4825
 6132TIP3    H239888   1.717  -0.008   1.276 -1.1988  1.4533  1.2942
 6133TIP3   OH239889   5.238   5.630  15.178  0.2849 -0.1308  0.3108
 6133TIP3    H139890   5.306   5.695  15.160 -1.3528  1.1802 -1.5261
 6133TIP3    H239891   5.208   5.650  15.266  1.5211 -0.0291  0.7201
 6134TIP3   OH239892   6.772   6.209  11.784  0.0847 -0.4609  0.7429
 6134TIP3    H139893   6.727   6.280  11.830  2.7491  0.7899  1.5864
 6134TIP3    H239894   6.773   6.137  11.847 -0.1937 -0.2879  0.9507
 6135TIP3   OH239895   1.165   2.657   1.002  0.1371 -0.0828  0.5378
 6135TIP3    H139896   1.202   2.745   1.003  1.5853 -0.5543  3.7589
 6135TIP3    H239897   1.228   2.605   0.952  0.1050  0.3933 -0.0067
 6136TIP3   OH239898   2.023   6.583  13.741 -0.1374 -0.3966  0.2460
 6136TIP3    H139899   2.042   6.618  13.828  1.2692 -0.7359  0.1046
 6136TIP3    H239900   2.098   6.608  13.689 -1.3625  0.5571 -1.1297
 6137TIP3   OH239901   2.728   4.058   2.312 -0.5329  0.4325 -0.2414
 6137TIP3    H139902   2.721   4.118   2.238  0.6337  1.0147  0.0941
 6137TIP3    H239903   2.647   4.073   2.363 -1.1259  0.3528 -1.1411
 6138TIP3   OH239904   3.070   2.081   0.699 -0.5436 -0.7623  0.2565
 6138TIP3    H139905   2.999   2.017   0.697 -1.3963  0.1609  0.2462
 6138TIP3    H239906   3.032   2.161   0.662  0.1731  0.0663  1.2315
 6139TIP3   OH239907   1.064   4.171   2.867  0.2194  0.7968 -0.5293
 6139TIP3    H139908   1.156   4.145   2.865  0.5299  1.7930 -3.0960
 6139TIP3    H239909   1.059   4.236   2.937  1.1960 -0.0573  0.3676
 6140TIP3   OH239910   5.161   3.268   0.697 -0.1644 -0.7759  0.1114
 6140TIP3    H139911   5.245   3.303   0.667 -1.4042 -0.6455 -3.7931
 6140TIP3    H239912   5.144   3.194   0.638 -2.8369 -0.6973  0.6864
 6141TIP3   OH239913   5.655   6.265   4.790  0.1458  0.0834  0.3032
 6141TIP3    H139914   5.618   6.334   4.845 -1.1889 -0.0020 -0.4435
 6141TIP3    H239915   5.592   6.255   4.718  1.0836 -0.8544 -0.4225
 6142TIP3   OH239916   2.474   0.281   0.780 -0.0028  0.2102  0.0270
 6142TIP3    H139917   2.450   0.342   0.710 -0.9180 -0.4831 -0.2875
 6142TIP3    H239918   2.393   0.234   0.799  0.3840 -0.0300  1.1422
 6143TIP3   OH239919   0.265   4.473   3.413 -0.4156  0.7375  0.2059
 6143TIP3    H139920   0.179   4.514   3.402 -0.9390 -0.0423  1.1464
 6143TIP3    H239921   0.294   4.502   3.500 -0.6316 -0.5399  0.7263
 6144TIP3   OH239922   0.643   2.070  15.082 -0.0446 -0.0641  0.2772
 6144TIP3    H139923   0.686   2.083  14.997 -0.3038  2.8624  0.4966
 6144TIP3    H239924   0.550   2.075  15.063 -0.1815 -1.5671  0.4719
 6145TIP3   OH239925   2.608   2.278   4.661  0.2357 -0.1466 -0.1928
 6145TIP3    H139926   2.603   2.372   4.677 -1.3928 -0.0257 -1.2166
 6145TIP3    H239927   2.701   2.257   4.667  0.4960  1.2531  1.4613
 6146TIP3   OH239928   6.017   4.656  12.816 -0.6483 -0.1149 -0.1095
 6146TIP3    H139929   6.093   4.666  12.874  0.2869 -0.0108 -1.3060
 6146TIP3    H239930   5.957   4.726  12.843  0.5502  1.0765 -0.4268
 6147TIP3   OH239931   0.315   1.794   2.188 -0.8059  0.1490  0.3165
 6147TIP3    H139932   0.353   1.862   2.132 -1.0657 -0.3027 -0.4323
 6147TIP3    H239933   0.348   1.814   2.276  0.4784  0.2620 -0.1626
 6148TIP3   OH239934   0.016   5.103  14.418  0.1574 -0.4841 -0.0169
 6148TIP3    H139935  -0.012   5.060  14.499  1.3333 -1.6619 -0.1957
 6148TIP3    H239936  -0.053   5.083  14.355 -0.0939 -0.7561  0.3395
 6149TIP3   OH239937   0.130   0.791  15.444 -0.7437 -0.3528 -0.1804
 6149TIP3    H139938   0.153   0.701  15.423 -0.5906  0.2377 -3.0460
 6149TIP3    H239939   0.036   0.796  15.425 -0.8192  0.0112  0.2831
 6150TIP3   OH239940   4.046   2.111   1.656  0.2089  0.1131 -0.4549
 6150TIP3    H139941   4.135   2.077   1.667  1.0051  2.0419 -0.5680
 6150TIP3    H239942   3.990   2.046   1.699  1.8227 -0.3904  1.0020
 6151TIP3   OH239943   4.564   1.718  13.297  0.7596 -1.1231  0.2595
 6151TIP3    H139944   4.640   1.682  13.251  0.9934  0.6460 -0.8552
 6151TIP3    H239945   4.598   1.741  13.384  2.1161  1.3473 -0.8007
 6152TIP3   OH239946   2.753   1.139   4.643  0.1460  0.1504  0.4792
 6152TIP3    H139947   2.694   1.212   4.624 -0.6117 -0.3100  1.0348
 6152TIP3    H239948   2.838   1.181   4.657  0.3741  0.6873 -1.9746
 6153TIP3   OH239949   5.305   3.523  14.095 -0.1195 -0.1726 -0.4514
 6153TIP3    H139950   5.262   3.574  14.164 -0.7311 -0.7598 -0.3913
 6153TIP3    H239951   5.293   3.432  14.121 -0.6625 -0.4193 -1.4963
 6154TIP3   OH239952   3.725   4.794   2.535 -0.0914 -0.1232 -0.0303
 6154TIP3    H139953   3.634   4.815   2.513  0.3261  0.6773 -1.0721
 6154TIP3    H239954   3.772   4.877   2.526  1.0704 -0.8841 -1.3182
 6155TIP3   OH239955   6.734   1.923  13.406 -0.1558  0.3976  0.3341
 6155TIP3    H139956   6.794   1.992  13.379  1.7796 -1.1539  0.4649
 6155TIP3    H239957   6.689   1.897  13.325  0.6452  0.3969 -0.1200
 6156TIP3   OH239958   6.768   1.384   3.473  0.1449 -0.3639  0.1442
 6156TIP3    H139959   6.833   1.315   3.459 -0.8424 -1.0399 -1.3490
 6156TIP3    H239960   6.766   1.397   3.568 -0.5889 -3.3253  0.6261
 6157TIP3   OH239961   6.300   0.984  12.283  0.6070 -0.2395 -0.2061
 6157TIP3    H139962   6.209   0.953  12.277  0.4998  0.2200 -1.0700
 6157TIP3    H239963   6.332   0.981  12.193  1.4798 -0.4636  0.1013
 6158TIP3   OH239964   4.723   4.024  10.612 -0.0091 -0.1298 -0.0710
 6158TIP3    H139965   4.690   4.105  10.572 -0.6173 -0.3982 -0.1232
 6158TIP3    H239966   4.655   3.959  10.594  0.1045 -0.4615  0.6674
 6159TIP3   OH239967   1.302   1.613  16.194 -0.3025  0.2506  0.0962
 6159TIP3    H139968   1.341   1.626  16.107  1.1246 -1.8446  0.3537
 6159TIP3    H239969   1.362   1.655  16.255 -0.1605 -0.1683  0.2449
 6160TIP3   OH239970   6.301   5.214  15.832 -0.1712  0.1927 -0.0925
 6160TIP3    H139971   6.380   5.252  15.792 -0.5868 -0.1071 -1.2290
 6160TIP3    H239972   6.292   5.261  15.915  1.6815 -0.3599  0.4727
 6161TIP3   OH239973   0.819   0.844  13.139  0.2746 -0.2992  0.5724
 6161TIP3    H139974   0.755   0.780  13.106  0.3111  0.0828 -0.2762
 6161TIP3    H239975   0.777   0.882  13.216 -0.4099 -0.2526  0.1868
 6162TIP3   OH239976   0.026   3.033   4.148  0.1058 -0.2965 -0.0742
 6162TIP3    H139977   0.094   3.098   4.167  1.2126 -1.3733 -0.2024
 6162TIP3    H239978   0.025   3.027   4.053  0.2557 -0.7195 -0.0490
 6163TIP3   OH239979   6.348   2.307  12.750 -0.1092 -0.1226 -0.3773
 6163TIP3    H139980   6.388   2.250  12.816 -2.2295 -0.4133  0.7381
 6163TIP3    H239981   6.349   2.254  12.670  2.2929  0.1485 -0.5972
 6164TIP3   OH239982   0.807   3.774  15.837 -0.0117  0.1931 -0.2430
 6164TIP3    H139983   0.742   3.734  15.895  0.8222  0.2838  0.7820
 6164TIP3    H239984   0.881   3.793  15.894  0.1392  1.9642 -0.9690
 6165TIP3   OH239985   0.135   1.033  12.579  0.2533 -0.5259  0.1518
 6165TIP3    H139986   0.215   1.011  12.532  1.5669  0.1552  1.9516
 6165TIP3    H239987   0.136   1.128  12.584 -0.4011 -0.5385  0.6243
 6166TIP3   OH239988   1.899   4.351   2.681  0.2563 -0.2471 -0.0565
 6166TIP3    H139989   1.903   4.407   2.758  1.0403  0.0708 -0.3180
 6166TIP3    H239990   1.811   4.313   2.683 -0.9209  2.2418 -0.7544
 6167TIP3   OH239991   4.515   4.144  12.001  0.4472 -0.0237 -0.0552
 6167TIP3    H139992   4.428   4.152  12.041  0.7896 -1.5316  1.0871
 6167TIP3    H239993   4.527   4.226  11.953 -1.2327  0.5899  0.4914
 6168TIP3   OH239994   1.906   5.669  12.306  0.8266 -0.1325  0.9570
 6168TIP3    H139995   1.856   5.631  12.378  0.3169 -0.3376  0.5039
 6168TIP3    H239996   1.997   5.649  12.326  0.6907 -0.1558  1.5603
 6169TIP3   OH239997   3.617   4.950  11.809  0.6270  0.1113  0.8599
 6169TIP3    H139998   3.633   4.862  11.774  0.8738  0.8292 -0.9301
 6169TIP3    H239999   3.698   4.972  11.855  1.6988  0.4520 -1.0771
 6170TIP3   OH240000   5.711   6.564  11.574  0.3236 -0.0308  0.5663
 6170TIP3    H140001   5.801   6.546  11.549 -0.8207 -2.5079 -2.3768
 6170TIP3    H240002   5.687   6.490  11.630 -0.7331 -1.1500 -1.2785
 6171TIP3   OH240003   6.103   4.970  10.459 -0.2689  0.1453 -0.5223
 6171TIP3    H140004   6.008   4.953  10.459 -0.2075 -0.6598  1.9871
 6171TIP3    H240005   6.113   5.044  10.520  0.7817 -0.3365 -0.0934
 6172TIP3   OH240006   4.083   0.602  12.276 -0.2858  0.0238 -0.2532
 6172TIP3    H140007   4.036   0.623  12.195 -0.2782  1.3480  0.0634
 6172TIP3    H240008   4.086   0.684  12.324 -1.1935 -0.9386  1.5910
 6173TIP3   OH240009   0.498   5.622   5.682  0.1634 -0.3215 -0.5229
 6173TIP3    H140010   0.475   5.581   5.765  0.6839 -1.7303 -1.0463
 6173TIP3    H240011   0.483   5.715   5.696 -0.0561 -0.5728  1.0418
 6174TIP3   OH240012   0.387   2.322  14.544  1.4576  0.1515  0.4217
 6174TIP3    H140013   0.453   2.299  14.479  0.4344 -1.3410 -0.1387
 6174TIP3    H240014   0.437   2.353  14.620  2.8090 -1.1278  0.0880
 6175TIP3   OH240015   0.352   0.775   0.138  0.0810  0.0424  0.0557
 6175TIP3    H140016   0.291   0.848   0.151 -2.7469 -1.5104 -2.9156
 6175TIP3    H240017   0.377   0.750   0.227 -0.4952  3.2142  1.2708
 6176TIP3   OH240018   3.582   4.493  15.054 -0.4989 -0.0548  0.8330
 6176TIP3    H140019   3.531   4.497  14.973 -3.7282 -2.2413  2.5077
 6176TIP3    H240020   3.642   4.421  15.041 -1.6736 -1.0391  0.6429
 6177TIP3   OH240021   6.682   1.462  10.536  0.4842 -0.3791  0.2347
 6177TIP3    H140022   6.758   1.500  10.492  1.8439 -0.8949  2.0026
 6177TIP3    H240023   6.630   1.538  10.563  1.6449  0.1220  1.1250
 6178TIP3   OH240024   4.129   3.952   1.200 -0.4522  0.1443 -0.1697
 6178TIP3    H140025   4.081   3.940   1.282 -1.7496  0.7377 -0.8275
 6178TIP3    H240026   4.151   3.863   1.172 -1.4462 -0.1540 -0.0170
 6179TIP3   OH240027   3.967   4.159   3.163  0.4288 -0.5659 -0.9048
 6179TIP3    H140028   3.875   4.179   3.148  1.0489  1.8849 -1.9600
 6179TIP3    H240029   4.004   4.149   3.075  1.6553  1.3435 -0.6851
 6180TIP3   OH240030   5.359   0.146  11.770  0.0809 -0.1831 -0.1441
 6180TIP3    H140031   5.276   0.193  11.774  0.4979  0.8849 -2.4796
 6180TIP3    H240032   5.415   0.193  11.832 -0.6866 -0.1545  0.5490
 6181TIP3   OH240033   1.754   4.577   2.227 -0.3323 -0.1342 -0.1147
 6181TIP3    H140034   1.768   4.504   2.167 -1.3188 -0.9805  0.6311
 6181TIP3    H240035   1.735   4.535   2.312 -0.0906  0.9996  0.5228
 6182TIP3   OH240036   4.618   3.109   6.334  0.3330 -0.2965 -0.1763
 6182TIP3    H140037   4.688   3.108   6.269  0.9502 -1.0323  0.4779
 6182TIP3    H240038   4.544   3.149   6.289  1.4099  1.2688 -0.6271
 6183TIP3   OH240039   1.567   1.266   0.573  0.3211  0.5889  0.1026
 6183TIP3    H140040   1.659   1.289   0.581  0.1446  0.8649  1.6321
 6183TIP3    H240041   1.563   1.209   0.496  1.7602  0.5579  0.0232
 6184TIP3   OH240042   6.372   5.045  14.978  0.4195 -0.5613 -0.5458
 6184TIP3    H140043   6.396   4.962  15.019 -1.2593 -1.3396 -1.0580
 6184TIP3    H240044   6.382   5.029  14.884 -1.4332 -0.7469 -0.7486
 6185TIP3   OH240045   1.184   2.143   3.315 -0.3095  0.4011  0.4615
 6185TIP3    H140046   1.121   2.153   3.244  0.4113  1.2216 -0.0827
 6185TIP3    H240047   1.149   2.071   3.368 -0.2362 -1.0679 -1.3853
 6186TIP3   OH240048   4.141   3.920   0.216 -0.3985  0.1374 -0.2937
 6186TIP3    H140049   4.205   3.888   0.280 -0.5625  2.1129  0.9337
 6186TIP3    H240050   4.080   3.847   0.204 -0.7379 -0.0805  2.3166
 6187TIP3   OH240051   2.250   1.426   6.570  0.8489  0.0413 -0.3473
 6187TIP3    H140052   2.190   1.353   6.555 -1.9656  2.0829  0.1477
 6187TIP3    H240053   2.281   1.450   6.482 -0.3491 -0.0726 -0.8201
 6188TIP3   OH240054   1.931   3.694  16.870 -0.0421 -0.1256 -0.7775
 6188TIP3    H140055   2.024   3.683  16.891 -0.6140 -2.1384  1.0443
 6188TIP3    H240056   1.885   3.672  16.951 -2.1942 -1.7620 -2.3177
 6189TIP3   OH240057   6.337   2.753  13.328  0.3535 -0.3091  0.2999
 6189TIP3    H140058   6.416   2.767  13.277 -0.1535  0.5555 -0.2687
 6189TIP3    H240059   6.320   2.658  13.322  0.3387 -0.2328 -1.0828
 6190TIP3   OH240060   2.674   0.514   1.038  0.6243 -0.3409 -0.0711
 6190TIP3    H140061   2.580   0.511   1.054  0.5771  0.1948 -0.2450
 6190TIP3    H240062   2.683   0.490   0.945  0.6898 -0.7516  0.0391
 6191TIP3   OH240063   3.284   3.511   5.786  0.2565  0.2475 -0.0657
 6191TIP3    H140064   3.197   3.500   5.825  0.5311  2.2539  1.2642
 6191TIP3    H240065   3.345   3.481   5.854  0.6401 -0.3061 -0.6455
 6192TIP3   OH240066   5.886   4.060  11.635 -0.0289 -0.2859  0.0605
 6192TIP3    H140067   5.842   4.123  11.692 -0.6459  1.1665 -1.9076
 6192TIP3    H240068   5.978   4.064  11.661  0.0126  1.7131 -0.2036
 6193TIP3   OH240069   4.325   2.546   4.799  0.2365  0.4221  0.1004
 6193TIP3    H140070   4.259   2.608   4.829 -0.8131 -0.9160  0.6313
 6193TIP3    H240071   4.408   2.582   4.833 -0.1503  2.1601 -0.6513
 6194TIP3   OH240072   0.183   2.845  14.214 -0.0245 -0.1279 -0.7753
 6194TIP3    H140073   0.191   2.936  14.242  2.1569 -0.1943 -0.9567
 6194TIP3    H240074   0.157   2.798  14.293 -0.7541  0.5854 -0.5769
 6195TIP3   OH240075   3.064   0.650   2.799 -0.3028 -0.0019 -0.4382
 6195TIP3    H140076   3.128   0.667   2.868  0.3628  0.6591 -1.2057
 6195TIP3    H240077   3.095   0.569   2.759  0.2686  0.5101 -1.0436
 6196TIP3   OH240078   6.010   4.729   0.311 -0.0109  0.2511  0.3205
 6196TIP3    H140079   6.081   4.700   0.254 -2.0472  1.3441 -3.0542
 6196TIP3    H240080   5.935   4.675   0.285 -0.5566 -1.0225  3.9171
 6197TIP3   OH240081   5.898   3.068   1.440  0.0503  0.0680  0.4015
 6197TIP3    H140082   5.945   3.119   1.506  0.1801  1.2076 -0.5381
 6197TIP3    H240083   5.880   3.130   1.370 -0.4593 -1.0127 -0.4604
 6198TIP3   OH240084   4.677   6.499   4.159  0.0233  0.3216 -0.0083
 6198TIP3    H140085   4.600   6.550   4.182 -1.2613 -2.0577  1.2710
 6198TIP3    H240086   4.748   6.540   4.209 -0.4435  2.1974 -0.7801
 6199TIP3   OH240087   0.605   1.096   0.184  0.1211 -0.2344  0.6941
 6199TIP3    H140088   0.676   1.143   0.228  0.9178 -0.3124 -0.4491
 6199TIP3    H240089   0.526   1.119   0.233  0.6434  1.4484  0.8148
 6200TIP3   OH240090   1.524   4.829   3.180 -0.4136  0.2205 -0.0028
 6200TIP3    H140091   1.556   4.843   3.269 -0.8147  0.7299  0.0699
 6200TIP3    H240092   1.578   4.886   3.125  0.9330 -1.2966 -0.3283
 6201TIP3   OH240093   1.301   4.031  14.726 -0.1729  0.1606 -0.4411
 6201TIP3    H140094   1.244   4.099  14.761  0.2509  0.3834 -0.1725
 6201TIP3    H240095   1.266   3.950  14.761  0.6244  0.4297  1.0501
 6202TIP3   OH240096   4.183   4.449   0.739 -0.6502 -0.6694 -0.4220
 6202TIP3    H140097   4.130   4.495   0.804 -0.5796 -0.6129 -0.4049
 6202TIP3    H240098   4.245   4.397   0.790 -0.6723 -0.7172 -0.4427
 6203TIP3   OH240099   1.318   6.021  16.583  0.5936  0.4349  0.4460
 6203TIP3    H140100   1.238   6.061  16.618  0.5289 -1.1310  2.2414
 6203TIP3    H240101   1.322   6.051  16.492 -2.2162  0.2906  0.1853
 6204TIP3   OH240102   4.208   2.671  16.892 -0.3891 -0.4767  0.0888
 6204TIP3    H140103   4.228   2.579  16.875 -2.1612 -0.9420  0.2584
 6204TIP3    H240104   4.268   2.720  16.837  0.2318 -1.7464 -0.4037
 6205TIP3   OH240105   6.568   2.718  13.832 -0.1743 -0.4630 -0.3811
 6205TIP3    H140106   6.631   2.666  13.782 -0.0293 -0.0005 -0.6986
 6205TIP3    H240107   6.569   2.681  13.920 -0.9553 -1.7522 -0.8929
 6206TIP3   OH240108   4.634   3.359   0.685  0.7094  0.3582 -1.0308
 6206TIP3    H140109   4.725   3.341   0.707  0.1685 -0.5767  0.5982
 6206TIP3    H240110   4.635   3.450   0.653  2.0158  0.8647  0.3252
 6207TIP3   OH240111   3.740   1.524   3.929  0.5672  0.0997  0.2795
 6207TIP3    H140112   3.699   1.545   3.845  1.1170  1.2233  0.2822
 6207TIP3    H240113   3.802   1.595   3.944  1.3143 -0.7058  1.0823
 6208TIP3   OH240114   5.681   2.209  15.514  0.5744  0.3750 -0.1053
 6208TIP3    H140115   5.752   2.212  15.578  1.2327 -1.8373 -0.6779
 6208TIP3    H240116   5.605   2.182  15.565  0.1494  2.3640  0.4285
 6209TIP3   OH240117   2.059   6.605  16.766 -0.5838 -0.1434 -0.0464
 6209TIP3    H140118   2.026   6.524  16.806  2.4142 -0.9227  1.0923
 6209TIP3    H240119   2.063   6.585  16.672  0.4582 -1.5109  0.2539
 6210TIP3   OH240120   2.463   0.192   2.126 -0.1756  0.9093  0.2110
 6210TIP3    H140121   2.475   0.169   2.218  0.8585  3.2073  0.7251
 6210TIP3    H240122   2.536   0.149   2.081 -0.1422  0.5411  0.6091
 6211TIP3   OH240123   5.692   1.415   5.590  0.1029 -0.6755  0.4117
 6211TIP3    H140124   5.718   1.507   5.587  2.2918 -1.2434 -0.3401
 6211TIP3    H240125   5.745   1.378   5.662  1.2681 -1.8356 -0.9670
 6212TIP3   OH240126   2.422   5.141  15.738  0.5543  0.6158 -0.1634
 6212TIP3    H140127   2.444   5.047  15.737 -0.8041  0.2470  0.9680
 6212TIP3    H240128   2.486   5.179  15.798  1.6153  0.5776 -1.2331
 6213TIP3   OH240129   4.952   0.976   0.451 -0.0463  0.0979  0.2023
 6213TIP3    H140130   4.966   0.919   0.376 -1.7343  1.1098 -0.9427
 6213TIP3    H240131   4.944   0.917   0.526  1.7142 -0.9235 -0.3561
 6214TIP3   OH240132   2.670   1.900  16.526  0.2793 -0.5019 -0.0015
 6214TIP3    H140133   2.712   1.977  16.565 -0.3122 -0.9085  1.4920
 6214TIP3    H240134   2.737   1.832  16.529  0.4909 -0.3204 -0.4483
 6215TIP3   OH240135   4.031   3.204   0.505 -0.0976 -0.0286  0.1869
 6215TIP3    H140136   4.106   3.155   0.538  1.0994  1.0417 -0.8297
 6215TIP3    H240137   3.976   3.139   0.463  1.0762 -0.6329 -0.4665
 6216TIP3   OH240138   3.921   2.787  15.853 -0.2835 -0.9175  0.0862
 6216TIP3    H140139   3.897   2.766  15.943  1.2728 -3.3845  0.0207
 6216TIP3    H240140   3.988   2.855  15.861 -2.3870  1.2861  0.5226
 6217TIP3   OH240141   4.246   4.575   1.504  0.4493  0.1973  0.8756
 6217TIP3    H140142   4.188   4.511   1.462  0.3815  0.6270  0.2981
 6217TIP3    H240143   4.276   4.532   1.584  1.8262 -1.2803 -0.3773
 6218TIP3   OH240144   0.018   4.510  12.029 -0.1608  0.2384 -0.3998
 6218TIP3    H140145   0.083   4.499  12.098 -0.8960 -0.9621  0.1171
 6218TIP3    H240146   0.028   4.433  11.973 -1.2947 -0.1032 -0.1634
 6219TIP3   OH240147   2.473   4.306  13.556  0.0334  0.0127 -0.0262
 6219TIP3    H140148   2.445   4.241  13.491  0.6556 -0.7885  0.4888
 6219TIP3    H240149   2.494   4.255  13.634 -1.9927  1.0730  1.2894
 6220TIP3   OH240150   1.622   2.607   5.257 -0.1990 -0.0930 -0.0656
 6220TIP3    H140151   1.654   2.636   5.343  0.4330 -0.5320 -0.1481
 6220TIP3    H240152   1.541   2.657   5.244 -0.1465  0.1969  0.6530
 6221TIP3   OH240153   0.523   4.010   2.018  0.1960  0.2353  0.6539
 6221TIP3    H140154   0.441   3.983   2.061 -0.1789  1.8228  0.9814
 6221TIP3    H240155   0.509   4.101   1.994  0.7307 -0.3311 -2.1361
 6222TIP3   OH240156   1.294   4.514  10.982  0.1709 -0.0596  0.1049
 6222TIP3    H140157   1.227   4.516  10.914 -1.0232 -1.0542  1.2096
 6222TIP3    H240158   1.296   4.604  11.015 -0.0000  0.1812 -0.5304
 6223TIP3   OH240159   3.561   1.846   4.434 -0.0197  0.3956  0.0707
 6223TIP3    H140160   3.590   1.898   4.509  0.6765 -2.0460  1.5911
 6223TIP3    H240161   3.608   1.763   4.442 -0.6937 -0.3433 -2.5316
 6224TIP3   OH240162   3.565   6.349   1.720  0.8949  0.2359 -0.0719
 6224TIP3    H140163   3.557   6.365   1.814  0.0323 -0.0334 -0.0847
 6224TIP3    H240164   3.480   6.375   1.685  0.9221 -0.4554 -0.6596
 6225TIP3   OH240165   2.004   2.187  12.269  0.3090  0.2159  0.1172
 6225TIP3    H140166   1.995   2.199  12.364 -1.5264 -0.4158  0.0659
 6225TIP3    H240167   1.938   2.246  12.232 -0.5069 -1.1476 -0.6504
 6226TIP3   OH240168   5.087   6.665  13.315  0.2309 -0.0501 -0.5027
 6226TIP3    H140169   4.998   6.640  13.342  0.3424 -1.0034 -0.9928
 6226TIP3    H240170   5.144   6.612  13.371  0.4778 -0.2400 -0.9329
 6227TIP3   OH240171   3.987   0.476  10.713  0.7795  0.2289  0.6354
 6227TIP3    H140172   3.921   0.544  10.699 -1.1615 -1.6105  0.2548
 6227TIP3    H240173   3.940   0.407  10.761  1.7793 -2.0815 -1.4978
 6228TIP3   OH240174   6.143   4.582   4.311  0.4730  0.3085 -0.0938
 6228TIP3    H140175   6.097   4.666   4.316  1.0329  0.7655 -2.0210
 6228TIP3    H240176   6.085   4.521   4.357 -0.9067  1.3520 -0.3623
 6229TIP3   OH240177   4.840   6.354   3.187 -0.8786 -0.1563 -0.1587
 6229TIP3    H140178   4.752   6.318   3.197 -0.5049 -1.2164 -0.4683
 6229TIP3    H240179   4.898   6.281   3.209 -0.0656 -0.3913 -2.7019
 6230TIP3   OH240180   3.199   4.729   5.042 -0.1644  0.0235 -0.1359
 6230TIP3    H140181   3.278   4.783   5.034 -0.1048  0.1659  1.1211
 6230TIP3    H240182   3.140   4.782   5.096 -0.1628 -1.0862  1.0025
 6231TIP3   OH240183   4.067   6.500  15.992  0.6185 -0.0020  0.1023
 6231TIP3    H140184   4.107   6.459  15.915 -0.6515  0.8709 -1.0699
 6231TIP3    H240185   4.124   6.575  16.010  2.2960 -1.5125  1.5603
 6232TIP3   OH240186   4.641   5.423  16.344 -0.0600 -0.3503  0.1422
 6232TIP3    H140187   4.689   5.497  16.383 -0.2346 -0.2120  0.0920
 6232TIP3    H240188   4.612   5.371  16.419  0.5495 -0.6742  0.1620
 6233TIP3   OH240189   1.012   6.296   5.019  0.3460  0.2936  0.4532
 6233TIP3    H140190   0.992   6.268   4.930  1.5059 -0.5277  0.4316
 6233TIP3    H240191   0.995   6.218   5.072  1.3657  0.2380  0.7106
 6234TIP3   OH240192   5.186   1.792  17.170 -0.4591  0.4929 -0.3391
 6234TIP3    H140193   5.210   1.730  17.239 -2.0642  0.3003  0.0869
 6234TIP3    H240194   5.187   1.877  17.214 -2.2946  0.2794  0.1781
 6235TIP3   OH240195   0.750   4.474  10.349 -0.0506  0.0509  0.4437
 6235TIP3    H140196   0.722   4.392  10.390  2.0376 -0.9658 -0.0372
 6235TIP3    H240197   0.679   4.535  10.367 -0.6307 -1.2132  2.8486
 6236TIP3   OH240198   4.889   6.765   0.692  0.4254  0.4949 -0.1783
 6236TIP3    H140199   4.927   6.784   0.607  0.7804  0.2114 -0.0868
 6236TIP3    H240200   4.833   6.840   0.711  1.4093  1.2089 -0.0371
 6237TIP3   OH240201   3.974   4.795   4.949 -0.0919 -0.6810 -0.0955
 6237TIP3    H140202   4.025   4.825   5.024 -0.0691 -1.2141  0.1066
 6237TIP3    H240203   3.986   4.700   4.948 -0.0408 -0.6726 -0.8129
 6238TIP3   OH240204   0.841   3.445   5.384  0.1895 -0.4553  0.3593
 6238TIP3    H140205   0.822   3.533   5.352 -0.9738 -0.7447  0.2125
 6238TIP3    H240206   0.801   3.387   5.320 -0.3289 -1.0703  1.2220
 6239TIP3   OH240207   1.218   1.950  15.584 -0.2666  0.2836 -0.0615
 6239TIP3    H140208   1.256   2.004  15.654 -3.5172  0.6347  1.6339
 6239TIP3    H240209   1.234   1.860  15.613 -0.6213  0.4177  0.5623
 6240TIP3   OH240210   1.124   4.596   5.126 -0.2579  0.1140  0.6606
 6240TIP3    H140211   1.105   4.552   5.209 -1.8336  1.8049  1.2714
 6240TIP3    H240212   1.139   4.687   5.150  0.4419  0.4209 -0.8130
 6241TIP3   OH240213   3.706   6.734   3.526 -0.0951 -0.3657 -0.7089
 6241TIP3    H140214   3.685   6.645   3.499 -1.4502  0.0764 -1.2229
 6241TIP3    H240215   3.622   6.781   3.521  0.6341  0.9918 -0.7087
 6242TIP3   OH240216   5.133   0.606  13.621 -0.0509  0.2784  0.3959
 6242TIP3    H140217   5.128   0.599  13.526  2.5315 -1.2911  0.2739
 6242TIP3    H240218   5.128   0.700  13.639 -1.9021  0.5296 -1.1260
 6243TIP3   OH240219   6.319   3.099   1.152 -0.2066  0.2712  0.9012
 6243TIP3    H140220   6.261   3.066   1.221  0.1637 -1.2971  0.5040
 6243TIP3    H240221   6.407   3.079   1.183 -0.0459 -0.5788 -0.0807
 6244TIP3   OH240222   4.349   4.994   0.552  0.1804  0.4931 -0.3536
 6244TIP3    H140223   4.419   5.060   0.555  1.0211 -0.4282  2.3175
 6244TIP3    H240224   4.394   4.911   0.537 -0.6236  0.1760 -1.1201
 6245TIP3   OH240225   0.395   2.670  13.472 -0.2815  0.4210  0.5633
 6245TIP3    H140226   0.363   2.735  13.535  0.4565  0.3084  1.0690
 6245TIP3    H240227   0.481   2.702  13.447 -1.0098  1.0578 -1.2744
 6246TIP3   OH240228   0.619   5.102  15.952 -0.0842 -0.1129  0.7453
 6246TIP3    H140229   0.664   5.080  15.870 -1.5245 -0.6953  0.0721
 6246TIP3    H240230   0.526   5.105  15.928 -0.3679  2.1594  1.8276
 6247TIP3   OH240231   2.275   1.858   2.640 -0.4728 -0.3265 -0.4501
 6247TIP3    H140232   2.357   1.907   2.629 -0.3889 -0.2560  0.4588
 6247TIP3    H240233   2.278   1.825   2.729 -2.0648  0.8648  0.1019
 6248TIP3   OH240234   4.875   0.780   5.209  0.5114 -0.3325  0.2101
 6248TIP3    H140235   4.939   0.729   5.259 -0.6320 -1.0097  1.0044
 6248TIP3    H240236   4.843   0.719   5.142 -1.2753 -0.8795  1.5149
 6249TIP3   OH240237   4.951   1.966   6.278 -0.1193 -0.3395 -1.1112
 6249TIP3    H140238   4.886   1.914   6.325  0.0983 -0.2948 -0.7581
 6249TIP3    H240239   4.990   1.905   6.216  0.4072 -0.7086 -0.4373
 6250TIP3   OH240240   1.551   2.316  17.062  0.0178  0.2815  0.5170
 6250TIP3    H140241   1.639   2.344  17.088  0.3298  0.0627 -0.2815
 6250TIP3    H240242   1.544   2.342  16.970 -0.7877  0.3759  0.6013
 6251TIP3   OH240243   2.656   1.621   0.574  0.1735 -0.4352  0.4134
 6251TIP3    H140244   2.709   1.603   0.652 -0.6401  1.1204  1.3904
 6251TIP3    H240245   2.710   1.680   0.522 -0.3639  0.8410  1.2274
 6252TIP3   OH240246   1.149   1.160   5.715 -0.7575 -0.7321  0.7445
 6252TIP3    H140247   1.073   1.106   5.695 -0.4187 -0.8575 -0.2291
 6252TIP3    H240248   1.112   1.239   5.754 -1.4699 -0.3846 -0.5727
 6253TIP3   OH240249   3.901   0.678  13.936  0.0286  0.4714  0.2796
 6253TIP3    H140250   3.815   0.644  13.909 -0.3218  0.5596  1.2279
 6253TIP3    H240251   3.953   0.678  13.856 -0.8712  0.4538 -0.3240
 6254TIP3   OH240252   5.674   6.527  16.058  0.3398 -0.4343  0.2039
 6254TIP3    H140253   5.608   6.593  16.042  0.8214 -0.4595 -2.1941
 6254TIP3    H240254   5.671   6.513  16.153 -1.8282  0.8211  0.3873
 6255TIP3   OH240255   1.768   4.150   5.414 -0.1134 -0.5047 -0.2797
 6255TIP3    H140256   1.764   4.057   5.390 -3.1530 -0.3956 -0.6329
 6255TIP3    H240257   1.822   4.190   5.347  1.0748 -1.9655 -0.2443
 6256TIP3   OH240258   4.779   2.878   4.845 -0.6458  0.6274 -0.0892
 6256TIP3    H140259   4.819   2.890   4.932  0.6997  0.3125 -0.6325
 6256TIP3    H240260   4.718   2.951   4.837 -0.7049  0.7250  1.0808
 6257TIP3   OH240261   3.618   4.927   4.909  0.4655  0.8716 -0.1935
 6257TIP3    H140262   3.660   5.011   4.891 -0.4790  1.4773  0.3542
 6257TIP3    H240263   3.588   4.935   5.000 -0.8693  0.4831 -0.5796
 6258TIP3   OH240264   0.892   1.586   0.504 -0.5539 -0.2537 -0.3807
 6258TIP3    H140265   0.881   1.579   0.409 -0.1135 -1.0274 -0.3771
 6258TIP3    H240266   0.802   1.590   0.538 -0.7618 -1.5300 -0.7210
 6259TIP3   OH240267   3.177   2.968   4.729  0.3579  0.1162 -0.2844
 6259TIP3    H140268   3.123   2.928   4.797  1.0426 -0.2893  0.0422
 6259TIP3    H240269   3.234   2.896   4.700  1.6470  0.8418  0.3438
 6260TIP3   OH240270   6.340   4.158   5.256 -0.2529  0.0651 -0.2017
 6260TIP3    H140271   6.333   4.072   5.216 -1.5181 -0.2583  0.6528
 6260TIP3    H240272   6.365   4.141   5.347  0.0373  0.6414 -0.1630
 6261TIP3   OH240273   2.434   5.833  16.349 -0.2966  0.5103  0.5327
 6261TIP3    H140274   2.348   5.795  16.365 -0.0787 -1.4905 -2.3041
 6261TIP3    H240275   2.417   5.914  16.301 -0.6252 -0.3222 -0.7909
 6262TIP3   OH240276   0.327   0.635  12.292  0.0913  0.1709  0.0903
 6262TIP3    H140277   0.304   0.630  12.199 -0.3237  0.7214  0.1576
 6262TIP3    H240278   0.420   0.613  12.295 -0.5107 -2.9715 -0.1009
 6263TIP3   OH240279   4.437   3.683  15.651 -0.3782 -0.3301  0.0314
 6263TIP3    H140280   4.406   3.667  15.562  0.4957  0.8926 -0.5204
 6263TIP3    H240281   4.417   3.775  15.668 -2.3628 -1.0055  1.8877
 6264TIP3   OH240282   2.545   5.294   0.957  0.1866  0.4181 -0.6206
 6264TIP3    H140283   2.450   5.285   0.961  0.1185  1.0941  2.7570
 6264TIP3    H240284   2.576   5.213   0.916 -1.7865 -0.3324 -0.7184
 6265TIP3   OH240285   2.217   0.213  16.281  0.1813 -0.2797 -0.1204
 6265TIP3    H140286   2.249   0.161  16.355  0.6608  1.0324  0.6233
 6265TIP3    H240287   2.207   0.150  16.210  1.0400 -1.3266  0.6574
 6266TIP3   OH240288   1.287   2.900   0.936 -0.8052 -0.1925  0.3606
 6266TIP3    H140289   1.326   2.937   0.857  4.2729 -0.2960  2.4001
 6266TIP3    H240290   1.259   2.977   0.987 -1.2592  0.0523 -0.2439
 6267TIP3   OH240291   2.228   3.405   2.903 -0.7769  0.4677 -0.1901
 6267TIP3    H140292   2.139   3.434   2.927 -0.5680  2.1933 -1.4043
 6267TIP3    H240293   2.282   3.430   2.978 -0.8276  2.1003 -0.6807
 6268TIP3   OH240294   6.435   2.237  15.279  0.4115 -0.3295 -0.5108
 6268TIP3    H140295   6.434   2.333  15.277  0.3100 -0.3340 -0.7563
 6268TIP3    H240296   6.426   2.211  15.187  1.2181 -0.5702 -0.5325
 6269TIP3   OH240297   4.802   1.930   0.949 -0.5436  0.2908  0.0653
 6269TIP3    H140298   4.752   1.870   0.893  0.0718 -1.0355  0.8880
 6269TIP3    H240299   4.844   1.873   1.013 -0.3490  1.6621  1.2087
 6270TIP3   OH240300   4.073   4.900  17.113  0.3614 -0.4016  0.3134
 6270TIP3    H140301   3.978   4.888  17.110  0.5507 -2.0574 -0.3889
 6270TIP3    H240302   4.088   4.987  17.076 -0.8233 -0.4521 -0.3224
 6271TIP3   OH240303   1.480   5.749   0.577 -0.0397 -0.4725  0.3681
 6271TIP3    H140304   1.408   5.760   0.515  0.7725  0.5692 -0.4380
 6271TIP3    H240305   1.507   5.658   0.566  0.0549 -0.3208 -0.7923
 6272TIP3   OH240306   2.767   0.811  10.665  0.1021  0.5469 -0.1314
 6272TIP3    H140307   2.741   0.849  10.581 -1.4700  1.7415  0.8405
 6272TIP3    H240308   2.810   0.728  10.641 -1.0059  0.4561 -2.0771
 6273TIP3   OH240309   3.844   3.312  11.382  0.2966 -0.6008 -0.3030
 6273TIP3    H140310   3.804   3.365  11.452  0.2732 -0.2947 -0.5482
 6273TIP3    H240311   3.770   3.276  11.334  0.2939 -1.9449  0.6678
 6274TIP3   OH240312   4.463   1.566  16.111 -0.2352 -0.3070  0.0593
 6274TIP3    H140313   4.468   1.608  16.025 -3.1536  1.4983  0.5997
 6274TIP3    H240314   4.510   1.626  16.169  0.7072 -0.9039 -0.0812
 6275TIP3   OH240315   4.994   4.599   1.492  0.6922 -0.2192  0.0320
 6275TIP3    H140316   5.002   4.623   1.585  0.5530  1.8763 -0.4439
 6275TIP3    H240317   4.987   4.683   1.447  1.4306 -1.1791 -1.9562
 6276TIP3   OH240318   2.939   2.869  14.121 -0.2566 -0.1326  0.3989
 6276TIP3    H140319   3.030   2.837  14.118  0.9029  2.5954  2.3557
 6276TIP3    H240320   2.895   2.809  14.181 -0.0465 -1.9655 -1.1742
 6277TIP3   OH240321   2.453   6.353  12.538  0.0853 -0.6147 -0.1407
 6277TIP3    H140322   2.481   6.438  12.573  1.0483 -0.5644 -0.9801
 6277TIP3    H240323   2.359   6.349  12.557  0.0270  0.6241 -0.0757
 6278TIP3   OH240324   3.998   5.710   1.960  0.7480  0.0335  0.0876
 6278TIP3    H140325   3.950   5.768   2.019  1.7977  0.5153  0.4782
 6278TIP3    H240326   4.035   5.768   1.894 -0.2488 -0.4800 -0.9580
 6279TIP3   OH240327   3.726   0.931  11.820 -0.7052  0.1365 -0.1802
 6279TIP3    H140328   3.726   1.027  11.817 -2.9750  0.2022  0.2800
 6279TIP3    H240329   3.819   0.907  11.815 -0.0850  2.3437 -0.3014
 6280TIP3   OH240330   5.765   3.745  12.803 -0.3063 -0.0801  0.5234
 6280TIP3    H140331   5.785   3.653  12.785  0.3398  0.3700 -1.3601
 6280TIP3    H240332   5.774   3.754  12.898  2.1789 -1.3848  0.4893
 6281TIP3   OH240333   5.297   2.731  11.740  0.3717  0.3312  0.2816
 6281TIP3    H140334   5.378   2.761  11.780 -0.0920  1.2651  0.5474
 6281TIP3    H240335   5.317   2.643  11.708  0.9190 -0.2140  2.0286
 6282TIP3   OH240336   1.476   3.982  11.407  0.0431 -0.1456 -0.3683
 6282TIP3    H140337   1.454   4.055  11.465  0.0990 -0.4935  0.0865
 6282TIP3    H240338   1.559   3.949  11.440  1.1230  0.9236 -1.8555
 6283TIP3   OH240339   4.952   1.890  12.650  0.3997  0.1506  0.5719
 6283TIP3    H140340   4.977   1.799  12.633 -0.2869 -0.3943  2.3272
 6283TIP3    H240341   4.873   1.904  12.597  0.0905 -0.5017  0.8575
 6284TIP3   OH240342   4.556   1.861   2.333 -0.3671  0.2581  0.3941
 6284TIP3    H140343   4.561   1.906   2.417  0.7026 -1.7939  1.5251
 6284TIP3    H240344   4.499   1.785   2.350  0.2170 -0.4252 -0.5939
 6285TIP3   OH240345   4.174   3.243   2.475 -0.2188 -0.6589  0.6754
 6285TIP3    H140346   4.259   3.215   2.440  0.8376  2.3577  0.4847
 6285TIP3    H240347   4.164   3.194   2.556  0.4835 -2.8858 -0.5056
 6286TIP3   OH240348   0.531   1.240   4.783 -0.6646 -0.3716  0.4666
 6286TIP3    H140349   0.487   1.212   4.703 -2.0175  1.8433  0.3484
 6286TIP3    H240350   0.469   1.299   4.826  0.6705 -0.2048  2.3409
 6287TIP3   OH240351   0.133   4.290   5.188 -0.1983 -0.1461 -0.1562
 6287TIP3    H140352   0.131   4.337   5.271 -2.6141  0.7776 -0.6730
 6287TIP3    H240353   0.222   4.254   5.183  0.6814  1.5718  1.7975
 6288TIP3   OH240354   0.207   4.942  14.719  0.5037 -0.1492  0.1973
 6288TIP3    H140355   0.232   4.957  14.627  0.3278 -0.0024  0.1724
 6288TIP3    H240356   0.276   4.887  14.754  0.8667  0.2553  0.1268
 6289TIP3   OH240357   4.772   5.170   0.157 -0.1974  0.1865  0.1911
 6289TIP3    H140358   4.798   5.237   0.220  0.0992 -0.7990  1.1578
 6289TIP3    H240359   4.677   5.161   0.170 -0.4554  1.2628 -0.8120
 6290TIP3   OH240360   4.891   0.926  11.242  0.9043  0.3309  0.3027
 6290TIP3    H140361   4.807   0.883  11.260  1.0692  0.5569  1.7065
 6290TIP3    H240362   4.956   0.870  11.284  1.9652 -1.7999 -3.6500
 6291TIP3   OH240363   5.941   3.468  13.471 -0.3202  0.0021  0.0059
 6291TIP3    H140364   6.030   3.434  13.468  0.1021  0.8777  1.4212
 6291TIP3    H240365   5.945   3.540  13.535 -2.2774 -0.6940  0.9904
 6292TIP3   OH240366   6.333   1.143   1.757  0.1446  0.3889  0.6159
 6292TIP3    H140367   6.249   1.119   1.717 -0.3844 -0.1637  2.0070
 6292TIP3    H240368   6.311   1.168   1.846  1.6068 -1.0495  1.4377
 6293TIP3   OH240369   3.391   3.641   6.554  0.1468 -0.1063 -0.0905
 6293TIP3    H140370   3.378   3.566   6.496  1.2978 -1.0727  0.8575
 6293TIP3    H240371   3.371   3.717   6.499  1.5666 -0.9541 -1.8946
 6294TIP3   OH240372   2.926   2.791   1.998 -0.4309  0.0088  0.2478
 6294TIP3    H140373   2.969   2.846   1.933  0.2731  0.3324  0.9630
 6294TIP3    H240374   2.859   2.744   1.950 -0.0098  0.3388 -0.6799
 6295TIP3   OH240375   2.638   3.490  17.116  0.5620 -0.4965 -0.0799
 6295TIP3    H140376   2.687   3.416  17.154 -0.1780  0.3111  2.7005
 6295TIP3    H240377   2.706   3.551  17.087  1.1708 -1.5510 -0.9592
 6296TIP3   OH240378   0.438   1.358   2.686 -0.1174 -0.0986 -0.2379
 6296TIP3    H140379   0.454   1.361   2.780 -0.5750  2.3380 -0.1788
 6296TIP3    H240380   0.472   1.441   2.653  0.5473 -1.1307 -2.3387
 6297TIP3   OH240381   1.751   4.571   0.453  0.0713  0.2247 -0.3173
 6297TIP3    H140382   1.831   4.623   0.449 -0.0821  0.9623  3.2100
 6297TIP3    H240383   1.772   4.497   0.510 -1.4263 -0.1776 -0.2357
 6298TIP3   OH240384   4.327   6.383  12.973 -0.1185 -0.5877 -0.3769
 6298TIP3    H140385   4.320   6.397  12.879  0.4894  3.2696  0.0099
 6298TIP3    H240386   4.242   6.410  13.008  0.5719  0.6968  0.3666
 6299TIP3   OH240387   2.900   4.662   3.213  0.2512 -0.0856  0.8020
 6299TIP3    H140388   2.917   4.720   3.288  1.1182  0.3938  0.2620
 6299TIP3    H240389   2.966   4.593   3.221  0.6550  0.2256  0.2370
 6300TIP3   OH240390   3.569   0.438   3.091 -0.1179 -0.2557 -0.4197
 6300TIP3    H140391   3.545   0.530   3.095  1.8181  0.3268 -1.1414
 6300TIP3    H240392   3.622   0.423   3.170  0.2153 -0.5480 -0.6944
 6301TIP3   OH240393   1.879   2.326  12.993 -0.9709 -0.4975  0.0431
 6301TIP3    H140394   1.939   2.387  12.949  1.1573 -2.6786 -0.3034
 6301TIP3    H240395   1.819   2.382  13.042  0.7881  1.8612 -0.3426
 6302TIP3   OH240396   4.067   2.423  12.306  0.5120  0.5201 -0.2035
 6302TIP3    H140397   4.004   2.495  12.312 -0.7927 -0.3901 -2.2205
 6302TIP3    H240398   4.133   2.454  12.245  0.3412  0.2861 -0.5074
 6303TIP3   OH240399   4.289   2.050  14.171 -0.0630 -0.4550  0.0386
 6303TIP3    H140400   4.225   2.092  14.228 -0.9668 -0.0579 -1.2411
 6303TIP3    H240401   4.237   1.994  14.113  0.8260 -0.8034 -0.4456
 6304TIP3   OH240402   4.879   1.034  13.871  0.5306  0.0324 -0.3949
 6304TIP3    H140403   4.970   1.013  13.893  0.7822  0.3408 -1.0942
 6304TIP3    H240404   4.871   1.009  13.779  1.1825  3.7759 -1.6801
 6305TIP3   OH240405   0.047   1.131  15.211 -0.0720 -0.2770 -0.3896
 6305TIP3    H140406   0.043   1.171  15.298  2.3179 -0.8576  0.0637
 6305TIP3    H240407   0.042   1.205  15.150 -1.4843  0.1574  0.2178
 6306TIP3   OH240408   6.109   0.862   3.570 -0.5748 -0.2315  0.4858
 6306TIP3    H140409   6.072   0.882   3.656 -0.2821  2.2203  0.1108
 6306TIP3    H240410   6.042   0.892   3.508  0.0411 -0.1790 -0.1598
 6307TIP3   OH240411   1.019   1.056   4.642  0.5059  0.3602  0.6314
 6307TIP3    H140412   1.031   1.140   4.686  0.7533  0.4249  0.4374
 6307TIP3    H240413   1.102   1.010   4.653 -0.1347 -0.5129  2.1200
 6308TIP3   OH240414   6.190   5.602  13.580 -0.4604  0.4721 -0.3998
 6308TIP3    H140415   6.167   5.658  13.506  0.8104  0.3385 -0.9328
 6308TIP3    H240416   6.278   5.570  13.559 -0.2749  0.0393  0.9425
 6309TIP3   OH240417   2.314   3.708  16.315  0.3034  0.1149 -0.0076
 6309TIP3    H140418   2.309   3.787  16.369  0.7709  1.1023 -1.3455
 6309TIP3    H240419   2.276   3.639  16.369  1.7697  0.8087  2.0187
 6310TIP3   OH240420   4.514   2.431   5.053  0.0390  0.4942 -0.1546
 6310TIP3    H140421   4.434   2.442   5.104  0.4546 -1.5882  1.0640
 6310TIP3    H240422   4.488   2.375   4.979  0.3878 -0.3599  0.3585
 6311TIP3   OH240423   1.070   2.858   5.597 -0.2321 -0.0116  0.0191
 6311TIP3    H140424   1.018   2.781   5.575  0.7830 -0.9851  0.8864
 6311TIP3    H240425   1.159   2.835   5.572 -0.1115  1.4350 -0.9806
 6312TIP3   OH240426   3.080   3.655   5.222 -0.2316 -0.6712 -0.0749
 6312TIP3    H140427   3.081   3.751   5.223  2.5008 -0.4726  3.7602
 6312TIP3    H240428   2.991   3.632   5.251 -0.4913  0.7781  0.3706
 6313TIP3   OH240429   3.101   2.977  16.362  0.5037 -0.1923  0.9214
 6313TIP3    H140430   3.082   3.029  16.284 -1.6491 -0.2640  1.3334
 6313TIP3    H240431   3.047   2.899  16.353  1.0678 -0.7225  1.9543
 6314TIP3   OH240432   1.540   4.289   1.073  0.1317  1.7204  0.0058
 6314TIP3    H140433   1.559   4.379   1.044  0.7315  1.2107 -1.2485
 6314TIP3    H240434   1.626   4.252   1.091  0.2501  0.3146 -2.8915
 6315TIP3   OH240435   6.159   1.842   1.581 -0.1848 -0.2823  0.6978
 6315TIP3    H140436   6.223   1.832   1.652 -0.1423 -2.0902  0.4426
 6315TIP3    H240437   6.096   1.771   1.595  0.8926 -1.9590 -2.1154
 6316TIP3   OH240438   3.126   6.513  16.320 -0.1590  0.8802  0.4335
 6316TIP3    H140439   3.129   6.607  16.302  0.3312  0.7755 -0.0595
 6316TIP3    H240440   3.205   6.496  16.371 -0.4756  0.8090  0.9056
 6317TIP3   OH240441   5.981   6.233  13.297 -0.1605  0.4963 -0.3544
 6317TIP3    H140442   5.933   6.155  13.323 -3.1591  2.0212 -0.9242
 6317TIP3    H240443   5.946   6.257  13.212  2.8730  0.8387 -1.6516
 6318TIP3   OH240444   6.741   5.652  15.543 -0.3418  0.3745 -0.1645
 6318TIP3    H140445   6.729   5.717  15.474  0.0306 -0.1200 -0.6987
 6318TIP3    H240446   6.689   5.685  15.616  0.3666  1.6191 -0.1990
 6319TIP3   OH240447   5.778   3.638  17.026 -0.3835 -0.3509  0.1507
 6319TIP3    H140448   5.731   3.643  16.943  1.2580 -0.1614 -0.8158
 6319TIP3    H240449   5.711   3.616  17.091 -1.3110 -3.2171 -1.6019
 6320TIP3   OH240450   2.374   4.957   2.623 -0.5469 -0.3451 -0.0192
 6320TIP3    H140451   2.388   4.910   2.541 -2.5322 -0.2084 -0.4816
 6320TIP3    H240452   2.282   4.944   2.643 -0.2947  0.3035  1.7905
 6321TIP3   OH240453   4.547   0.484   3.981  0.1175 -0.4019 -0.0009
 6321TIP3    H140454   4.586   0.569   4.002  1.8077 -0.8344 -1.1600
 6321TIP3    H240455   4.610   0.420   4.015 -0.8393 -1.2036  0.3122
 6322TIP3   OH240456   2.982   0.805  14.041  0.0703 -0.7081 -0.1788
 6322TIP3    H140457   3.001   0.760  14.124  0.5117 -1.3795 -0.6405
 6322TIP3    H240458   2.892   0.782  14.022  0.1644 -1.0605 -0.2023
 6323TIP3   OH240459   0.084   5.605  14.488  0.5693  0.3587 -0.5199
 6323TIP3    H140460   0.111   5.531  14.543  0.1651  2.0855  2.1916
 6323TIP3    H240461   0.158   5.619  14.429  2.3509  0.1257  1.5179
 6324TIP3   OH240462   2.051   4.968   2.296 -0.2120  0.2669 -0.5624
 6324TIP3    H140463   2.068   5.022   2.219 -0.5267  0.4104 -0.5329
 6324TIP3    H240464   2.098   4.886   2.279 -0.0471  0.4073 -0.7779
 6325TIP3   OH240465   0.634   1.426  15.202  0.1610 -0.0259  0.4447
 6325TIP3    H140466   0.620   1.513  15.241 -0.3012  0.8092 -1.4789
 6325TIP3    H240467   0.632   1.441  15.108  0.5160 -2.0820  0.0585
 6326TIP3   OH240468   5.427   2.283   0.189  0.2490 -0.2989 -0.1521
 6326TIP3    H140469   5.499   2.342   0.164  0.0748  0.6556  1.4354
 6326TIP3    H240470   5.454   2.247   0.273 -0.6481 -0.7793 -0.0577
 6327TIP3   OH240471   1.030   2.878  10.968 -0.3541  0.2800  0.2916
 6327TIP3    H140472   1.037   2.782  10.965  0.4818  0.3452  0.0356
 6327TIP3    H240473   1.116   2.908  10.996 -0.7631  0.9441  0.8958
 6328TIP3   OH240474   1.251   0.870   1.064  0.3727 -0.7562  0.0512
 6328TIP3    H140475   1.161   0.862   1.095 -0.2106 -0.5012 -1.4605
 6328TIP3    H240476   1.283   0.951   1.104 -1.2343  0.9850 -1.9504
 6329TIP3   OH240477   0.542   3.946   3.413 -0.0458  0.1080 -0.5160
 6329TIP3    H140478   0.464   3.985   3.453  0.6836  0.9187  0.1586
 6329TIP3    H240479   0.598   4.020   3.391 -0.1225 -0.3593 -2.4720
 6330TIP3   OH240480   0.260   5.758   0.996 -0.4109 -0.2025 -0.4443
 6330TIP3    H140481   0.189   5.821   0.981  0.2855  0.8438  0.5231
 6330TIP3    H240482   0.340   5.810   0.988  0.1857 -1.0160  0.1452
 6331TIP3   OH240483   6.005   0.161  15.133  0.5226  0.1071  0.0079
 6331TIP3    H140484   6.066   0.107  15.183 -3.6997 -2.9214  2.5062
 6331TIP3    H240485   6.017   0.133  15.042  0.2983 -3.3562  0.9028
 6332TIP3   OH240486   5.665   4.103   2.892 -0.3780 -0.3214  0.0070
 6332TIP3    H140487   5.695   4.017   2.863 -0.9549 -0.5110 -0.0200
 6332TIP3    H240488   5.700   4.163   2.827 -0.2179 -0.5638 -0.1331
 6333TIP3   OH240489   2.308   0.626  15.280 -0.1205 -0.7438  0.2976
 6333TIP3    H140490   2.366   0.550  15.287  0.0213 -1.0923 -2.9499
 6333TIP3    H240491   2.254   0.608  15.203 -2.3997  1.0092  1.3505
 6334TIP3   OH240492   0.492   5.898   4.918  0.1558 -0.6887 -0.2606
 6334TIP3    H140493   0.518   5.851   4.998  2.9436  0.5651 -0.2961
 6334TIP3    H240494   0.468   5.985   4.949 -1.0470 -0.8984 -0.5825
 6335TIP3   OH240495   5.222   0.398  15.483  0.1739  0.3674  0.6948
 6335TIP3    H140496   5.196   0.473  15.429 -1.2515  0.6251  1.6918
 6335TIP3    H240497   5.245   0.330  15.420 -1.5212  0.6301 -0.2520
 6336TIP3   OH240498   5.036   6.166   3.238  0.4499  0.0135  0.7541
 6336TIP3    H140499   5.031   6.070   3.237 -0.7960  0.0564 -0.1923
 6336TIP3    H240500   5.118   6.187   3.193 -0.0761 -0.5993 -0.5421
 6337TIP3   OH240501   5.103   1.494   1.578  0.6250 -0.3685  0.2611
 6337TIP3    H140502   5.064   1.489   1.665 -2.4356  0.4401 -0.9304
 6337TIP3    H240503   5.094   1.405   1.543 -0.2003 -0.1950  0.0056
 6338TIP3   OH240504   0.274   2.199  12.692 -0.2272  0.1560  0.2371
 6338TIP3    H140505   0.353   2.232  12.736  0.0669 -1.9575  1.4214
 6338TIP3    H240506   0.219   2.165  12.762 -1.4805  0.1144 -0.7254
 6339TIP3   OH240507   2.683   6.341   6.425 -0.4891 -0.1243  0.0625
 6339TIP3    H140508   2.728   6.257   6.416  0.2921  0.2480  0.3924
 6339TIP3    H240509   2.746   6.406   6.393 -0.5587  0.4638  1.0483
 6340TIP3   OH240510   3.614   5.697   5.854 -0.3719 -0.1772  0.3065
 6340TIP3    H140511   3.664   5.628   5.896 -0.4538 -0.2989  0.2063
 6340TIP3    H240512   3.633   5.688   5.761 -0.9383 -0.5231  0.2156
 6341TIP3   OH240513   2.680   6.170  13.660 -0.0920 -0.2341 -0.3685
 6341TIP3    H140514   2.710   6.227  13.590  1.0576  0.4419  0.6405
 6341TIP3    H240515   2.746   6.178  13.728 -1.0380 -1.0733  0.6960
 6342TIP3   OH240516   6.153   1.929  15.904 -0.0526  0.4590 -0.2097
 6342TIP3    H140517   6.097   1.899  15.833 -1.5349 -0.9121  1.4260
 6342TIP3    H240518   6.110   2.008  15.937 -1.9276 -1.2869  1.8704
 6343TIP3   OH240519   0.560   0.982  15.435  0.4758 -0.1066 -0.0541
 6343TIP3    H140520   0.580   1.038  15.510 -2.1530  1.3734 -0.3690
 6343TIP3    H240521   0.538   1.043  15.364  1.5657 -1.4970 -1.6958
 6344TIP3   OH240522   3.095   0.698  14.256  0.1642  0.0280 -0.0245
 6344TIP3    H140523   3.066   0.716  14.346 -2.9371 -0.5686 -0.7900
 6344TIP3    H240524   3.166   0.634  14.267  0.0158  0.1213  1.9881
 6345TIP3   OH240525   0.608   6.818  11.426 -0.1152 -0.4734 -0.0587
 6345TIP3    H140526   0.574   6.736  11.392 -1.2933  0.0840 -0.3058
 6345TIP3    H240527   0.678   6.843  11.366 -0.5239 -0.7230 -0.6425
 6346TIP3   OH240528   2.549   2.213   5.153 -0.2571 -0.3128 -0.0439
 6346TIP3    H140529   2.458   2.236   5.133 -0.4415 -2.7889 -2.5901
 6346TIP3    H240530   2.594   2.218   5.069  1.7300 -0.3124  0.9553
 6347TIP3   OH240531   5.630   6.647  14.689  0.1809  0.3268 -0.4553
 6347TIP3    H140532   5.538   6.624  14.686 -0.0355  1.1101 -0.0314
 6347TIP3    H240533   5.672   6.586  14.628 -0.4039 -0.9420  0.3747
 6348TIP3   OH240534   0.404   1.855  11.660 -0.2797  0.6090 -0.2990
 6348TIP3    H140535   0.334   1.902  11.705 -1.6849 -0.6489 -1.0752
 6348TIP3    H240536   0.374   1.765  11.658  3.1560 -0.8628  2.8145
 6349TIP3   OH240537   3.734   4.035  14.392 -0.3490 -0.0810  0.1246
 6349TIP3    H140538   3.710   4.110  14.447 -0.4822  0.8922 -1.2222
 6349TIP3    H240539   3.813   4.000  14.434  0.0754  1.1907  0.4505
 6350TIP3   OH240540   2.857   0.988   0.290 -1.0518  0.2613 -0.3534
 6350TIP3    H140541   2.832   0.908   0.243 -0.0339  0.0736 -0.6113
 6350TIP3    H240542   2.898   1.042   0.223 -0.1638  0.2635  0.1794
 6351TIP3   OH240543   3.431   6.510  13.324  0.2301 -0.2001 -0.2462
 6351TIP3    H140544   3.391   6.488  13.240  2.8614 -4.0269 -0.7945
 6351TIP3    H240545   3.504   6.568  13.301 -0.0870  0.1702 -0.3332
 6352TIP3   OH240546   0.577   4.210  14.908  0.0945 -0.1910 -0.1907
 6352TIP3    H140547   0.634   4.266  14.960 -1.1607 -2.3075  3.8838
 6352TIP3    H240548   0.499   4.263  14.891  1.1254  1.0177 -1.3301
 6353TIP3   OH240549   0.690   3.826  13.059 -0.5976 -0.3797  0.3723
 6353TIP3    H140550   0.648   3.912  13.063  1.1654  0.7995 -2.4759
 6353TIP3    H240551   0.632   3.773  13.004  0.8084  0.8575 -2.5197
 6354TIP3   OH240552   3.835   0.553  16.741 -0.0707  0.9240 -0.4293
 6354TIP3    H140553   3.775   0.493  16.787 -3.4851  2.5898 -2.3293
 6354TIP3    H240554   3.807   0.640  16.768  1.6911  1.7989 -1.2783
 6355TIP3   OH240555   3.704   4.248   3.082  0.0774  0.2388 -0.7604
 6355TIP3    H140556   3.639   4.183   3.107 -0.5635  0.2966 -2.1920
 6355TIP3    H240557   3.711   4.239   2.987  1.1231  1.2103 -0.7925
 6356TIP3   OH240558   4.290   4.757  17.016  0.4027 -0.2819 -0.5745
 6356TIP3    H140559   4.335   4.841  17.020 -0.0341  0.0054 -1.4837
 6356TIP3    H240560   4.200   4.776  17.039  0.4173 -0.6040 -0.2371
 6357TIP3   OH240561   1.868   6.815  14.421 -0.9205 -0.3073 -0.2542
 6357TIP3    H140562   1.926   6.763  14.478 -0.9292 -0.0138  0.0254
 6357TIP3    H240563   1.829   6.880  14.479 -2.9758 -1.6407 -0.0405
 6358TIP3   OH240564   6.050   4.104   2.950 -0.0864 -0.2348 -0.0277
 6358TIP3    H140565   6.082   4.132   3.035 -1.2351  0.6103  0.1436
 6358TIP3    H240566   5.994   4.029   2.968 -1.0385  0.4831  0.0818
 6359TIP3   OH240567   3.328   4.737  16.040  0.4695 -0.0162  0.3852
 6359TIP3    H140568   3.256   4.704  16.094 -0.6016  0.8508 -0.4853
 6359TIP3    H240569   3.321   4.687  15.959 -0.2863  1.3326 -0.3965
 6360TIP3   OH240570   5.516   5.778  13.867 -0.1097  0.4577  0.3005
 6360TIP3    H140571   5.569   5.849  13.902  0.9758  0.3828 -1.0926
 6360TIP3    H240572   5.461   5.820  13.800  0.5947 -0.0042 -0.5873
 6361TIP3   OH240573   4.701   2.322  12.282  0.3924 -0.0471 -0.6497
 6361TIP3    H140574   4.777   2.330  12.225  0.3345  2.2607 -0.4918
 6361TIP3    H240575   4.667   2.411  12.290 -2.6071 -1.0523 -1.0704
 6362TIP3   OH240576   5.702   3.540   6.063  0.5144 -0.2587  0.1506
 6362TIP3    H140577   5.736   3.451   6.065 -1.9458 -1.2637  0.7090
 6362TIP3    H240578   5.682   3.560   6.155 -0.6647  0.1428 -0.1807
 6363TIP3   OH240579   3.168   3.411   1.988 -0.0493  0.1957 -0.6780
 6363TIP3    H140580   3.177   3.381   1.897 -0.7690 -0.0464 -0.6736
 6363TIP3    H240581   3.150   3.505   1.981  1.7022  0.5738 -0.7091
 6364TIP3   OH240582   3.220   5.750  16.978  0.1614 -0.1259 -0.0445
 6364TIP3    H140583   3.184   5.686  17.040  1.1838 -1.0755 -0.3902
 6364TIP3    H240584   3.274   5.807  17.032 -0.4799  0.2436  0.2148
 6365TIP3   OH240585   3.751   1.740   0.084  0.0724  0.4915 -0.1169
 6365TIP3    H140586   3.661   1.771   0.073  0.0379  0.9028  1.1246
 6365TIP3    H240587   3.794   1.759   0.001  0.1074  4.0632  0.5735
 6366TIP3   OH240588   5.120   5.410   0.332  0.4049  0.1743  0.2015
 6366TIP3    H140589   5.213   5.411   0.308  0.6848  1.6595  1.2319
 6366TIP3    H240590   5.121   5.397   0.427 -0.4925 -0.6617  0.1075
 6367TIP3   OH240591   0.365   6.371  14.874 -0.4172  0.0824 -0.3416
 6367TIP3    H140592   0.432   6.382  14.807 -0.3933 -0.7175 -0.4541
 6367TIP3    H240593   0.284   6.356  14.826  0.0231 -3.1525 -0.2588
 6368TIP3   OH240594   4.547   4.751   4.918 -0.1280  0.1851 -0.5363
 6368TIP3    H140595   4.589   4.694   4.983  1.1950  2.9304  1.1931
 6368TIP3    H240596   4.456   4.721   4.916  0.3286 -1.4838  0.8474
 6369TIP3   OH240597   0.830   1.145   5.799 -0.0165 -0.7216  0.1093
 6369TIP3    H140598   0.763   1.190   5.746 -0.8600 -0.8817  1.0157
 6369TIP3    H240599   0.786   1.126   5.882  1.1557 -0.8628  0.7146
 6370TIP3   OH240600   1.575   0.669  10.744  0.0150  0.0980  0.6224
 6370TIP3    H140601   1.630   0.712  10.809  0.7906 -2.2440  1.6336
 6370TIP3    H240602   1.628   0.669  10.664  0.3152  0.3713  0.8180
 6371TIP3   OH240603   1.590   2.381   3.745 -0.2935 -0.3138  0.1786
 6371TIP3    H140604   1.553   2.299   3.778  1.3935 -1.3225 -0.3159
 6371TIP3    H240605   1.595   2.438   3.822  1.4480 -1.8139  1.2496
 6372TIP3   OH240606   3.601   2.739   2.517  0.3320 -0.3580  0.0708
 6372TIP3    H140607   3.672   2.742   2.581 -0.1388  0.5362  0.5766
 6372TIP3    H240608   3.613   2.818   2.464 -1.8145  1.3644  1.9117
 6373TIP3   OH240609   6.655   2.594  16.470 -0.3176  0.6410  0.4196
 6373TIP3    H140610   6.750   2.597  16.454 -0.1649 -0.1000  1.1095
 6373TIP3    H240611   6.621   2.672  16.427  0.4073  0.1423 -1.1098
 6374TIP3   OH240612   0.572   4.425   5.455  0.5480 -0.0033  0.3111
 6374TIP3    H140613   0.609   4.337   5.447  1.5958  0.4695 -0.2598
 6374TIP3    H240614   0.646   4.484   5.440 -0.3768  0.9851 -0.5610
 6375TIP3   OH240615   3.637   3.230  11.205  0.3476 -0.2922 -0.1901
 6375TIP3    H140616   3.611   3.321  11.188 -0.2106 -0.5244 -0.6123
 6375TIP3    H240617   3.640   3.190  11.118  1.7794 -0.3763 -0.1208
 6376TIP3   OH240618   3.962   1.101   3.477  0.0147 -0.3322  0.0260
 6376TIP3    H140619   3.962   1.167   3.547  0.2914  0.8921 -1.0758
 6376TIP3    H240620   3.929   1.021   3.518  1.3108  0.0193  1.8441
 6377TIP3   OH240621   2.387   4.600   3.662 -0.0973  0.1461 -0.3921
 6377TIP3    H140622   2.452   4.671   3.662 -0.1889  0.3549  2.7220
 6377TIP3    H240623   2.303   4.644   3.648  0.0791  0.3284 -0.8969
 6378TIP3   OH240624   4.976   1.419   3.056 -0.3068 -0.1795  0.5733
 6378TIP3    H140625   4.896   1.419   3.004 -0.2691  0.0226  0.5124
 6378TIP3    H240626   4.960   1.483   3.125  0.6382  1.6131 -0.7710
 6379TIP3   OH240627   6.647   1.808   6.294  0.2372  0.1659  0.2047
 6379TIP3    H140628   6.679   1.776   6.379  0.9878 -2.6194 -1.0190
 6379TIP3    H240629   6.553   1.819   6.306  0.3500 -0.0726  1.4082
 6380TIP3   OH240630   3.266   1.526  11.045 -0.4184  0.1036 -0.2185
 6380TIP3    H140631   3.213   1.605  11.042 -1.7505 -0.6377  1.6204
 6380TIP3    H240632   3.316   1.528  10.964 -1.5809  1.9999 -0.9777
 6381TIP3   OH240633   5.134   2.411  16.322 -0.0822  0.7541 -0.1730
 6381TIP3    H140634   5.170   2.493  16.357 -1.2136  0.7658  1.0333
 6381TIP3    H240635   5.170   2.343  16.379 -0.6353  0.6006 -0.0076
 6382TIP3   OH240636   0.798   4.558   0.031  0.2995  0.6174 -0.1790
 6382TIP3    H140637   0.784   4.513  -0.053 -3.4619  0.3148  0.4617
 6382TIP3    H240638   0.789   4.490   0.097 -0.1553  1.4097  0.5943
 6383TIP3   OH240639   1.200   2.963   2.486 -0.5934  0.0933 -0.3560
 6383TIP3    H140640   1.271   3.023   2.462 -0.1460  0.1937  1.0907
 6383TIP3    H240641   1.145   3.013   2.546 -1.0629 -0.4615 -0.3100
 6384TIP3   OH240642   1.744   1.834   5.342 -0.1136 -0.0795 -0.6038
 6384TIP3    H140643   1.824   1.800   5.302  0.6322 -0.3543  1.0687
 6384TIP3    H240644   1.768   1.920   5.376 -0.4890 -0.2334  0.0635
 6385TIP3   OH240645   1.426   4.571  16.295 -0.4157 -0.0823  0.9317
 6385TIP3    H140646   1.401   4.525  16.375 -0.6618  0.6984  1.3172
 6385TIP3    H240647   1.364   4.540  16.229 -0.6492 -0.2108  1.2133
 6386TIP3   OH240648   3.517   1.431   4.077  0.0129  0.1551  0.6579
 6386TIP3    H140649   3.601   1.457   4.039  1.1758 -1.6817  1.7861
 6386TIP3    H240650   3.465   1.511   4.078  1.5090  1.2096 -0.6717
 6387TIP3   OH240651   6.110   1.232  11.062  0.1002  0.2302 -0.3499
 6387TIP3    H140652   6.177   1.240  11.130  0.9444  2.6552 -1.3446
 6387TIP3    H240653   6.158   1.204  10.984 -0.0076  1.7165 -1.0014
 6388TIP3   OH240654   2.085   2.400   4.372  0.8822 -0.2672  0.5412
 6388TIP3    H140655   2.060   2.368   4.286  0.8529  1.6581 -0.2068
 6388TIP3    H240656   2.033   2.348   4.434 -0.7176 -0.2051 -0.6982
 6389TIP3   OH240657   6.104   6.624   5.065 -0.0375 -0.0370 -0.0528
 6389TIP3    H140658   6.062   6.673   4.995  0.4992 -0.9963 -1.0904
 6389TIP3    H240659   6.032   6.597   5.122 -0.3262  1.9508  0.5676
 6390TIP3   OH240660   3.335   2.247  11.087  0.0117  0.9803  0.6927
 6390TIP3    H140661   3.382   2.233  11.169 -0.8439  0.6995  1.1505
 6390TIP3    H240662   3.274   2.319  11.106 -0.9104  0.2349  0.6172
 6391TIP3   OH240663   2.684   5.246   4.321  0.4511  0.1798 -0.2338
 6391TIP3    H140664   2.662   5.186   4.250  2.3492 -0.8944  0.0293
 6391TIP3    H240665   2.634   5.213   4.396  0.6394 -0.4299 -0.3706
 6392TIP3   OH240666   2.456   4.924  14.521  0.2895 -0.2868  0.1422
 6392TIP3    H140667   2.440   4.921  14.427  0.3487  0.5753  0.0997
 6392TIP3    H240668   2.412   4.846  14.555  0.7420 -0.9027 -0.6606
 6393TIP3   OH240669   2.031   1.802   5.191  0.0710 -0.5663 -0.1366
 6393TIP3    H140670   1.977   1.876   5.162  2.0434  1.4782  1.1022
 6393TIP3    H240671   1.998   1.727   5.140 -1.4247  1.3152 -2.1364
 6394TIP3   OH240672   5.624   2.209   4.754 -0.0504 -0.2245 -0.5708
 6394TIP3    H140673   5.711   2.198   4.794 -0.0634 -0.0504 -0.4916
 6394TIP3    H240674   5.564   2.168   4.816  0.0609 -1.1009 -1.0369
 6395TIP3   OH240675   0.625   1.323   2.092  0.1323  0.7651 -0.2750
 6395TIP3    H140676   0.613   1.256   2.025 -1.0991  0.4427  0.2302
 6395TIP3    H240677   0.541   1.370   2.094  1.0441  2.4912 -0.7721
 6396TIP3   OH240678   4.767   3.784   3.274 -0.0032 -0.1222 -0.1529
 6396TIP3    H140679   4.769   3.706   3.219  0.6423 -0.6529  0.5937
 6396TIP3    H240680   4.681   3.781   3.317  0.3288 -0.8684  0.4812
 6397TIP3   OH240681   4.552   5.095  14.126  0.9841 -0.7979  0.0493
 6397TIP3    H140682   4.508   5.176  14.099  3.4240  0.3069 -0.9610
 6397TIP3    H240683   4.527   5.084  14.217 -0.0582  0.6575 -0.0180
 6398TIP3   OH240684   1.864   0.471  14.304  0.4589  0.3038  0.3076
 6398TIP3    H140685   1.878   0.396  14.362  1.8515 -0.1755 -0.5871
 6398TIP3    H240686   1.781   0.509  14.333 -0.5462 -1.8683  0.4591
 6399TIP3   OH240687   6.572   2.364  11.254  0.2382  0.5018  0.4585
 6399TIP3    H140688   6.611   2.413  11.327  0.5926 -0.6739  1.0865
 6399TIP3    H240689   6.479   2.356  11.278  0.6509 -1.3741  1.7150
 6400TIP3   OH240690   1.291   3.016   3.251  0.4751 -0.5497  0.1842
 6400TIP3    H140691   1.309   3.061   3.333 -0.2155  0.5149 -0.2327
 6400TIP3    H240692   1.304   3.082   3.183 -0.0820 -1.0959 -0.4782
 6401TIP3   OH240693   3.103   5.265  16.380 -0.0829  0.4104  0.1010
 6401TIP3    H140694   3.153   5.272  16.461 -0.2962 -0.8298  0.3684
 6401TIP3    H240695   3.167   5.273  16.310  0.1927  0.8583  0.4039
 6402TIP3   OH240696   0.812   0.855   2.060  0.4475 -0.0457  0.0180
 6402TIP3    H140697   0.845   0.773   2.024  1.8167  1.0659 -1.4264
 6402TIP3    H240698   0.884   0.917   2.046 -0.3857  1.3032  1.4592
 6403TIP3   OH240699   2.647   1.120  13.798 -0.2693 -0.4172  0.8257
 6403TIP3    H140700   2.561   1.080  13.809 -0.5040  0.3013  1.7486
 6403TIP3    H240701   2.657   1.177  13.875  0.7367  0.0319  0.3812
 6404TIP3   OH240702   3.062   3.941   5.158  0.1641  0.2626  0.2036
 6404TIP3    H140703   3.068   3.952   5.063  3.2307 -2.0789 -0.0129
 6404TIP3    H240704   3.122   4.007   5.193  2.1521 -1.4166  0.1615
 6405TIP3   OH240705   3.055   5.076   0.025 -0.2952 -0.2457  0.4887
 6405TIP3    H140706   2.976   5.127   0.043 -0.2605 -0.5669  1.6392
 6405TIP3    H240707   3.023   4.990  -0.002 -0.3549 -0.6325  1.7427
 6406TIP3   OH240708   2.100   4.838  14.460 -0.0557  0.1583  0.9270
 6406TIP3    H140709   2.180   4.796  14.492 -0.5353  0.0744  2.0917
 6406TIP3    H240710   2.083   4.908  14.524 -1.6521 -0.7139  1.4998
 6407TIP3   OH240711   0.315   0.606  11.999 -0.4845  0.0540 -0.6588
 6407TIP3    H140712   0.348   0.656  11.924 -0.1678 -0.0008 -0.5569
 6407TIP3    H240713   0.367   0.525  11.999 -1.3795 -0.5413 -1.1607
 6408TIP3   OH240714   5.660   3.984   1.732  0.4349  0.0102  0.6821
 6408TIP3    H140715   5.751   4.014   1.735  0.4487 -0.1050  1.6671
 6408TIP3    H240716   5.665   3.894   1.699  0.4803  0.6861 -1.3098
 6409TIP3   OH240717   4.072   0.922   3.073  0.0759  0.1700 -0.0710
 6409TIP3    H140718   4.040   0.980   3.005 -0.5956  0.7549  0.7189
 6409TIP3    H240719   4.161   0.900   3.047  1.0857  3.0944  0.5640
 6410TIP3   OH240720   3.336   4.019   5.279  0.5923  0.6869 -0.8290
 6410TIP3    H140721   3.367   4.044   5.366  0.5646 -1.3973 -0.1594
 6410TIP3    H240722   3.382   4.078   5.219  0.0239  2.6900  0.6088
 6411TIP3   OH240723   5.227   5.219  14.060  0.0427  0.2507 -0.0032
 6411TIP3    H140724   5.282   5.145  14.086 -0.9646  0.0543  1.7489
 6411TIP3    H240725   5.172   5.185  13.989  1.1245  0.0080 -0.7391
 6412TIP3   OH240726   3.243   2.472  16.046 -0.0532 -0.4544 -0.1587
 6412TIP3    H140727   3.337   2.489  16.040  0.0407 -0.4271  1.0671
 6412TIP3    H240728   3.235   2.377  16.033  0.0499 -0.3392 -1.0965
 6413TIP3   OH240729   2.183   5.611  12.361 -0.0458 -1.0753  0.2577
 6413TIP3    H140730   2.205   5.699  12.330 -1.5929 -1.0396 -0.8453
 6413TIP3    H240731   2.255   5.588  12.420  0.0833  1.1740  1.0764
 6414TIP3   OH240732   6.690   2.662  12.640 -0.3114 -0.0541 -0.0910
 6414TIP3    H140733   6.624   2.685  12.575  0.6370  4.4299  0.2199
 6414TIP3    H240734   6.767   2.637  12.589 -1.2303 -2.4120 -0.4651
 6415TIP3   OH240735   3.871   0.963   6.360  0.0555 -0.0683 -0.3916
 6415TIP3    H140736   3.776   0.967   6.369  0.1273  0.6483  0.1144
 6415TIP3    H240737   3.904   1.014   6.434  0.8794 -1.6283  0.3612
 6416TIP3   OH240738   2.380   2.681  12.266 -0.2754 -0.3662 -0.7798
 6416TIP3    H140739   2.412   2.743  12.201  0.2249  0.6812  0.4259
 6416TIP3    H240740   2.323   2.621  12.216 -1.0043  1.2117 -1.9325
 6417TIP3   OH240741   1.605   5.230   3.673 -0.5522 -0.3271  0.0490
 6417TIP3    H140742   1.563   5.228   3.587 -0.2345  0.2931 -0.1252
 6417TIP3    H240743   1.535   5.208   3.735 -0.8849 -0.3213 -0.3245
 6418TIP3   OH240744   4.462   6.202  12.715 -0.0511  0.0728 -0.4373
 6418TIP3    H140745   4.403   6.148  12.767  0.3628  0.2034  0.1757
 6418TIP3    H240746   4.437   6.184  12.624 -0.0224 -1.0271 -0.2431
 6419TIP3   OH240747   1.978   3.000  16.487 -0.3786 -0.3141  0.4281
 6419TIP3    H140748   2.062   2.987  16.445 -0.7463 -1.1050 -0.0743
 6419TIP3    H240749   1.997   2.996  16.581  0.2405  0.1979  0.3327
 6420TIP3   OH240750   1.416   5.975  13.224 -0.6254  0.0978 -0.1560
 6420TIP3    H140751   1.463   5.893  13.237 -0.3076  0.3035  0.0065
 6420TIP3    H240752   1.449   6.009  13.141 -0.4984  0.2341 -0.0494
 6421TIP3   OH240753   0.395   3.164   0.217 -0.3910 -0.3082  0.4848
 6421TIP3    H140754   0.381   3.223   0.144 -1.0357  1.1670  1.7483
 6421TIP3    H240755   0.312   3.115   0.224 -0.1880 -0.7332  0.0148
 6422TIP3   OH240756   6.355   4.867  14.762  0.0507 -0.5942  0.2177
 6422TIP3    H140757   6.316   4.860  14.675  0.5502 -1.5103  0.0514
 6422TIP3    H240758   6.409   4.789  14.770 -1.0591 -1.2430  1.8984
 6423TIP3   OH240759   0.742   2.986   4.705 -0.5281  0.3217 -0.0117
 6423TIP3    H140760   0.687   2.982   4.783 -0.7259 -0.2181 -0.1729
 6423TIP3    H240761   0.685   3.025   4.638 -0.1732  1.3384  0.2572
 6424TIP3   OH240762   1.629   3.892   5.210 -0.1927  0.1966  0.5578
 6424TIP3    H140763   1.549   3.912   5.260  0.8890  1.6042  1.8207
 6424TIP3    H240764   1.608   3.920   5.121 -0.8329  1.4318  1.0543
 6425TIP3   OH240765   5.884   2.449  15.355  0.4911 -0.2344 -0.7027
 6425TIP3    H140766   5.811   2.473  15.413  1.6510 -1.8026  1.5201
 6425TIP3    H240767   5.898   2.527  15.302  0.1803  1.8223  2.0223
 6426TIP3   OH240768   4.954   1.004   4.421 -0.2266 -0.1476  0.3462
 6426TIP3    H140769   4.884   0.982   4.483 -1.2327  1.4257 -0.1731
 6426TIP3    H240770   4.961   1.099   4.425  2.8604 -0.2938  1.3691
 6427TIP3   OH240771   6.526   2.620   0.672  0.0511 -0.1642 -0.4795
 6427TIP3    H140772   6.484   2.627   0.586 -0.5452 -1.2594 -0.2990
 6427TIP3    H240773   6.473   2.677   0.728 -1.2877 -1.5501 -0.2490
 6428TIP3   OH240774   0.377   0.835  16.563  0.0791 -0.0095 -0.4356
 6428TIP3    H140775   0.386   0.925  16.594  1.8827 -1.1314  2.7528
 6428TIP3    H240776   0.465   0.812  16.531 -0.2271 -0.8013 -0.7399
 6429TIP3   OH240777   4.074   0.994  17.016  0.4298  0.8101 -0.1227
 6429TIP3    H140778   4.100   0.904  16.997 -0.0830  0.6732 -0.1786
 6429TIP3    H240779   4.087   1.041  16.934  0.5488  0.7551 -0.1365
 6430TIP3   OH240780   0.993   1.034   5.518 -0.3659  0.0269  0.1175
 6430TIP3    H140781   0.901   1.010   5.529 -1.1463  1.8957 -1.5955
 6430TIP3    H240782   1.025   0.978   5.447 -0.8846  0.9233 -0.8482
 6431TIP3   OH240783   2.133   5.030   4.475  0.2645 -0.2987 -0.4052
 6431TIP3    H140784   2.072   5.083   4.525  0.3827  0.7651 -1.3355
 6431TIP3    H240785   2.160   4.960   4.535  0.7975  1.2025  1.1813
 6432TIP3   OH240786   3.914   3.264  14.875  0.0018 -0.1102 -0.1407
 6432TIP3    H140787   3.883   3.199  14.812  0.1459  0.4353 -0.7822
 6432TIP3    H240788   3.915   3.347  14.826  1.9385 -0.0051  0.0054
 6433TIP3   OH240789   5.757   2.210   2.663 -0.0154 -0.3027  0.4068
 6433TIP3    H140790   5.707   2.198   2.743 -0.0111  2.1259  0.8371
 6433TIP3    H240791   5.843   2.173   2.683 -0.4599 -1.0603  0.9725
 6434TIP3   OH240792   5.676   6.211  15.283 -0.5934  0.4829 -0.5741
 6434TIP3    H140793   5.769   6.201  15.264 -0.3186 -1.2133  1.2812
 6434TIP3    H240794   5.635   6.223  15.198  1.1789 -0.1079 -1.5631
 6435TIP3   OH240795   3.615   1.189   0.767 -0.3840 -0.1169  0.0589
 6435TIP3    H140796   3.589   1.164   0.856  0.2551 -1.7399 -0.1681
 6435TIP3    H240797   3.710   1.196   0.771 -0.3876  0.2850 -0.4019
 6436TIP3   OH240798   0.707   2.974   2.099  0.5585 -0.0997  0.3250
 6436TIP3    H140799   0.623   2.979   2.054  0.5134  0.0188  0.4236
 6436TIP3    H240800   0.724   3.064   2.128  0.4310 -0.2427  0.8359
 6437TIP3   OH240801   0.848   3.143  16.618 -0.1578 -0.3012  0.1166
 6437TIP3    H140802   0.773   3.197  16.592 -0.0387 -0.7087 -1.1510
 6437TIP3    H240803   0.911   3.154  16.547  0.7566 -0.4252  0.8884
 6438TIP3   OH240804   3.229   6.507   1.037 -0.1275 -0.0811 -0.4479
 6438TIP3    H140805   3.199   6.478   0.951 -0.7999 -0.6031 -0.0519
 6438TIP3    H240806   3.204   6.599   1.041 -0.5531 -0.1856 -0.6171
 6439TIP3   OH240807   1.620   0.527   2.943  0.1987 -0.2868 -0.7063
 6439TIP3    H140808   1.555   0.458   2.928  0.8245 -1.0155 -0.0507
 6439TIP3    H240809   1.596   0.565   3.028  0.0984  0.0522 -0.8812
 6440TIP3   OH240810   0.897   2.875   3.061  0.0258  0.2896 -0.0486
 6440TIP3    H140811   0.956   2.831   3.122 -0.6277 -0.1677  0.2529
 6440TIP3    H240812   0.813   2.880   3.106  0.0630  1.8234 -0.0825
 6441TIP3   OH240813   4.311   0.916  15.192 -0.0704  0.0373  0.5510
 6441TIP3    H140814   4.274   0.966  15.119  0.5730  0.2331  0.3474
 6441TIP3    H240815   4.329   0.830  15.156 -0.7046 -0.1908  0.7640
 6442TIP3   OH240816   4.318   3.665   3.101  0.3445  0.1989  0.5679
 6442TIP3    H140817   4.289   3.578   3.127  0.4904 -0.0584 -0.1171
 6442TIP3    H240818   4.366   3.652   3.019  0.5142  0.8985  0.5439
 6443TIP3   OH240819   6.032   3.928  14.666 -0.0639 -0.0768  0.1697
 6443TIP3    H140820   5.951   3.888  14.635  0.2024  1.3966 -2.7629
 6443TIP3    H240821   6.012   3.956  14.755 -1.1776 -3.9054  1.3447
 6444TIP3   OH240822   5.496   4.616   4.475 -0.4530  0.3011 -0.4255
 6444TIP3    H140823   5.463   4.684   4.534 -0.8446 -2.1565  2.3675
 6444TIP3    H240824   5.573   4.656   4.433 -0.6745  2.4556  1.0711
 6445TIP3   OH240825   5.363   6.402  12.051 -0.3502 -0.8573  0.3169
 6445TIP3    H140826   5.374   6.497  12.058 -0.7840 -0.5480 -2.2348
 6445TIP3    H240827   5.356   6.372  12.142 -0.6814  1.6025  1.1817
 6446TIP3   OH240828   5.333   3.691   2.115  0.1797  0.6529 -0.1441
 6446TIP3    H140829   5.274   3.705   2.041  0.4713 -0.9921 -0.7253
 6446TIP3    H240830   5.365   3.778   2.137 -2.3643  1.6000  0.1346
 6447TIP3   OH240831   4.911   4.581  16.166 -0.0220 -0.2406  0.5988
 6447TIP3    H140832   4.843   4.639  16.201 -1.0153 -0.3131 -1.1142
 6447TIP3    H240833   4.974   4.640  16.125 -1.0251 -0.3071 -1.1302
 6448TIP3   OH240834   0.709   5.706   3.303  0.0539  0.6316 -0.3480
 6448TIP3    H140835   0.798   5.683   3.275 -1.0006 -2.1182 -1.8480
 6448TIP3    H240836   0.695   5.653   3.382 -0.5647  0.2216 -0.7203
 6449TIP3   OH240837   3.427   6.314  10.399  0.2732 -0.0880 -0.0867
 6449TIP3    H140838   3.474   6.239  10.435  0.2609  0.2352  0.6219
 6449TIP3    H240839   3.336   6.284  10.392  0.8444 -1.3957 -3.3340
 6450TIP3   OH240840   4.350   2.847  17.174 -0.0469 -0.0497 -0.3500
 6450TIP3    H140841   4.320   2.892  17.253  3.8777  0.1166  1.3002
 6450TIP3    H240842   4.313   2.760  17.181 -0.7992  0.3436  1.0376
 6451TIP3   OH240843   1.473   1.476  12.780  0.1910  0.2983  0.1781
 6451TIP3    H140844   1.428   1.411  12.834  0.5865  0.1796  0.3683
 6451TIP3    H240845   1.475   1.437  12.692  1.1579 -0.3271  0.4583
 6452TIP3   OH240846   0.956   3.804   0.443 -0.5465  0.5703 -0.2101
 6452TIP3    H140847   1.016   3.870   0.480  0.8945 -0.8619  0.1369
 6452TIP3    H240848   0.872   3.821   0.485 -0.3407  2.4650 -0.4809
 6453TIP3   OH240849   6.102   0.053  14.891 -0.1887 -0.0433  0.1816
 6453TIP3    H140850   6.127  -0.037  14.870 -0.0576 -0.1783  0.8698
 6453TIP3    H240851   6.035   0.075  14.827  1.1408  0.0607 -1.2383
 6454TIP3   OH240852   3.193   2.618  10.924 -0.1871  0.3442 -0.1766
 6454TIP3    H140853   3.288   2.628  10.927 -0.2028  0.3649  1.9104
 6454TIP3    H240854   3.160   2.684  10.986 -1.4062 -1.0053  0.6820
 6455TIP3   OH240855   1.630   2.801  15.890 -0.0401 -0.5270 -0.4038
 6455TIP3    H140856   1.709   2.759  15.925 -0.2417 -0.7562 -0.2224
 6455TIP3    H240857   1.660   2.845  15.810 -0.0250 -1.8272 -1.1272
 6456TIP3   OH240858   6.444   4.138   3.857 -0.0902  0.3518 -0.4832
 6456TIP3    H140859   6.459   4.087   3.777  0.7398 -1.0028  0.5031
 6456TIP3    H240860   6.530   4.176   3.878 -0.4371  1.1914 -0.5466
 6457TIP3   OH240861   3.612   3.331  15.643  0.0392 -0.3438  0.7639
 6457TIP3    H140862   3.679   3.335  15.712 -1.2443 -0.5738  2.0718
 6457TIP3    H240863   3.529   3.330  15.690 -0.9475  0.8157 -0.8437
 6458TIP3   OH240864   5.482   1.807   0.029  0.0067 -0.2462 -0.4733
 6458TIP3    H140865   5.397   1.843   0.003  0.4794 -0.3728 -2.3395
 6458TIP3    H240866   5.543   1.839  -0.038  1.4282 -0.2837  0.7289
 6459TIP3   OH240867   3.377   0.020  14.469 -0.4920 -0.1892 -0.5800
 6459TIP3    H140868   3.294   0.014  14.516  0.2489  1.8589  1.1804
 6459TIP3    H240869   3.443   0.026  14.539  1.2256 -2.1973 -1.9095
 6460TIP3   OH240870   0.721   1.841   3.326 -0.3018 -0.5265 -0.2394
 6460TIP3    H140871   0.718   1.746   3.319 -2.0785 -0.4541 -1.1683
 6460TIP3    H240872   0.720   1.872   3.235 -0.7280  0.3618  0.0524
 6461TIP3   OH240873   6.074   3.836   2.006 -0.2137 -0.1162 -0.4981
 6461TIP3    H140874   6.148   3.892   2.030 -0.9378  1.0429 -0.8674
 6461TIP3    H240875   6.112   3.749   1.995  1.4733  0.8060 -2.6084
 6462TIP3   OH240876   4.571   2.105  16.988 -0.6355  0.4823  0.7353
 6462TIP3    H140877   4.546   2.017  16.958  1.8795  0.4202 -1.5799
 6462TIP3    H240878   4.595   2.092  17.080 -2.1793 -0.7999  1.0115
 6463TIP3   OH240879   1.998   3.978  11.450 -0.0540  0.0724  0.1744
 6463TIP3    H140880   1.973   4.002  11.540  1.7374 -0.4752  0.8461
 6463TIP3    H240881   2.022   4.061  11.409  1.3061  0.0645  0.9257
 6464TIP3   OH240882   6.230   3.918  16.482  0.4846  0.0338 -0.1112
 6464TIP3    H140883   6.197   3.909  16.572  0.4454 -0.3704 -0.1643
 6464TIP3    H240884   6.236   4.012  16.468  2.1597  0.1190  0.9322
 6465TIP3   OH240885   3.723   1.825   2.971  0.2412  0.5187 -0.2849
 6465TIP3    H140886   3.633   1.844   2.943  0.2011  1.9450  0.6788
 6465TIP3    H240887   3.775   1.829   2.891 -0.4884  0.0817 -0.7902
 6466TIP3   OH240888   6.328   3.043  14.328 -0.0135  0.4266 -0.2498
 6466TIP3    H140889   6.274   2.987  14.273 -0.9343  0.0806  0.9619
 6466TIP3    H240890   6.291   3.131  14.317 -2.8321 -0.1783  2.7095
 6467TIP3   OH240891   0.066   0.376   4.743 -0.8120 -0.0841  0.1476
 6467TIP3    H140892   0.086   0.326   4.823 -1.4620 -1.2599 -0.3901
 6467TIP3    H240893   0.055   0.309   4.676 -0.4068  0.8835 -0.9096
 6468TIP3   OH240894   3.291   0.125  12.075 -0.4095 -0.3055  0.0144
 6468TIP3    H140895   3.309   0.058  12.010  1.4842 -0.5828  0.7616
 6468TIP3    H240896   3.348   0.198  12.050 -0.6856  0.1127  0.5851
 6469TIP3   OH240897   3.515   4.772  11.250 -0.9868  0.0860 -0.2484
 6469TIP3    H140898   3.593   4.744  11.201 -1.2353 -2.3942  0.6419
 6469TIP3    H240899   3.549   4.796  11.336 -1.0977 -0.2047 -0.1217
 6470TIP3   OH240900   4.587   6.251  16.210 -0.6426 -0.1317 -0.0160
 6470TIP3    H140901   4.515   6.313  16.200 -0.4668 -0.3098 -4.3058
 6470TIP3    H240902   4.548   6.166  16.193  0.0796 -0.6095  0.6405
 6471TIP3   OH240903   4.965   3.711   3.691  0.5353 -0.2694 -0.3774
 6471TIP3    H140904   4.949   3.781   3.628  2.6381 -0.0832 -0.7975
 6471TIP3    H240905   5.059   3.694   3.684  0.2758 -2.3886  0.5072
 6472TIP3   OH240906   3.852   1.319   4.636  0.3227 -0.5673 -0.6293
 6472TIP3    H140907   3.893   1.258   4.698  0.2099 -0.2656 -0.2541
 6472TIP3    H240908   3.770   1.344   4.678  1.1296  1.1366  0.0128
 6473TIP3   OH240909   6.709   5.302  15.954 -0.3724  0.4770 -0.2005
 6473TIP3    H140910   6.760   5.247  15.895 -1.7469  0.6697 -1.6358
 6473TIP3    H240911   6.707   5.253  16.036 -0.7253 -1.1651 -1.1432
 6474TIP3   OH240912   6.584   2.752   4.871 -0.3423  0.2661  0.4134
 6474TIP3    H140913   6.598   2.664   4.905 -1.3655  0.3203  1.0029
 6474TIP3    H240914   6.673   2.787   4.859  0.2321 -1.8443 -2.6908
 6475TIP3   OH240915   4.106   6.366   1.310 -0.3008  0.3319  0.6516
 6475TIP3    H140916   4.013   6.351   1.296 -0.3934 -0.8561  2.1400
 6475TIP3    H240917   4.119   6.347   1.403  0.9913  2.9139  1.0879
 6476TIP3   OH240918   1.209   1.243  12.170  0.3964 -0.3674 -0.6618
 6476TIP3    H140919   1.210   1.148  12.168  0.2352 -0.4496  1.3182
 6476TIP3    H240920   1.144   1.268  12.105 -0.5623 -1.6677 -0.2299
 6477TIP3   OH240921   2.669   6.407  16.255  0.0142  0.1156 -0.0906
 6477TIP3    H140922   2.679   6.351  16.178 -0.7941 -3.1172  1.9200
 6477TIP3    H240923   2.751   6.456  16.261  1.2846 -1.7341 -1.3914
 6478TIP3   OH240924   2.220   3.537   3.434  0.3016  0.0528  0.0890
 6478TIP3    H140925   2.255   3.529   3.523  1.6707 -0.3898 -0.4688
 6478TIP3    H240926   2.126   3.522   3.444  0.3451  0.5774  1.5375
 6479TIP3   OH240927   0.400   2.762  15.714 -0.2849  0.1086  0.1714
 6479TIP3    H140928   0.456   2.794  15.643  1.3797 -0.7368  1.0483
 6479TIP3    H240929   0.315   2.750  15.673  0.3491  0.6806 -1.4175
 6480TIP3   OH240930   0.792   4.015  13.589  0.2308  0.2396  0.1337
 6480TIP3    H140931   0.709   4.032  13.543  0.8357  1.7785 -0.4599
 6480TIP3    H240932   0.808   3.922  13.576 -1.5336 -0.1500  0.4836
 6481TIP3   OH240933   0.389   4.073   4.157 -0.9643 -0.1696  0.2036
 6481TIP3    H140934   0.483   4.087   4.165 -0.6680 -2.4260  1.3768
 6481TIP3    H240935   0.358   4.065   4.248 -1.5252 -3.5513 -0.1725
 6482TIP3   OH240936   0.708   3.290   2.774 -0.2349  0.0321  0.6445
 6482TIP3    H140937   0.631   3.235   2.787 -0.3827  0.2020  0.4854
 6482TIP3    H240938   0.741   3.266   2.687 -0.1212 -0.0239  0.7026
 6483TIP3   OH240939   3.770   4.898   0.790  0.3526 -0.4731  0.5222
 6483TIP3    H140940   3.734   4.919   0.703 -1.0356  0.0319  1.1786
 6483TIP3    H240941   3.817   4.816   0.777  1.5491  0.3794 -1.0376
 6484TIP3   OH240942   1.268   4.895  12.238 -0.1079  0.7493 -0.0779
 6484TIP3    H140943   1.325   4.947  12.294  0.3774  0.4591 -0.2962
 6484TIP3    H240944   1.181   4.904  12.277  0.6333 -1.8400  2.5735
 6485TIP3   OH240945   4.678   6.442   2.949  0.2033 -0.4600 -0.1912
 6485TIP3    H140946   4.705   6.533   2.938 -2.0754  0.4976  1.5665
 6485TIP3    H240947   4.719   6.414   3.031 -2.3192  0.4096  1.4931
 6486TIP3   OH240948   5.676   6.506  14.119 -0.3278 -0.4041 -0.0197
 6486TIP3    H140949   5.754   6.464  14.085 -0.8863 -1.3431 -0.1733
 6486TIP3    H240950   5.653   6.572  14.054  1.3034  1.1172  0.8395
 6487TIP3   OH240951   5.767   0.891  15.301 -0.2736  0.1170 -0.0298
 6487TIP3    H140952   5.811   0.811  15.330 -0.5008  0.5320  1.5043
 6487TIP3    H240953   5.815   0.962  15.343 -1.1606  0.6873  0.0456
 6488TIP3   OH240954   3.900   5.950  16.040  0.1299 -0.7139  0.0968
 6488TIP3    H140955   3.871   5.859  16.032 -1.3078 -0.4624  1.8099
 6488TIP3    H240956   3.936   5.956  16.128  0.9776  0.1908 -0.2980
 6489TIP3   OH240957   0.982   3.219   4.283 -0.5870  0.0628  0.2282
 6489TIP3    H140958   1.049   3.279   4.253 -0.0267 -0.6084  0.1051
 6489TIP3    H240959   1.008   3.196   4.372 -1.3510  0.7772  0.6485
 6490TIP3   OH240960   2.809   4.625  13.264 -0.0302 -0.5574  0.4049
 6490TIP3    H140961   2.836   4.615  13.172  0.8999  1.3120  0.4404
 6490TIP3    H240962   2.729   4.573  13.270 -0.3638 -0.3790 -1.5876
 6491TIP3   OH240963   4.974   2.522   4.446 -0.3635  0.0489  0.3451
 6491TIP3    H140964   4.986   2.612   4.476 -0.8158 -0.0387  0.8174
 6491TIP3    H240965   4.879   2.514   4.435 -0.2402 -0.0147 -0.8491
 6492TIP3   OH240966   5.009   6.626  14.319  0.1804  0.6017 -0.2780
 6492TIP3    H140967   4.966   6.551  14.359  1.0916  0.6896  0.9223
 6492TIP3    H240968   5.035   6.681  14.393  1.7310  0.8757 -0.9911
 6493TIP3   OH240969   4.319   5.674  14.709 -0.0427  0.7945  0.3024
 6493TIP3    H140970   4.378   5.669  14.784 -0.1381  2.3398  0.5079
 6493TIP3    H240971   4.232   5.656  14.745  0.3521 -3.0671 -0.2534
 6494TIP3   OH240972   3.980   0.758   4.331  0.0461 -0.3519  1.1627
 6494TIP3    H140973   3.978   0.718   4.244 -1.1605 -2.4666  2.1067
 6494TIP3    H240974   4.065   0.802   4.335 -0.6843  1.6818 -1.8401
 6495TIP3   OH240975   0.694   0.158  13.343  0.8833 -0.1167 -0.0901
 6495TIP3    H140976   0.743   0.202  13.413  1.7641 -0.9756 -0.1351
 6495TIP3    H240977   0.619   0.215  13.326  0.0786 -0.3408  2.2479
 6496TIP3   OH240978   3.635   2.480  13.878  0.5041 -0.4585 -0.0912
 6496TIP3    H140979   3.577   2.407  13.859  1.5359 -2.1015  2.4996
 6496TIP3    H240980   3.579   2.557  13.872 -1.1902 -1.6746 -0.6300
 6497TIP3   OH240981   2.003   0.974  10.381 -0.1812  0.0969  0.1776
 6497TIP3    H140982   2.062   1.048  10.363 -1.4439  1.3019  0.8419
 6497TIP3    H240983   1.925   0.993  10.329 -1.4886  0.5290  2.1873
 6498TIP3   OH240984   6.576   1.172   0.059 -0.2028  0.6217 -0.1548
 6498TIP3    H140985   6.537   1.251   0.096 -0.5533  0.4040 -0.0578
 6498TIP3    H240986   6.595   1.195  -0.032  2.2699  1.7432  0.5578
 6499TIP3   OH240987   1.520   2.761   3.153 -0.6062 -0.3628  0.5753
 6499TIP3    H140988   1.467   2.788   3.078 -0.3145  1.2513  0.9174
 6499TIP3    H240989   1.562   2.842   3.184 -0.1713 -1.1075  2.0484
 6500TIP3   OH240990   5.525   0.243   6.444  0.6774  0.0774  0.3293
 6500TIP3    H140991   5.606   0.290   6.462  0.9378  0.1162 -0.8282
 6500TIP3    H240992   5.550   0.179   6.377 -0.2175  0.0021  0.0605
 6501TIP3   OH240993   2.058   3.969  14.918 -0.5291  0.1976  0.0464
 6501TIP3    H140994   2.075   3.996  15.009 -2.1165 -1.6598  0.9557
 6501TIP3    H240995   2.054   4.052  14.869  1.3130  1.1963  1.4443
 6502TIP3   OH240996   4.357   0.203   2.676  0.9215 -0.1189  0.1187
 6502TIP3    H140997   4.301   0.279   2.693  0.7406 -0.4627  1.1030
 6502TIP3    H240998   4.297   0.129   2.669  1.3253 -0.9563  3.8124
 6503TIP3   OH240999   1.035   0.358  12.062  0.2657 -0.4812  0.0166
 6503TIP3    H141000   1.045   0.336  11.970  2.4938  0.2578  0.0280
 6503TIP3    H241001   1.120   0.392  12.089 -0.0132 -1.5682  2.6058
 6504TIP3   OH241002   2.289   2.321   5.097  0.6411  0.0749  0.3545
 6504TIP3    H141003   2.369   2.370   5.113  1.8233 -2.2048  1.8245
 6504TIP3    H241004   2.244   2.320   5.181 -0.9402  1.1919 -0.4105
 6505TIP3   OH241005   2.855   5.837   6.409  0.4309  0.0172 -0.4452
 6505TIP3    H141006   2.857   5.774   6.338 -0.7104 -0.8986  0.2916
 6505TIP3    H241007   2.776   5.890   6.393  2.3058  2.5833 -2.0764
 6506TIP3   OH241008   4.868   5.235   6.621 -0.1376  0.2289 -0.3723
 6506TIP3    H141009   4.917   5.227   6.703 -0.2314 -1.4239 -0.4373
 6506TIP3    H241010   4.930   5.208   6.553  0.0464  1.9077 -0.9277
 6507TIP3   OH241011   0.076   1.093  16.410 -0.0431 -0.2203 -0.5010
 6507TIP3    H141012   0.152   1.141  16.378  0.4239 -0.1596  0.6380
 6507TIP3    H241013   0.109   1.005  16.428  0.9736  0.7848  3.9372
 6508TIP3   OH241014   0.496   2.398  14.795  1.0461 -0.3318 -0.1216
 6508TIP3    H141015   0.571   2.401  14.736  0.9820 -1.3326 -0.2764
 6508TIP3    H241016   0.529   2.432  14.878  0.9212  1.8868 -0.9105
 6509TIP3   OH241017   2.472   3.746  12.071  0.0024 -0.1864 -0.4226
 6509TIP3    H141018   2.461   3.725  11.979  0.8560  0.4416 -0.6774
 6509TIP3    H241019   2.565   3.765  12.081 -0.5556  2.7991 -0.1029
 6510TIP3   OH241020   2.531   0.442  13.654  1.2079  0.1297 -0.2249
 6510TIP3    H141021   2.584   0.405  13.724  1.1410  2.8422  1.4262
 6510TIP3    H241022   2.443   0.405  13.669  1.5117 -0.4202  0.2407
 6511TIP3   OH241023   2.121   5.083  16.526 -0.8249 -0.4900 -0.1275
 6511TIP3    H141024   2.211   5.109  16.507 -0.5126 -2.1372 -1.1050
 6511TIP3    H241025   2.071   5.165  16.521  0.4337  0.2777 -0.6923
 6512TIP3   OH241026   3.126   3.970  14.406  0.0268 -0.4736  0.5321
 6512TIP3    H141027   3.085   3.886  14.425 -2.1803 -0.0286 -1.7743
 6512TIP3    H241028   3.220   3.951  14.406 -0.3879 -2.8450  0.4467
 6513TIP3   OH241029   4.831   5.139  12.508  0.0995  0.5036  0.4414
 6513TIP3    H141030   4.827   5.053  12.467 -3.4713  1.1364 -0.9777
 6513TIP3    H241031   4.893   5.188  12.454  2.3763 -1.1315  1.4217
 6514TIP3   OH241032   2.272   4.474  14.524  0.1895  0.1524  0.7184
 6514TIP3    H141033   2.268   4.440  14.434  1.0477 -1.1938  1.1550
 6514TIP3    H241034   2.335   4.547  14.519 -1.2206  1.3678 -0.1157
 6515TIP3   OH241035   2.032   5.114   3.281 -0.3907  0.4310 -0.5789
 6515TIP3    H141036   2.087   5.187   3.310 -0.5334  0.7033 -0.9840
 6515TIP3    H241037   2.022   5.128   3.187  0.0626 -0.4461 -0.7614
 6516TIP3   OH241038   5.770   5.108  15.061  0.2373 -0.0974  0.5726
 6516TIP3    H141039   5.822   5.174  15.015  1.0726 -2.2490 -1.8314
 6516TIP3    H241040   5.834   5.060  15.114  0.0079 -0.2758  0.6913
 6517TIP3   OH241041   1.528   4.257  13.446 -0.5070 -0.1407  0.0031
 6517TIP3    H141042   1.514   4.312  13.523 -0.0427  1.7320 -1.1806
 6517TIP3    H241043   1.444   4.211  13.434 -1.2880  1.1155  0.4391
 6518TIP3   OH241044   2.382   3.212  11.021 -0.4148  0.1455 -0.2758
 6518TIP3    H141045   2.376   3.274  11.093  1.3867 -0.3959  0.4144
 6518TIP3    H241046   2.299   3.219  10.975 -1.7755  0.2718  2.0498
 6519TIP3   OH241047   4.801   0.399   2.565 -0.7581  0.1542 -0.3983
 6519TIP3    H141048   4.783   0.311   2.598  0.5861  0.0733  0.1792
 6519TIP3    H241049   4.798   0.390   2.469 -2.5036 -0.0835 -0.3535
 6520TIP3   OH241050   4.509   1.839   5.638  0.0066  0.0946 -0.2001
 6520TIP3    H141051   4.465   1.911   5.684  0.1298  0.6819 -0.9867
 6520TIP3    H241052   4.440   1.774   5.624 -0.8070  1.2604 -1.9554
 6521TIP3   OH241053   2.036   5.847   1.278  0.3289  0.5347  0.4390
 6521TIP3    H141054   2.065   5.890   1.198 -0.9147  0.4273 -0.0978
 6521TIP3    H241055   2.005   5.919   1.334  0.3614  0.5355  0.4559
 6522TIP3   OH241056   0.092   4.270   1.505  0.0548 -0.1350  0.6399
 6522TIP3    H141057   0.076   4.188   1.551 -0.0550 -0.4261  0.0782
 6522TIP3    H241058   0.184   4.291   1.525  0.4978 -1.0909 -0.3031
 6523TIP3   OH241059   4.294   2.993   2.225 -0.2729  0.4866 -0.3756
 6523TIP3    H141060   4.298   2.904   2.191 -0.1284  0.0933  0.6233
 6523TIP3    H241061   4.200   3.014   2.226 -0.4132 -0.1147  0.4956
 6524TIP3   OH241062   3.204   2.332  12.163 -0.2335  0.0629 -0.1682
 6524TIP3    H141063   3.283   2.382  12.184 -0.2654  1.0869 -2.2366
 6524TIP3    H241064   3.132   2.390  12.188 -0.3041  0.0259 -0.2873
 6525TIP3   OH241065   5.567   3.721   1.676 -0.0237 -0.2267 -0.3650
 6525TIP3    H141066   5.544   3.645   1.623  1.0156 -0.7543 -0.0976
 6525TIP3    H241067   5.659   3.706   1.701 -0.3562  0.1844  1.2442
 6526TIP3   OH241068   6.405   2.417   3.070 -0.0180 -0.1900 -0.4202
 6526TIP3    H141069   6.473   2.420   3.003 -0.4260 -1.4087 -0.9017
 6526TIP3    H241070   6.453   2.419   3.153  0.6088 -0.9861 -0.7572
 6527TIP3   OH241071   5.612   5.729   1.541 -0.1090  0.1076 -0.3037
 6527TIP3    H141072   5.615   5.718   1.636  1.9470 -3.0426 -0.6046
 6527TIP3    H241073   5.546   5.797   1.527 -0.8448  0.3214  3.3080
 6528TIP3   OH241074   1.277   4.586  11.959 -0.1747 -0.0353  0.4010
 6528TIP3    H141075   1.261   4.675  11.928 -1.8041  0.4410  2.4170
 6528TIP3    H241076   1.368   4.587  11.988 -0.1230  0.9238  0.2409
 6529TIP3   OH241077   3.111   3.455   0.855 -0.6963  0.1956 -0.3940
 6529TIP3    H141078   3.185   3.441   0.914 -0.7820 -0.8246 -0.5147
 6529TIP3    H241079   3.036   3.468   0.913 -0.9371 -1.6409 -0.2356
 6530TIP3   OH241080   2.182   4.154  15.949 -0.2002 -0.4163  0.7615
 6530TIP3    H141081   2.259   4.110  15.983  1.2189  1.3382 -0.0209
 6530TIP3    H241082   2.213   4.241  15.923 -1.8967 -0.4546 -1.8120
 6531TIP3   OH241083   4.830   0.775  12.170  0.0123 -0.0893 -0.1040
 6531TIP3    H141084   4.897   0.792  12.104 -0.2003  1.5406  0.0791
 6531TIP3    H241085   4.771   0.850  12.164 -0.5204 -0.3734  1.3240
 6532TIP3   OH241086   6.457   5.236  12.477  0.0026 -0.1262  0.0043
 6532TIP3    H141087   6.444   5.280  12.393 -0.6633 -1.2539 -0.4998
 6532TIP3    H241088   6.394   5.164  12.476  0.8453 -0.8956  0.9511
 6533TIP3   OH241089   3.808   6.753   0.271  0.8132 -0.4667 -0.4921
 6533TIP3    H141090   3.817   6.667   0.313  1.2496 -1.1072 -1.8178
 6533TIP3    H241091   3.886   6.801   0.296 -0.1610  0.1600  1.5354
 6534TIP3   OH241092   0.162   0.121   1.520 -0.0755  0.7368  0.0251
 6534TIP3    H141093   0.075   0.096   1.552  1.6138 -1.3203  3.6064
 6534TIP3    H241094   0.177   0.065   1.444 -1.4987  0.4274 -0.0488
 6535TIP3   OH241095   0.088   3.931   1.991 -0.1601  0.1045 -0.2500
 6535TIP3    H141096   0.100   3.855   1.934  1.9756 -1.0850  1.6587
 6535TIP3    H241097   0.019   3.982   1.947 -0.1900 -1.8240 -2.6914
 6536TIP3   OH241098   1.050   3.904  14.568  0.3078 -0.4898  0.2231
 6536TIP3    H141099   1.059   3.920  14.662 -0.9490  1.5998  0.0551
 6536TIP3    H241100   0.963   3.865  14.558  0.3227 -0.4461 -0.0960
 6537TIP3   OH241101   4.335   6.080   2.240  0.0615  1.0057  0.6172
 6537TIP3    H141102   4.243   6.104   2.231  0.2440  1.3272 -0.6818
 6537TIP3    H241103   4.375   6.108   2.157  0.9152 -0.9279  0.3188
 6538TIP3   OH241104   0.546   3.440   0.732  0.7100 -0.1478 -0.2163
 6538TIP3    H141105   0.588   3.450   0.646  1.3165  0.4190  0.1357
 6538TIP3    H241106   0.468   3.495   0.727  1.6699  1.3237  0.1730
 6539TIP3   OH241107   1.465   6.595  10.230 -0.1981  0.2646 -0.6179
 6539TIP3    H141108   1.491   6.503  10.218  3.2620  1.0532 -0.1404
 6539TIP3    H241109   1.515   6.643  10.165 -0.7668  1.9935  0.1549
 6540TIP3   OH241110   1.377   4.190  11.875  0.0148 -0.6166  0.3274
 6540TIP3    H141111   1.386   4.095  11.880  3.3638 -0.4126 -0.0339
 6540TIP3    H241112   1.431   4.223  11.946  0.7968  1.0438 -0.9733
 6541TIP3   OH241113   4.649   6.429   5.220 -0.1223 -1.0728 -0.4962
 6541TIP3    H141114   4.583   6.399   5.281  1.5797 -0.4396  1.7882
 6541TIP3    H241115   4.706   6.353   5.207  1.5838 -0.2442  1.6722
 6542TIP3   OH241116   2.354   1.952  14.588  0.3198  0.3748 -0.1513
 6542TIP3    H141117   2.444   1.951  14.556  0.1869 -4.0884 -0.9641
 6542TIP3    H241118   2.301   1.930  14.511 -1.2476  0.7274  0.7811
 6543TIP3   OH241119   0.353   3.704   3.946 -0.0363 -0.1240 -0.1275
 6543TIP3    H141120   0.380   3.708   4.038  0.5234  0.5651 -0.3134
 6543TIP3    H241121   0.285   3.770   3.938 -2.2226 -2.1729  0.4480
 6544TIP3   OH241122   0.286   6.179   3.929  0.4373  0.0329 -0.1356
 6544TIP3    H141123   0.288   6.257   3.984 -0.4849 -0.6143  0.8499
 6544TIP3    H241124   0.353   6.195   3.862  1.3004  1.0097  0.9250
 6545TIP3   OH241125   0.662   2.487   4.740 -0.5374 -0.0274  0.2048
 6545TIP3    H141126   0.632   2.416   4.683 -0.6518 -0.2680  0.5565
 6545TIP3    H241127   0.707   2.548   4.682 -0.6698 -0.2591 -0.1431
 6546TIP3   OH241128   1.798   6.697  14.122  0.2273 -0.0265 -0.0627
 6546TIP3    H141129   1.774   6.619  14.071 -0.4854  0.6673 -0.8184
 6546TIP3    H241130   1.745   6.691  14.201  0.3477 -0.4276 -0.0091
 6547TIP3   OH241131   0.477   3.072  17.073 -0.1162  0.3003 -0.2505
 6547TIP3    H141132   0.418   3.058  16.998 -0.9668  0.2755  0.4074
 6547TIP3    H241133   0.434   3.026  17.145  1.2762 -0.6526  0.0014
 6548TIP3   OH241134   3.709   6.196   3.405  0.0013  0.1323  0.3963
 6548TIP3    H141135   3.715   6.163   3.315  1.4557  1.6276 -0.1071
 6548TIP3    H241136   3.663   6.279   3.397  0.8513  0.6624  0.8949
 6549TIP3   OH241137   3.931   5.335   0.511 -0.0682 -0.4900  0.8477
 6549TIP3    H141138   3.994   5.377   0.569 -0.3197 -0.4096  1.0608
 6549TIP3    H241139   3.969   5.346   0.423 -1.3578  2.5426  0.5452
 6550TIP3   OH241140   3.747   4.283   0.554  0.0182 -0.3177 -0.2420
 6550TIP3    H141141   3.707   4.344   0.491 -0.1202  1.0835  1.1154
 6550TIP3    H241142   3.836   4.270   0.523  0.0606  0.6405 -0.5577
 6551TIP3   OH241143   2.837   0.510  13.573  0.2403 -0.5292  0.0994
 6551TIP3    H141144   2.756   0.558  13.557  0.0520 -1.0213 -0.4729
 6551TIP3    H241145   2.880   0.558  13.643  0.2272  0.6761 -0.6852
 6552TIP3   OH241146   2.491   4.649  15.928 -0.2260 -0.5140  0.0531
 6552TIP3    H141147   2.456   4.595  15.857  0.2814  1.5122 -1.8346
 6552TIP3    H241148   2.579   4.616  15.943 -0.9027 -2.0280  0.9729
 6553TIP3   OH241149   4.598   1.220   2.776  0.0567 -1.1876 -0.0135
 6553TIP3    H141150   4.576   1.133   2.744 -0.6798 -1.1644  0.4067
 6553TIP3    H241151   4.527   1.242   2.837 -0.9638  0.5689 -1.6842
 6554TIP3   OH241152   0.887   5.325  17.203 -0.6588  0.5528 -0.1591
 6554TIP3    H141153   0.924   5.279  17.128  0.7333  1.4595 -0.0779
 6554TIP3    H241154   0.923   5.280  17.279  2.5835  2.9809 -0.0476
 6555TIP3   OH241155   6.805   3.549  11.570 -0.0689 -0.5088  0.2031
 6555TIP3    H141156   6.752   3.545  11.491 -0.3399 -1.3910  0.4170
 6555TIP3    H241157   6.748   3.587  11.637  0.2257  0.4297 -0.0665
 6556TIP3   OH241158   0.172   2.639  15.616  0.5120 -0.0199 -0.6589
 6556TIP3    H141159   0.165   2.548  15.587 -1.2813 -0.0676 -0.2214
 6556TIP3    H241160   0.112   2.645  15.690  1.6046  1.2124  0.1703
 6557TIP3   OH241161   6.300   1.760   4.420  0.3257  0.0394 -0.2044
 6557TIP3    H141162   6.373   1.756   4.358  0.7624 -0.5508  0.3285
 6557TIP3    H241163   6.236   1.817   4.379  0.0598 -1.3445 -1.7782
 6558TIP3   OH241164   3.812   1.641  13.194 -0.4603  0.0387 -0.6598
 6558TIP3    H141165   3.801   1.714  13.133 -2.2486 -1.3784 -2.1815
 6558TIP3    H241166   3.904   1.645  13.219  0.8082  0.0037 -4.5291
 6559TIP3   OH241167   2.449   2.224  11.183  0.1602 -0.1725 -0.0208
 6559TIP3    H141168   2.399   2.206  11.104  3.3130 -3.7717 -1.4799
 6559TIP3    H241169   2.425   2.153  11.243  0.1113  0.7356  1.0664
 6560TIP3   OH241170   0.265   5.096  10.577  0.5862 -0.5128 -0.1309
 6560TIP3    H141171   0.325   5.033  10.618  0.7680  0.6743  1.5207
 6560TIP3    H241172   0.221   5.046  10.509  1.0064 -2.3416  0.8662
 6561TIP3   OH241173   2.809   6.201  16.049  0.2700  0.1467 -0.5292
 6561TIP3    H141174   2.851   6.166  15.971  2.2090  0.0381  0.5153
 6561TIP3    H241175   2.862   6.277  16.072 -1.1758  1.0793 -0.1528
 6562TIP3   OH241176   2.733   5.187  12.765  0.0062 -0.1509 -0.2445
 6562TIP3    H141177   2.657   5.239  12.739  0.0709 -0.6424 -1.5198
 6562TIP3    H241178   2.801   5.251  12.783 -0.2132  0.2431 -0.7882
 6563TIP3   OH241179   1.611   2.971   0.695 -0.4163 -0.0332 -0.2354
 6563TIP3    H141180   1.616   2.919   0.614  1.3410 -0.2781 -0.0123
 6563TIP3    H241181   1.583   2.909   0.762 -1.1652  0.0006 -0.5085
 6564TIP3   OH241182   1.775   3.067   6.556  0.0452  0.3580 -0.2656
 6564TIP3    H141183   1.727   2.985   6.563  2.0304 -0.8252  0.6376
 6564TIP3    H241184   1.780   3.099   6.646  0.2317  0.8865 -0.4619
 6565TIP3   OH241185   2.169   2.769   5.173  0.1975  0.0069  0.0914
 6565TIP3    H141186   2.200   2.762   5.083 -0.7716 -1.6989 -0.1462
 6565TIP3    H241187   2.231   2.718   5.225  0.2006  0.1726  0.2528
 6566TIP3   OH241188   2.808   0.346  12.272 -0.2864  0.1093  0.0059
 6566TIP3    H141189   2.775   0.329  12.184 -0.7857 -0.0707  0.2204
 6566TIP3    H241190   2.857   0.268  12.295 -0.2484  0.1100 -0.0731
 6567TIP3   OH241191   4.612   4.558   1.436 -0.2526  0.7860  0.2324
 6567TIP3    H141192   4.549   4.627   1.413  0.4645  1.1158 -0.8256
 6567TIP3    H241193   4.596   4.541   1.529  1.2964  4.2441  1.3188
 6568TIP3   OH241194   2.191   4.102   0.425 -0.2699  0.0252 -0.0762
 6568TIP3    H141195   2.117   4.115   0.365  0.4242  2.1388 -0.5576
 6568TIP3    H241196   2.159   4.038   0.488 -2.2376  0.2891 -0.7209
 6569TIP3   OH241197   2.786   5.479   4.441  0.1558  0.8139  0.3374
 6569TIP3    H141198   2.736   5.411   4.397  0.1540 -0.7861  2.6653
 6569TIP3    H241199   2.822   5.437   4.519  2.6816  2.6893  0.3389
 6570TIP3   OH241200   1.933   5.404  16.957  0.4022 -0.4110  0.1774
 6570TIP3    H141201   1.977   5.322  16.931 -0.5813 -0.6888 -0.6617
 6570TIP3    H241202   1.913   5.447  16.874 -0.2972  0.0402  0.5818
 6571TIP3   OH241203   5.310   6.109  11.343  0.4064 -0.3497 -0.6636
 6571TIP3    H141204   5.258   6.079  11.418  0.2908  0.1764 -0.5243
 6571TIP3    H241205   5.334   6.199  11.365  2.6167 -1.0259 -0.0650
 6572TIP3   OH241206   5.379   0.430  16.691  0.5489 -0.2218 -0.6345
 6572TIP3    H141207   5.473   0.415  16.700  0.7484  0.1600 -1.9036
 6572TIP3    H241208   5.363   0.511  16.739  0.4539 -1.3841  1.4228
 6573TIP3   OH241209   1.698   0.613   2.216 -0.4180 -0.1680  0.0075
 6573TIP3    H141210   1.778   0.644   2.258  0.5479  0.3386 -2.0747
 6573TIP3    H241211   1.631   0.675   2.245  0.1334 -0.0210  1.0197
 6574TIP3   OH241212   5.562   0.136   1.228  0.0499 -0.3459 -0.1513
 6574TIP3    H141213   5.607   0.053   1.242 -1.6560 -1.0687  1.4173
 6574TIP3    H241214   5.619   0.202   1.267  0.5902 -1.0116  0.1942
 6575TIP3   OH241215   2.446   0.649   5.223 -0.0972 -0.1206  0.7027
 6575TIP3    H141216   2.516   0.651   5.289 -0.9011 -2.6269  1.7530
 6575TIP3    H241217   2.490   0.674   5.141  1.8379 -0.8252  1.4657
 6576TIP3   OH241218   5.028   3.014  13.055  0.4245  0.5690 -0.6666
 6576TIP3    H141219   5.084   3.064  12.997  1.0594  0.9793  0.2686
 6576TIP3    H241220   4.985   2.950  12.999  1.8740  0.2074 -1.3910
 6577TIP3   OH241221   0.458   3.195  15.231 -0.0276 -0.0427  0.2489
 6577TIP3    H141222   0.536   3.238  15.196  0.6898 -0.9066  0.7382
 6577TIP3    H241223   0.389   3.262  15.227  1.0083  1.0873  0.8517
 6578TIP3   OH241224   6.743   3.611   2.651 -0.6053 -0.0205 -0.0210
 6578TIP3    H141225   6.693   3.577   2.725  0.3455  0.5035  0.8960
 6578TIP3    H241226   6.811   3.545   2.635 -1.1330 -0.3924 -0.7994
 6579TIP3   OH241227   3.676   0.160   4.646 -0.3323 -0.1282  0.1010
 6579TIP3    H141228   3.699   0.251   4.632  1.2570 -0.2847  1.3475
 6579TIP3    H241229   3.728   0.111   4.582 -0.5111 -0.2080  0.0166
 6580TIP3   OH241230   4.164   0.497  15.597  0.2622 -0.1587 -0.0277
 6580TIP3    H141231   4.132   0.407  15.588 -1.6789  0.4670  0.2971
 6580TIP3    H241232   4.226   0.492  15.670  0.0376 -1.1838  0.1169
 6581TIP3   OH241233   5.384   5.981   3.228  0.4808 -0.3223  0.2562
 6581TIP3    H141234   5.465   5.965   3.275  0.6613  0.6671  0.3119
 6581TIP3    H241235   5.365   6.074   3.243  0.0387 -0.2126 -0.8361
 6582TIP3   OH241236   4.980   1.710   5.417 -0.4354 -0.0619  0.2698
 6582TIP3    H141237   5.026   1.632   5.386  1.1373  0.8645  0.2002
 6582TIP3    H241238   4.897   1.677   5.452 -0.2410 -1.6374 -0.6986
 6583TIP3   OH241239   6.370   5.747   2.989  0.1078 -0.2924  0.0663
 6583TIP3    H141240   6.412   5.815   2.937  0.4628 -0.5987 -0.0549
 6583TIP3    H241241   6.410   5.666   2.958 -2.3911 -0.9069 -1.8895
 6584TIP3   OH241242   6.272   3.507  15.847  0.4072 -0.2206 -0.0547
 6584TIP3    H141243   6.349   3.449  15.839  0.0825 -0.7306  0.4218
 6584TIP3    H241244   6.238   3.489  15.935 -0.2850 -0.0347 -0.2782
 6585TIP3   OH241245   3.462   0.526  14.799 -0.0455 -0.8838  0.2157
 6585TIP3    H141246   3.515   0.457  14.839  1.6441  0.1132 -0.1860
 6585TIP3    H241247   3.523   0.572  14.741 -1.4026  0.2648 -0.3505
 6586TIP3   OH241248   0.826   3.436  15.311 -0.4402  0.0500 -0.2298
 6586TIP3    H141249   0.869   3.521  15.313  0.1228 -0.2339  0.4506
 6586TIP3    H241250   0.736   3.454  15.338 -0.2270  0.3806  0.2740
 6587TIP3   OH241251   2.750   2.627   5.253 -0.0991  0.1542 -0.5082
 6587TIP3    H141252   2.748   2.717   5.285 -2.0432  0.3911 -1.2187
 6587TIP3    H241253   2.701   2.578   5.319 -0.3240 -0.1246 -0.8827
 6588TIP3   OH241254   0.289   2.437  11.322  0.0111  0.0579 -0.7037
 6588TIP3    H141255   0.316   2.465  11.234 -1.2171  3.8394 -0.0582
 6588TIP3    H241256   0.366   2.451  11.376 -0.2455  1.2379 -0.6092
 6589TIP3   OH241257   5.991   2.400   5.822 -0.7316 -0.4877  0.2564
 6589TIP3    H141258   5.960   2.475   5.873 -2.3163 -0.7779 -0.2274
 6589TIP3    H241259   6.042   2.348   5.884  1.2779  1.4325  0.3770
 6590TIP3   OH241260   5.532   1.088   3.658  0.8243 -0.3059  0.0786
 6590TIP3    H141261   5.531   0.993   3.672  0.7835 -0.4186 -0.6574
 6590TIP3    H241262   5.622   1.107   3.630  1.0057 -0.0309  0.8282
 6591TIP3   OH241263   4.875   6.734   2.685 -0.0512 -0.0521 -0.2778
 6591TIP3    H141264   4.833   6.679   2.618 -1.7310  0.9739 -0.1256
 6591TIP3    H241265   4.969   6.720   2.672 -0.3529 -0.5790 -2.2556
 6592TIP3   OH241266   2.189   0.708  14.624  0.3620 -0.0392  0.9344
 6592TIP3    H141267   2.196   0.781  14.686 -1.5002 -0.7294  2.0683
 6592TIP3    H241268   2.278   0.677  14.613  0.9372  1.1055  2.0693
 6593TIP3   OH241269   6.091   4.351   0.265 -0.4607  0.5806  0.3020
 6593TIP3    H141270   6.034   4.399   0.324 -1.5875 -0.9456  0.5168
 6593TIP3    H241271   6.107   4.411   0.192 -0.4863  1.8378  1.3074
 6594TIP3   OH241272   0.077   6.228  14.003 -0.2516 -0.0699 -0.4928
 6594TIP3    H141273   0.129   6.284  13.945  0.0867 -0.7376 -0.8486
 6594TIP3    H241274   0.139   6.199  14.070 -0.6833  0.8363  0.3052
 6595TIP3   OH241275   0.395   5.767  16.846 -0.1940 -0.4850  0.0327
 6595TIP3    H141276   0.390   5.752  16.940 -2.4449 -0.0081  0.0479
 6595TIP3    H241277   0.312   5.809  16.824  0.8577  0.7430 -1.9439
 6596TIP3   OH241278   2.821   5.354   6.134  0.1110  0.1495 -0.2432
 6596TIP3    H141279   2.833   5.263   6.159 -1.1284 -0.1111 -0.5252
 6596TIP3    H241280   2.753   5.352   6.066  0.1539  1.2675 -0.3461
 6597TIP3   OH241281   2.798   5.134  11.950 -0.1719 -0.3852 -1.0069
 6597TIP3    H141282   2.773   5.052  11.994 -1.8097  0.9038  0.6247
 6597TIP3    H241283   2.716   5.183  11.944  0.2459  0.1516 -4.2979
 6598TIP3   OH241284   0.692   6.131   5.020 -0.3196  0.1658  0.1523
 6598TIP3    H141285   0.652   6.129   4.933  0.5868  3.4157 -0.4466
 6598TIP3    H241286   0.779   6.093   5.008  0.4548  2.1519 -0.8122
 6599TIP3   OH241287   4.402   2.747  12.952 -0.5126 -0.0241 -0.4339
 6599TIP3    H141288   4.487   2.713  12.981 -0.2422 -0.0976 -1.2885
 6599TIP3    H241289   4.341   2.674  12.965 -0.3701 -0.1051 -0.2055
 6600TIP3   OH241290   1.137   4.121   0.204  0.0397  0.0999 -0.5085
 6600TIP3    H141291   1.213   4.085   0.158 -0.6547 -0.1142 -1.5156
 6600TIP3    H241292   1.174   4.162   0.283  1.4776  1.8824 -1.9987
 6601TIP3   OH241293   3.342   2.841   6.582 -0.0310 -0.8790  0.9592
 6601TIP3    H141294   3.341   2.937   6.576  0.4599 -0.9403 -0.4440
 6601TIP3    H241295   3.427   2.816   6.545 -1.0815 -1.9581 -0.8697
 6602TIP3   OH241296   1.232   3.089  10.653  0.3678  0.2667  0.5727
 6602TIP3    H141297   1.285   3.137  10.589  1.5941 -1.4735  0.1939
 6602TIP3    H241298   1.245   3.136  10.735  0.9017  1.0255  0.0687
 6603TIP3   OH241299   2.937   6.453  16.128 -0.2403  0.9767 -0.0287
 6603TIP3    H141300   3.001   6.441  16.198 -0.5012  0.1384  0.0800
 6603TIP3    H241301   2.986   6.498  16.059  0.1126  1.4912  0.5507
 6604TIP3   OH241302   4.321   0.022   0.720 -0.8635  1.0161  0.1032
 6604TIP3    H141303   4.274  -0.054   0.684  1.5476 -0.5101 -0.0206
 6604TIP3    H241304   4.320   0.009   0.814  2.1058 -0.9540  0.0034
 6605TIP3   OH241305   5.340   3.371   3.213 -0.6675 -0.1740  0.4204
 6605TIP3    H141306   5.360   3.295   3.268  1.7020  0.5340  0.6298
 6605TIP3    H241307   5.279   3.423   3.267 -1.3451 -1.2862  0.7754
 6606TIP3   OH241308   5.226   5.465  13.453  0.0332  0.3908  0.5760
 6606TIP3    H141309   5.321   5.459  13.458  0.1527  0.1388 -1.1978
 6606TIP3    H241310   5.195   5.425  13.534  1.4396  1.8448  1.8879
 6607TIP3   OH241311   4.407   0.229  13.387 -0.3706  0.2302  0.0988
 6607TIP3    H141312   4.451   0.181  13.317 -0.3048  0.6385 -0.1421
 6607TIP3    H241313   4.453   0.203  13.467 -0.0336  0.2474 -0.0875
 6608TIP3   OH241314   4.638   2.055  12.346 -0.0152  0.0968 -0.4073
 6608TIP3    H141315   4.660   2.144  12.320 -0.8098  0.4025 -0.0808
 6608TIP3    H241316   4.553   2.038  12.304  0.0003 -0.4042 -0.2455
 6609TIP3   OH241317   2.230   2.521  14.683  0.2969 -0.3344  0.3908
 6609TIP3    H141318   2.222   2.514  14.778 -0.2787  1.0247  0.4590
 6609TIP3    H241319   2.163   2.461  14.649  1.4718 -1.9271  0.8042
 6610TIP3   OH241320   0.103   0.293  15.284  0.2671 -0.0768  0.1610
 6610TIP3    H141321   0.102   0.197  15.287 -2.4717 -0.1826 -0.8914
 6610TIP3    H241322   0.144   0.314  15.200 -0.7571 -0.4656 -0.4652
 6611TIP3   OH241323   0.434   1.947   4.817  0.3103 -0.5074 -0.3719
 6611TIP3    H141324   0.467   1.986   4.898  0.1802 -2.2907  0.5959
 6611TIP3    H241325   0.349   1.911   4.841 -0.2484 -0.0847 -1.6194
 6612TIP3   OH241326   1.889   5.473   2.963  0.3312 -0.7272  0.0249
 6612TIP3    H141327   1.983   5.463   2.944  0.5093  0.7026  0.0374
 6612TIP3    H241328   1.876   5.424   3.044  1.4690  0.5149  0.9985
 6613TIP3   OH241329   0.974   3.919  16.249 -0.1470 -0.0337  0.2377
 6613TIP3    H141330   0.886   3.949  16.270  0.1027  0.4249  0.6626
 6613TIP3    H241331   0.962   3.854  16.180 -0.7353  0.8143 -0.4844
 6614TIP3   OH241332   5.267   5.582   1.508 -0.3882  1.0510 -0.6711
 6614TIP3    H141333   5.346   5.568   1.456 -0.0098 -0.1355  0.1778
 6614TIP3    H241334   5.241   5.672   1.488 -0.7630  0.4161 -3.5643
 6615TIP3   OH241335   0.758   1.108  16.947 -0.0891  0.3822  0.0100
 6615TIP3    H141336   0.680   1.152  16.982 -0.0149 -0.4489  1.2996
 6615TIP3    H241337   0.819   1.106  17.021  0.6304 -0.1784 -0.5938
 6616TIP3   OH241338   4.453   4.322  12.284  0.0738 -0.2381 -0.1802
 6616TIP3    H141339   4.426   4.411  12.306 -1.2288 -0.7962  0.5515
 6616TIP3    H241340   4.384   4.289  12.227  0.8707 -0.5818 -0.9822
 6617TIP3   OH241341   5.856   4.277   3.497  0.1328 -0.2773 -0.9044
 6617TIP3    H141342   5.903   4.360   3.489  0.4222 -0.3588 -0.1194
 6617TIP3    H241343   5.769   4.301   3.530  0.4135 -0.3421 -0.1239
 6618TIP3   OH241344   5.576   5.347  14.979  0.0494  0.1830 -0.2173
 6618TIP3    H141345   5.508   5.411  14.958  0.4348  0.6123 -0.1845
 6618TIP3    H241346   5.657   5.389  14.949  0.6845  0.9433  2.3031
 6619TIP3   OH241347   1.362   4.012  15.098 -0.1233  0.0798 -0.3473
 6619TIP3    H141348   1.374   3.946  15.030  1.8874 -0.1262  0.1445
 6619TIP3    H241349   1.339   3.962  15.177 -3.0040  0.3534 -0.8922
 6620TIP3   OH241350   6.261   3.900   1.722  0.0502  0.0547 -0.1706
 6620TIP3    H141351   6.183   3.858   1.757 -0.2939  1.1497  0.3906
 6620TIP3    H241352   6.333   3.845   1.754 -0.3153  0.4901  1.4809
 6621TIP3   OH241353   5.548   6.010   4.569  0.8267  0.3673 -0.3117
 6621TIP3    H141354   5.456   6.037   4.566  0.6431 -0.3459 -1.7774
 6621TIP3    H241355   5.597   6.088   4.544  0.6544  0.7747  0.5540
 6622TIP3   OH241356   0.955   3.928   0.783 -0.0713  0.1442 -0.3290
 6622TIP3    H141357   0.998   3.868   0.844  1.9418  0.2905 -1.5005
 6622TIP3    H241358   0.903   3.985   0.839  1.2162 -0.0961  1.2068
 6623TIP3   OH241359   0.526   5.338   0.636 -0.0707  0.2953  0.1321
 6623TIP3    H141360   0.553   5.394   0.709  0.5233 -0.3339  0.4054
 6623TIP3    H241361   0.517   5.251   0.675  2.2816 -0.5000 -0.9276
 6624TIP3   OH241362   0.367   0.962   3.848 -0.3991 -0.2680 -0.1426
 6624TIP3    H141363   0.341   0.952   3.939  2.1756 -0.2499  0.6768
 6624TIP3    H241364   0.312   1.032   3.814 -0.7658  0.3656  1.6699
 6625TIP3   OH241365   5.323   2.844   1.365 -0.0969 -0.6885 -0.6537
 6625TIP3    H141366   5.382   2.908   1.325 -0.1294 -1.1927 -1.5452
 6625TIP3    H241367   5.380   2.789   1.418 -0.1313  0.3370  0.4776
 6626TIP3   OH241368   1.782   4.633   3.037  0.0362  0.0248 -1.1048
 6626TIP3    H141369   1.695   4.621   2.998 -0.5552 -0.9193  0.4203
 6626TIP3    H241370   1.764   4.657   3.128  1.3692  2.5460 -1.4048
 6627TIP3   OH241371   3.782   6.644  15.711  0.2615 -0.0329  0.3741
 6627TIP3    H141372   3.808   6.626  15.801  0.4435 -0.6096  0.2138
 6627TIP3    H241373   3.704   6.590  15.697  1.5791 -1.8395 -0.5340
 6628TIP3   OH241374   3.196   4.944   0.562 -0.0479 -0.1230 -0.8292
 6628TIP3    H141375   3.214   4.945   0.468 -0.5871  1.0586 -0.9432
 6628TIP3    H241376   3.152   5.027   0.578  0.7557  0.0390  0.6180
 6629TIP3   OH241377   2.996   4.689  11.639 -0.5197 -0.2433  0.5559
 6629TIP3    H141378   3.074   4.742  11.656  0.0005 -0.9318  0.3975
 6629TIP3    H241379   2.971   4.712  11.550 -0.6009  0.1076  0.6682
 6630TIP3   OH241380   1.714   5.226  12.829 -0.1715  0.0257  0.3054
 6630TIP3    H141381   1.775   5.190  12.765 -0.5676  0.0600 -0.0966
 6630TIP3    H241382   1.719   5.166  12.904  1.5750  0.9256  0.9676
 6631TIP3   OH241383   0.226   1.102   2.680 -0.4257  0.4396  0.0993
 6631TIP3    H141384   0.171   1.118   2.756 -0.0470  0.6338  0.3373
 6631TIP3    H241385   0.226   1.186   2.633 -0.4484  0.3986  0.0265
 6632TIP3   OH241386   4.968   5.293   3.130 -0.1407 -0.5722  0.0621
 6632TIP3    H141387   4.893   5.240   3.156  0.6003 -1.2092  0.9670
 6632TIP3    H241388   4.935   5.347   3.057 -1.0624 -1.8519 -0.5060
 6633TIP3   OH241389   3.334   4.546   1.094  0.6810  0.0050  0.2841
 6633TIP3    H141390   3.265   4.518   1.155  0.6964  0.5978  0.5813
 6633TIP3    H241391   3.288   4.598   1.029  0.7006 -0.4403 -0.0923
 6634TIP3   OH241392   2.026   6.051   4.811 -0.6357 -0.5817  0.3459
 6634TIP3    H141393   2.111   6.075   4.848 -0.1167 -1.2284 -0.3821
 6634TIP3    H241394   1.974   6.024   4.886 -1.4391  3.1758  1.2963
 6635TIP3   OH241395   5.487   2.438  15.712 -0.0727 -0.9100  0.2209
 6635TIP3    H141396   5.528   2.385  15.780 -0.6493 -2.7171 -0.7526
 6635TIP3    H241397   5.406   2.471  15.752  1.0701  0.6503  1.3575
 6636TIP3   OH241398   3.131   0.073  10.185 -0.6061  0.4511 -0.5099
 6636TIP3    H141399   3.101  -0.011  10.220  2.4470 -0.6625 -0.2398
 6636TIP3    H241400   3.074   0.090  10.110 -2.8623 -0.5811  0.8665
 6637TIP3   OH241401   5.695   3.625  10.708 -0.2504 -0.3130  0.1375
 6637TIP3    H141402   5.725   3.628  10.618 -0.7478 -2.1335 -0.1195
 6637TIP3    H241403   5.612   3.673  10.707 -0.7122 -1.1015 -0.5839
 6638TIP3   OH241404   3.863   1.635  15.887 -0.7537  0.2776  0.0065
 6638TIP3    H141405   3.782   1.654  15.935  0.4178 -0.3622  2.4111
 6638TIP3    H241406   3.930   1.630  15.955  1.5063  1.5900 -1.9676
 6639TIP3   OH241407   5.968   1.041  14.023 -1.2510  0.0523 -0.2553
 6639TIP3    H141408   6.037   1.095  13.985 -0.1426 -0.8056  0.4606
 6639TIP3    H241409   5.905   1.103  14.058 -0.4677  0.8818 -0.2807
 6640TIP3   OH241410   1.420   1.045  16.562  0.1983 -0.4382 -0.4850
 6640TIP3    H141411   1.369   1.103  16.618  1.3612  0.1136  0.0338
 6640TIP3    H241412   1.359   1.018  16.493 -0.6695  0.5113 -0.1090
 6641TIP3   OH241413   6.630   1.225  15.467 -0.6774 -0.5916 -0.0320
 6641TIP3    H141414   6.654   1.306  15.423  1.1933 -1.1746 -0.1819
 6641TIP3    H241415   6.655   1.239  15.559 -3.9031  0.3570  0.8457
 6642TIP3   OH241416   2.822   6.290  12.001  0.1126  0.2665  0.2840
 6642TIP3    H141417   2.865   6.208  12.026 -0.6002  0.1970  1.3451
 6642TIP3    H241418   2.891   6.357  12.008  0.3265 -0.0130  0.8735
 6643TIP3   OH241419   2.626   1.340  11.027 -0.0395 -0.8651 -0.4688
 6643TIP3    H141420   2.674   1.423  11.020 -1.3794 -0.0602 -0.6159
 6643TIP3    H241421   2.593   1.324  10.939 -3.4145  0.8024  0.3080
 6644TIP3   OH241422   0.295   2.665   1.174 -0.3721  0.2184 -0.6761
 6644TIP3    H141423   0.314   2.576   1.203  2.2315  0.2231 -2.0467
 6644TIP3    H241424   0.337   2.721   1.240 -0.5491  0.3889 -0.7074
 6645TIP3   OH241425   2.134   1.877  15.043  0.2828 -0.0632 -0.5446
 6645TIP3    H141426   2.067   1.944  15.026 -0.0787  0.6774  2.9893
 6645TIP3    H241427   2.213   1.911  15.003 -0.7415  0.5263 -2.1851
 6646TIP3   OH241428   6.682   1.910  13.086 -0.1118  0.1357  0.0293
 6646TIP3    H141429   6.725   1.990  13.117  0.0935 -0.2831  0.8667
 6646TIP3    H241430   6.589   1.927  13.100 -0.0989  0.3709 -0.1525
 6647TIP3   OH241431   3.356   4.492  16.760  0.2829 -0.2223 -0.4831
 6647TIP3    H141432   3.386   4.417  16.710 -1.2674 -1.5744  0.4973
 6647TIP3    H241433   3.330   4.456  16.845 -0.8835  1.3415 -0.1194
 6648TIP3   OH241434   5.247   6.243   1.639  0.1404  0.2522 -0.5516
 6648TIP3    H141435   5.260   6.225   1.546 -0.6123  0.0738 -0.6283
 6648TIP3    H241436   5.194   6.170   1.671  1.6718 -0.4871  0.3706
 6649TIP3   OH241437   4.479   4.803   4.039  0.2580 -0.5513  0.1401
 6649TIP3    H141438   4.389   4.770   4.042 -0.1902  0.6237  0.0468
 6649TIP3    H241439   4.472   4.895   4.065  1.2639 -0.1094 -1.0766
 6650TIP3   OH241440   6.038   6.738   3.722  0.4066  0.1089  0.4791
 6650TIP3    H141441   6.087   6.739   3.639 -0.9225  0.0030 -0.3423
 6650TIP3    H241442   6.070   6.815   3.769  0.8056  0.4752 -0.3658
 6651TIP3   OH241443   5.270   2.802  16.867  0.2013  0.3817  0.1134
 6651TIP3    H141444   5.181   2.765  16.868 -1.2673  3.5966  2.1170
 6651TIP3    H241445   5.292   2.808  16.774 -1.7240 -0.3728 -0.4399
 6652TIP3   OH241446   1.892   5.142   3.034  0.3230 -0.4822 -0.8150
 6652TIP3    H141447   1.797   5.134   3.031  0.1688  0.5049  0.5729
 6652TIP3    H241448   1.916   5.173   2.947 -0.8390  1.0797 -0.6232
 6653TIP3   OH241449   5.237   0.827   0.511  0.0389  0.1062  0.1656
 6653TIP3    H141450   5.151   0.866   0.490  0.6261  0.5519 -1.5716
 6653TIP3    H241451   5.229   0.801   0.603 -1.5329  1.2834  0.4182
 6654TIP3   OH241452   6.745   1.303   1.179 -0.5071 -0.6762  0.1406
 6654TIP3    H141453   6.840   1.299   1.178 -0.4739 -0.6849  1.3566
 6654TIP3    H241454   6.724   1.346   1.262 -1.5382  0.3388 -0.6171
 6655TIP3   OH241455   0.614   3.647   3.388  0.1544 -0.2540  1.3676
 6655TIP3    H141456   0.664   3.598   3.323  1.8296  0.6481  1.9148
 6655TIP3    H241457   0.560   3.708   3.337  1.0177  0.0455  0.7965
 6656TIP3   OH241458   4.203   3.911   3.113  0.0989  0.3517 -0.5924
 6656TIP3    H141459   4.117   3.905   3.071 -0.7167  1.1233  0.8906
 6656TIP3    H241460   4.236   3.821   3.112  1.4076  0.6126 -5.2625
 6657TIP3   OH241461   5.461   0.716   4.814 -0.7188 -0.0973 -0.7173
 6657TIP3    H141462   5.403   0.677   4.748 -1.4796  1.9106 -1.3077
 6657TIP3    H241463   5.542   0.734   4.767 -1.1772  1.1125 -1.0731
 6658TIP3   OH241464   5.733   1.234  12.392  0.2507 -0.2021 -0.1131
 6658TIP3    H141465   5.812   1.238  12.338  0.2246 -1.6835 -0.2940
 6658TIP3    H241466   5.766   1.228  12.482  0.3190  0.5715 -0.0842
 6659TIP3   OH241467   5.503   3.380   2.594  0.5026  0.2255  0.2184
 6659TIP3    H141468   5.458   3.314   2.542  1.3497 -0.8461  0.7934
 6659TIP3    H241469   5.444   3.398   2.667 -0.4386  1.3190 -0.7731
 6660TIP3   OH241470   3.366   4.041   2.739  0.4406  0.5940 -0.4088
 6660TIP3    H141471   3.338   4.012   2.652 -2.4410  0.2412  0.5490
 6660TIP3    H241472   3.431   4.109   2.722  0.7164 -0.1672 -2.7900
 6661TIP3   OH241473   0.941   0.915   1.522 -0.0199 -0.1593 -0.0808
 6661TIP3    H141474   0.970   0.827   1.498 -0.8487 -0.7009  0.8378
 6661TIP3    H241475   0.985   0.972   1.459  0.8673 -1.1845 -0.4285
 6662TIP3   OH241476   6.136   1.117  15.691  0.5443 -0.4131  0.7427
 6662TIP3    H141477   6.077   1.078  15.626  0.8991 -0.8450  0.6782
 6662TIP3    H241478   6.079   1.140  15.764 -0.4732  3.0376 -0.9050
 6663TIP3   OH241479   5.642   1.070  13.662  0.0768  0.3948 -0.4598
 6663TIP3    H141480   5.690   1.061  13.744 -0.1488  1.4383 -0.1886
 6663TIP3    H241481   5.577   1.138  13.680 -1.0871 -0.5259 -1.0035
 6664TIP3   OH241482   5.412   1.124   3.950 -0.4988 -0.0165  0.5577
 6664TIP3    H141483   5.328   1.141   3.992 -0.9489 -0.5830 -0.0847
 6664TIP3    H241484   5.465   1.084   4.019 -0.6249  0.6862  1.0733
 6665TIP3   OH241485   3.531   4.558   3.987 -0.3318  0.0823 -0.2013
 6665TIP3    H141486   3.533   4.594   4.076  1.1197  1.3989 -0.7349
 6665TIP3    H241487   3.612   4.588   3.947 -0.3617 -1.5424 -1.5891
 6666TIP3   OH241488   6.379   4.036   4.922  0.6034 -0.3884 -0.0149
 6666TIP3    H141489   6.376   4.077   5.009  1.3758  1.0595 -0.6308
 6666TIP3    H241490   6.463   4.064   4.886  0.0685 -0.5536 -1.4218
 6667TIP3   OH241491   4.573   4.856   2.739 -0.3413  0.3220  0.5962
 6667TIP3    H141492   4.533   4.894   2.660  1.0355  0.6579  0.0305
 6667TIP3    H241493   4.538   4.908   2.811  1.6094  2.8933 -0.1652
 6668TIP3   OH241494   3.242   5.656  16.313 -0.3962 -0.2042  0.2602
 6668TIP3    H141495   3.174   5.720  16.333 -1.6225 -1.1974 -0.5947
 6668TIP3    H241496   3.234   5.641  16.219 -0.0708 -1.5304  0.4242
 6669TIP3   OH241497   2.453   0.103   0.147  0.4899 -0.2825  0.0045
 6669TIP3    H141498   2.530   0.046   0.150  0.0898 -1.0155 -1.9649
 6669TIP3    H241499   2.409   0.080   0.065 -2.1148 -0.2508  1.2683
 6670TIP3   OH241500   0.403   4.206   5.237 -0.1574  0.3767  0.3641
 6670TIP3    H141501   0.374   4.129   5.286 -0.1282  0.4414  0.4811
 6670TIP3    H241502   0.468   4.247   5.293  1.7426 -0.9214 -0.7594
 6671TIP3   OH241503   0.695   2.290  14.136 -0.2441 -0.7283 -0.1211
 6671TIP3    H141504   0.706   2.214  14.079 -0.1325  0.3745 -1.6312
 6671TIP3    H241505   0.770   2.346  14.116  0.0165 -0.4786  1.4289
 6672TIP3   OH241506   3.240   5.560   1.350  0.2202 -0.3970  0.6670
 6672TIP3    H141507   3.179   5.629   1.326  1.1620  0.8959  1.8271
 6672TIP3    H241508   3.185   5.483   1.365 -1.0424  0.5458  1.0017
 6673TIP3   OH241509   1.309   5.556  15.559 -0.5255 -0.3159  0.0039
 6673TIP3    H141510   1.312   5.551  15.463 -0.7253 -0.2396 -0.0075
 6673TIP3    H241511   1.385   5.506  15.588  0.0320  0.4004 -0.2121
 6674TIP3   OH241512   3.147   1.900   1.869 -0.2867 -0.2650 -0.0153
 6674TIP3    H141513   3.136   1.933   1.958 -0.7652  0.1631 -0.2289
 6674TIP3    H241514   3.083   1.829   1.861  1.6810 -2.2851  0.9109
 6675TIP3   OH241515   3.652   5.709  15.527 -0.5641 -0.2257  0.1825
 6675TIP3    H141516   3.604   5.660  15.461 -1.7164 -1.1375  1.6330
 6675TIP3    H241517   3.686   5.786  15.481 -3.1496  0.3049 -0.9930
 6676TIP3   OH241518   6.628   1.035   5.715  0.2867  0.3849 -0.2720
 6676TIP3    H141519   6.659   0.980   5.643 -1.4694  0.4107 -1.1117
 6676TIP3    H241520   6.697   1.099   5.729  3.2735 -2.9014  1.9069
 6677TIP3   OH241521   4.631   2.892  15.142 -0.2621  0.1065 -0.3456
 6677TIP3    H141522   4.684   2.886  15.063 -1.1631 -0.6054 -0.9147
 6677TIP3    H241523   4.626   2.802  15.174 -1.9687 -0.0415 -0.8954
 6678TIP3   OH241524   2.618   5.200  13.921 -0.2487  0.6313 -0.0922
 6678TIP3    H141525   2.545   5.256  13.947 -0.1721  1.0652 -0.8023
 6678TIP3    H241526   2.595   5.169  13.834  0.0627  0.1516 -0.0095
 6679TIP3   OH241527   6.740   4.142   3.872  0.3262 -0.7423  0.4708
 6679TIP3    H141528   6.824   4.166   3.912  0.5094  0.4822 -0.5907
 6679TIP3    H241529   6.690   4.102   3.944  1.3024 -0.2344  1.4644
 6680TIP3   OH241530   6.180   3.143   5.081  0.2687  0.3100  0.2974
 6680TIP3    H141531   6.183   3.047   5.078  0.4384  0.2182  2.1305
 6680TIP3    H241532   6.124   3.168   5.008  0.8114 -1.1437 -0.6559
 6681TIP3   OH241533   4.629   5.729   0.524 -0.3378 -0.1316  0.2683
 6681TIP3    H141534   4.637   5.635   0.511  1.7285 -0.3053  2.1142
 6681TIP3    H241535   4.550   5.739   0.577 -1.4883 -0.6296 -1.3183
 6682TIP3   OH241536   3.208   0.154  15.517  0.1767 -0.4567 -0.2299
 6682TIP3    H141537   3.128   0.194  15.482  0.7519 -1.3198 -2.7567
 6682TIP3    H241538   3.271   0.163  15.445  1.6539 -1.8394  0.8522
 6683TIP3   OH241539   5.594   1.281   4.595 -0.1319 -0.3744  0.0332
 6683TIP3    H141540   5.613   1.277   4.501  1.5642  1.1868  0.2580
 6683TIP3    H241541   5.602   1.190   4.624  0.8100 -0.6780 -1.0711
 6684TIP3   OH241542   2.377   6.045  14.479  0.5638 -0.2488 -0.2220
 6684TIP3    H141543   2.405   5.975  14.420  0.2007 -1.0172  0.5036
 6684TIP3    H241544   2.453   6.103  14.484  0.9451 -0.7022 -0.6686
 6685TIP3   OH241545   2.126   5.059  10.784 -0.0868 -0.3760 -0.8845
 6685TIP3    H141546   2.160   4.980  10.741 -1.1139 -0.7558 -1.0280
 6685TIP3    H241547   2.176   5.064  10.865  0.0081 -1.1814 -0.8779
 6686TIP3   OH241548   6.696   5.279  16.970  0.2160  0.3352 -0.0869
 6686TIP3    H141549   6.606   5.306  16.949 -0.4655  0.2849  2.4605
 6686TIP3    H241550   6.750   5.350  16.937 -1.0902  2.1579  1.4408
 6687TIP3   OH241551   5.889   4.993   1.611 -0.0421 -0.8031 -0.2218
 6687TIP3    H141552   5.954   4.988   1.542  1.5431 -0.7940  1.2121
 6687TIP3    H241553   5.863   4.902   1.627 -0.5580 -0.7889 -0.9286
 6688TIP3   OH241554   0.799   6.338  16.543  0.5758  0.2770 -0.2380
 6688TIP3    H141555   0.750   6.256  16.536 -1.2675  1.2388  0.7049
 6688TIP3    H241556   0.801   6.372  16.453 -2.4811  1.2506 -0.0376
 6689TIP3   OH241557   0.457   0.490   4.918 -0.1605 -0.6116 -0.8957
 6689TIP3    H141558   0.401   0.466   4.992  1.1456 -2.2509 -0.3761
 6689TIP3    H241559   0.490   0.577   4.940 -0.8608 -0.5027 -0.2286
 6690TIP3   OH241560   3.375   2.927   5.629 -0.5837  0.7388  0.2887
 6690TIP3    H141561   3.433   2.896   5.560 -0.7906 -0.5839  0.6800
 6690TIP3    H241562   3.335   3.007   5.593  0.1228  0.6700 -0.6770
 6691TIP3   OH241563   0.616   4.722  13.130 -0.5674  0.1241 -0.9051
 6691TIP3    H141564   0.574   4.639  13.151 -0.0386 -0.3270 -1.5617
 6691TIP3    H241565   0.665   4.745  13.209 -1.2149  0.1376 -0.4995
 6692TIP3   OH241566   2.809   3.485  15.892 -0.2852  0.2059 -0.1402
 6692TIP3    H141567   2.854   3.466  15.810 -2.5120  0.9554 -1.6543
 6692TIP3    H241568   2.723   3.443  15.882 -0.6197  0.3170  1.8280
 6693TIP3   OH241569   5.384   2.521  11.609  0.0202  0.4858  0.1812
 6693TIP3    H141570   5.394   2.435  11.567 -0.8617  0.5148 -0.1148
 6693TIP3    H241571   5.471   2.542  11.642  0.6867  0.3253 -1.3832
 6694TIP3   OH241572   3.610   3.564   4.321 -0.6294  0.2433  0.2997
 6694TIP3    H141573   3.566   3.481   4.306  1.2494 -1.1968  2.1668
 6694TIP3    H241574   3.701   3.548   4.297  0.7450  0.2796  4.5237
 6695TIP3   OH241575   0.437   4.664   5.173 -0.7631  0.2204 -0.4392
 6695TIP3    H141576   0.420   4.731   5.108 -1.1917  1.2540  0.6965
 6695TIP3    H241577   0.469   4.589   5.123 -1.7357  0.7346 -1.9005
 6696TIP3   OH241578   2.453   6.146  15.247  0.2942  0.1354 -0.5239
 6696TIP3    H141579   2.489   6.068  15.205 -1.9803 -0.6070 -1.2458
 6696TIP3    H241580   2.365   6.120  15.274 -0.4265  2.3684 -0.5274
 6697TIP3   OH241581   5.854   6.192  16.227 -0.3248  0.4490  0.3696
 6697TIP3    H141582   5.760   6.198  16.243  0.2254  1.5141  4.1523
 6697TIP3    H241583   5.862   6.196  16.131 -4.2123 -2.9309 -0.3683
 6698TIP3   OH241584   2.760   1.056  16.066 -0.5732 -0.0010 -0.0489
 6698TIP3    H141585   2.778   0.966  16.042 -1.3773 -1.2870  3.5171
 6698TIP3    H241586   2.838   1.105  16.040  0.6920 -2.1008 -0.3559
 6699TIP3   OH241587   0.175   5.771  11.918  0.0427  0.7550  0.1183
 6699TIP3    H141588   0.180   5.765  11.822  3.0464 -3.8238  0.2445
 6699TIP3    H241589   0.263   5.798  11.945 -0.5911  1.4255  1.6433
 6700TIP3   OH241590   6.145   6.526  12.333 -0.1030 -0.2478 -0.3053
 6700TIP3    H141591   6.206   6.590  12.371  0.6530 -0.6688 -0.8004
 6700TIP3    H241592   6.122   6.563  12.248 -1.3899  0.4339  0.2967
 6701TIP3   OH241593   4.264   2.714  14.873  0.2877 -0.1099  0.4927
 6701TIP3    H141594   4.258   2.746  14.783  1.2693  0.9384  0.7750
 6701TIP3    H241595   4.342   2.659  14.873 -1.4571 -2.7887 -0.0236
 6702TIP3   OH241596   1.751   5.335   0.647  0.1093  0.0603  0.1942
 6702TIP3    H141597   1.749   5.244   0.618 -1.0860 -0.0753  0.6504
 6702TIP3    H241598   1.844   5.358   0.649  0.4367 -1.2201  0.3137
 6703TIP3   OH241599   1.697   0.840   4.538 -0.1781  0.4596 -0.4447
 6703TIP3    H141600   1.704   0.746   4.550 -1.6810  0.4153  0.3447
 6703TIP3    H241601   1.782   0.874   4.567  0.5642 -0.6600 -1.2177
 6704TIP3   OH241602   1.642   3.628  13.881 -0.4176 -0.1498  0.4029
 6704TIP3    H141603   1.716   3.652  13.825  0.7630 -2.9893  0.5854
 6704TIP3    H241604   1.565   3.658  13.833  0.6858 -0.1536 -1.4668
 6705TIP3   OH241605   4.383   4.604   6.526  0.2021 -0.0664 -0.1386
 6705TIP3    H141606   4.304   4.597   6.473 -0.1375  0.9151  0.2223
 6705TIP3    H241607   4.374   4.534   6.591 -1.5338  1.4688  1.3692
 6706TIP3   OH241608   6.047   4.011  12.807  0.1122 -0.8654 -0.3720
 6706TIP3    H141609   6.007   3.986  12.725 -1.5455 -2.7808  0.9367
 6706TIP3    H241610   6.108   3.940  12.828 -1.3576 -1.7398  1.2226
 6707TIP3   OH241611   1.878   4.508  11.727  0.3225  0.2446 -0.3974
 6707TIP3    H141612   1.961   4.550  11.705  0.3138 -0.7885 -2.6013
 6707TIP3    H241613   1.836   4.492  11.643 -1.5638 -0.3859  0.6128
 6708TIP3   OH241614   3.314   2.238  12.605  0.0879  0.3458 -0.4983
 6708TIP3    H141615   3.382   2.273  12.547 -0.9332  0.1041 -1.8918
 6708TIP3    H241616   3.243   2.214  12.546 -0.9530 -0.0156  0.8679
 6709TIP3   OH241617   0.019   2.635  13.218  0.0749 -0.5309 -0.0497
 6709TIP3    H141618   0.045   2.660  13.306  1.6596 -1.1895 -0.3098
 6709TIP3    H241619  -0.008   2.718  13.176 -2.0655 -0.3965  1.4425
 6710TIP3   OH241620   1.809   2.440  15.574 -0.0927 -0.4858 -0.0547
 6710TIP3    H141621   1.762   2.448  15.657 -0.8765 -1.1599 -0.4229
 6710TIP3    H241622   1.895   2.479  15.591 -0.4377 -0.1248  0.9114
 6711TIP3   OH241623   3.364   4.784   0.681  0.9757 -0.9176 -0.3167
 6711TIP3    H141624   3.447   4.812   0.642  0.2499  0.5360 -0.8749
 6711TIP3    H241625   3.297   4.828   0.628 -0.0742  0.7664  2.2358
 6712TIP3   OH241626   3.130   3.247  16.889  0.2583 -0.5773 -0.8043
 6712TIP3    H141627   3.073   3.243  16.812 -1.7854 -1.8671  0.6605
 6712TIP3    H241628   3.190   3.174  16.879 -2.4386 -3.1979  0.4701
 6713TIP3   OH241629   6.791   5.071  13.131  0.2890  1.3430  0.1110
 6713TIP3    H141630   6.761   5.003  13.191 -2.0521  0.4208 -1.9357
 6713TIP3    H241631   6.719   5.133  13.127  0.5142  1.5423 -1.4822
 6714TIP3   OH241632   1.790   4.860  10.855  0.9106 -0.2931 -0.6275
 6714TIP3    H141633   1.802   4.944  10.900  2.5801 -0.2391 -1.1082
 6714TIP3    H241634   1.842   4.868  10.775 -2.1986 -0.2435 -2.8498
 6715TIP3   OH241635   5.495   0.924  15.439 -0.5074 -0.3051  0.0962
 6715TIP3    H141636   5.522   0.980  15.512 -1.7058  2.8183 -1.6782
 6715TIP3    H241637   5.577   0.894  15.400  0.2883  2.0143 -0.1550
 6716TIP3   OH241638   4.483   1.716  15.855  0.0880 -0.0874 -0.5176
 6716TIP3    H141639   4.481   1.809  15.876  3.6675  0.2911 -1.3431
 6716TIP3    H241640   4.411   1.704  15.793  0.4522  2.4484 -1.5297
 6717TIP3   OH241641   3.595   0.465  14.476 -0.2041 -0.0086  0.2574
 6717TIP3    H141642   3.559   0.550  14.499 -2.5836 -0.2914 -1.9644
 6717TIP3    H241643   3.676   0.486  14.429 -2.1493  1.3722 -2.8109
 6718TIP3   OH241644   5.980   1.394   2.775 -0.6091  0.1457  0.4832
 6718TIP3    H141645   5.979   1.488   2.761  0.9824  0.3108  1.2158
 6718TIP3    H241646   6.038   1.381   2.851 -1.1186 -1.3853  0.6573
 6719TIP3   OH241647   6.740   3.462   1.950 -0.2173 -0.0765  0.0616
 6719TIP3    H141648   6.820   3.466   2.003  1.7687  3.4326 -2.7414
 6719TIP3    H241649   6.703   3.549   1.956 -2.6382 -0.9934 -0.5645
 6720TIP3   OH241650   4.085   2.919  10.556  0.2560  0.2337  0.3180
 6720TIP3    H141651   4.085   2.994  10.496  2.3146 -0.5910 -0.8154
 6720TIP3    H241652   4.107   2.956  10.641 -1.3108  1.2355  0.3223
 6721TIP3   OH241653   0.497   3.698  11.629 -0.1420 -0.3801  1.1144
 6721TIP3    H141654   0.449   3.678  11.548 -0.6716 -1.1431  1.6004
 6721TIP3    H241655   0.573   3.639  11.627 -0.2995 -0.5900  1.3007
 6722TIP3   OH241656   4.830   3.448  15.422  0.3296 -0.4799 -0.1193
 6722TIP3    H141657   4.925   3.463  15.424  0.0366  1.7842 -0.1769
 6722TIP3    H241658   4.818   3.363  15.465  2.2238  0.0936  1.7235
 6723TIP3   OH241659   3.387   6.389   4.565 -0.1685  0.0214  0.0725
 6723TIP3    H141660   3.431   6.334   4.629  0.7465  0.9151  0.2269
 6723TIP3    H241661   3.368   6.470   4.612 -0.4217  0.2950 -0.4932
 6724TIP3   OH241662   1.190   6.152  14.599 -0.2671 -0.1958 -0.1779
 6724TIP3    H141663   1.284   6.131  14.595 -0.3690 -0.6505 -0.2145
 6724TIP3    H241664   1.149   6.089  14.541 -0.5579  0.2648 -0.4803
 6725TIP3   OH241665   3.399   1.214   0.191  0.4716 -0.3458 -0.2064
 6725TIP3    H141666   3.381   1.146   0.126  0.5266  0.1943 -0.8098
 6725TIP3    H241667   3.331   1.280   0.176  1.5611  0.6694 -1.0147
 6726TIP3   OH241668   6.108   1.525   4.003 -0.5701 -0.3123 -0.0038
 6726TIP3    H141669   6.164   1.470   4.057  0.3249  0.0223 -0.5709
 6726TIP3    H241670   6.092   1.603   4.056 -1.1224 -0.7248  0.4520
 6727TIP3   OH241671   2.451   2.283  14.267  0.2593 -0.0925  0.1450
 6727TIP3    H141672   2.488   2.367  14.294 -0.0712  0.7268 -1.7597
 6727TIP3    H241673   2.358   2.299  14.257  0.3592 -0.2931 -1.4324
 6728TIP3   OH241674   2.803   3.378   2.009 -0.5435 -0.0536 -0.5584
 6728TIP3    H141675   2.789   3.453   2.066  1.0314  0.9683 -1.4199
 6728TIP3    H241676   2.743   3.392   1.936  0.1011  0.6849 -0.9689
 6729TIP3   OH241677   6.671   5.417  13.291 -0.3753  0.0672  0.2499
 6729TIP3    H141678   6.577   5.402  13.300 -0.4629 -1.9038 -2.4919
 6729TIP3    H241679   6.706   5.403  13.379 -2.4456 -0.9488  0.9873
 6730TIP3   OH241680   5.181   3.693  11.985  0.9698  0.7898 -0.5911
 6730TIP3    H141681   5.096   3.711  11.945  1.0706  0.6075 -0.8881
 6730TIP3    H241682   5.207   3.609  11.948 -0.0823 -0.6634  1.7297
 6731TIP3   OH241683   3.129   3.815   6.381 -0.0089 -0.5673  0.0245
 6731TIP3    H141684   3.218   3.850   6.377 -0.1064 -0.2368  0.7066
 6731TIP3    H241685   3.088   3.847   6.300 -0.0127  0.6917  0.4994
 6732TIP3   OH241686   1.428   2.954   0.161  0.8738  0.4229 -0.3235
 6732TIP3    H141687   1.338   2.920   0.160  0.4951  1.3972 -1.5858
 6732TIP3    H241688   1.467   2.922   0.080  2.5840 -2.1916  1.3890
 6733TIP3   OH241689   3.611   0.777   3.279  0.1476  0.2985  0.2644
 6733TIP3    H141690   3.699   0.743   3.261  0.0181  0.0490  0.0873
 6733TIP3    H241691   3.605   0.781   3.374  0.1519 -0.2276  0.2924
 6734TIP3   OH241692   6.223   5.364   5.748 -0.0695 -0.1095 -0.0282
 6734TIP3    H141693   6.155   5.414   5.703 -1.5868 -1.3472  0.7930
 6734TIP3    H241694   6.176   5.289   5.787  2.0165 -1.9701 -0.8807
 6735TIP3   OH241695   1.597   0.509   1.363 -0.1332 -0.0572  0.4008
 6735TIP3    H141696   1.511   0.467   1.374 -0.9966  1.0989 -1.3659
 6735TIP3    H241697   1.577   0.600   1.343  1.2215 -0.4062 -3.5624
 6736TIP3   OH241698   2.748   6.616   4.969 -0.4308 -0.5128  0.2202
 6736TIP3    H141699   2.692   6.656   4.902  1.5585  2.4557  0.1488
 6736TIP3    H241700   2.822   6.581   4.920 -0.6295 -1.4759  0.5942
 6737TIP3   OH241701   2.231   0.679   5.405  0.0722  0.5139 -0.0298
 6737TIP3    H141702   2.267   0.756   5.448 -0.3929  0.5382  0.3246
 6737TIP3    H241703   2.296   0.656   5.339  0.9236  0.3033  0.8606
 6738TIP3   OH241704   0.629   2.177   1.834 -0.1469 -0.1012  0.4126
 6738TIP3    H141705   0.678   2.151   1.912  0.5748  0.4541  0.1531
 6738TIP3    H241706   0.612   2.270   1.847  0.6201  0.1676 -0.4234
 6739TIP3   OH241707   1.438   0.224   5.630 -0.5612  0.0059 -0.7002
 6739TIP3    H141708   1.472   0.314   5.631 -1.4945  0.3599 -0.0099
 6739TIP3    H241709   1.351   0.231   5.668  0.1474 -1.5155  1.3502
 6740TIP3   OH241710   4.958   0.210   0.323 -0.0543  0.3980  0.1863
 6740TIP3    H141711   4.945   0.122   0.360 -0.0266 -0.0269 -0.7999
 6740TIP3    H241712   4.931   0.203   0.232  1.2341  1.0622 -0.2789
 6741TIP3   OH241713   2.348   4.248  15.103 -0.3268  0.2484  0.7569
 6741TIP3    H141714   2.390   4.289  15.179  0.1741  0.6110  0.2858
 6741TIP3    H241715   2.346   4.155  15.124 -1.4823  0.4832  1.8453
 6742TIP3   OH241716   0.995   4.279   3.108  0.5456  0.1366  0.3120
 6742TIP3    H141717   0.965   4.225   3.181  0.0101  0.2735  0.1946
 6742TIP3    H241718   0.929   4.347   3.100  0.1170 -0.3988 -0.8836
 6743TIP3   OH241719   0.127   6.073   3.713 -0.3906 -0.2210  0.3114
 6743TIP3    H141720   0.187   6.108   3.779 -1.5989  0.0742  1.2890
 6743TIP3    H241721   0.184   6.037   3.645  0.8961  1.6685  0.3120
 6744TIP3   OH241722   2.310   2.164   0.175  0.2658 -0.4954  0.4928
 6744TIP3    H141723   2.316   2.103   0.101  0.7564 -0.1266  0.2288
 6744TIP3    H241724   2.274   2.244   0.137  0.6076 -0.2748  0.6349
 6745TIP3   OH241725   0.852   6.241   1.597 -0.3171  0.2064 -0.4851
 6745TIP3    H141726   0.877   6.154   1.629 -0.2325  0.4396  0.0770
 6745TIP3    H241727   0.764   6.255   1.632  0.7850  1.5904  1.9408
 6746TIP3   OH241728   2.646   0.078  15.899 -0.2808  0.4999  0.0757
 6746TIP3    H141729   2.659   0.112  15.810  2.1542 -1.4040 -0.3773
 6746TIP3    H241730   2.707   0.005  15.907 -2.8903 -1.6530  2.1498
 6747TIP3   OH241731   5.858   4.276   4.679 -0.2826  0.0089  0.3781
 6747TIP3    H141732   5.785   4.337   4.688 -0.1829  0.2231 -0.1917
 6747TIP3    H241733   5.817   4.191   4.665 -0.4495  0.2968 -1.0507
 6748TIP3   OH241734   5.843   1.966   5.170 -0.4610  0.0681 -0.9172
 6748TIP3    H141735   5.851   1.994   5.261 -2.1851 -0.3476 -0.6116
 6748TIP3    H241736   5.933   1.972   5.135  0.0393  1.2926  0.4740
 6749TIP3   OH241737   1.144   5.685   4.928 -0.3842 -0.2450 -0.2671
 6749TIP3    H141738   1.166   5.647   4.843 -0.6196  0.3136 -0.5833
 6749TIP3    H241739   1.064   5.736   4.911  1.0044  2.0829 -0.3605
 6750TIP3   OH241740   3.582   6.637  11.538  0.1274 -0.0491  0.5184
 6750TIP3    H141741   3.554   6.564  11.593  0.5759  1.2906  2.6582
 6750TIP3    H241742   3.678   6.635  11.544  0.1699  0.2478 -0.0599
 6751TIP3   OH241743   4.309   4.289  12.877 -0.3942  0.3713  0.1327
 6751TIP3    H141744   4.269   4.371  12.906  0.5245  1.2082 -0.8757
 6751TIP3    H241745   4.321   4.301  12.782  1.9093  0.0547  0.3252
 6752TIP3   OH241746   0.505   3.090   1.706  0.1812  0.0508 -0.3370
 6752TIP3    H141747   0.555   3.047   1.636  0.2745  1.4872 -1.1942
 6752TIP3    H241748   0.424   3.117   1.663 -0.5971 -0.7062  0.6097
 6753TIP3   OH241749   6.823   0.993   3.880  0.6155  0.0530 -0.5948
 6753TIP3    H141750   6.794   0.929   3.815 -1.2349  0.2347 -0.0099
 6753TIP3    H241751   6.849   0.940   3.956 -1.0375 -0.0640 -0.0628
 6754TIP3   OH241752   4.272   6.209   3.065 -0.3356 -0.1038 -0.6566
 6754TIP3    H141753   4.338   6.141   3.075  0.9559  1.1711 -0.2099
 6754TIP3    H241754   4.232   6.217   3.151  0.9368  1.0674 -0.1344
 6755TIP3   OH241755   1.915   3.001   2.398  0.5672  0.2179  0.6879
 6755TIP3    H141756   1.876   3.005   2.486 -0.1660 -1.7617  0.5066
 6755TIP3    H241757   1.843   3.016   2.338  0.9382  0.8934  0.4022
 6756TIP3   OH241758   3.683   2.974   2.315 -1.1396  0.4291 -0.5950
 6756TIP3    H141759   3.598   3.011   2.339 -0.4470  0.7393  1.5821
 6756TIP3    H241760   3.717   3.034   2.248 -1.8122  1.3966 -0.0832
 6757TIP3   OH241761   0.484   0.515  16.280  0.2288  0.0240  0.3168
 6757TIP3    H141762   0.567   0.468  16.272  0.7396  0.8645  0.5311
 6757TIP3    H241763   0.503   0.602  16.244 -0.8029 -0.0405 -0.4332
 6758TIP3   OH241764   5.359   2.763   2.522  0.0917  0.2485 -0.1550
 6758TIP3    H141765   5.294   2.696   2.500  1.7311 -2.0655  1.4856
 6758TIP3    H241766   5.436   2.713   2.549  2.4570  2.8492 -1.5900
 6759TIP3   OH241767   3.927   5.107  13.606  0.4216 -0.1205  0.8197
 6759TIP3    H141768   3.953   5.015  13.603 -0.7494 -0.4893  1.4058
 6759TIP3    H241769   3.837   5.105  13.638  0.7414  1.2996  1.9033
 6760TIP3   OH241770   1.930   4.036  12.873  0.1054 -0.1572  0.9510
 6760TIP3    H141771   1.971   3.979  12.938 -0.1267 -2.4529 -0.7771
 6760TIP3    H241772   1.990   4.035  12.798 -0.1932  1.4670  0.6409
 6761TIP3   OH241773   6.591   4.939   0.119  0.4536 -0.7864 -0.2899
 6761TIP3    H141774   6.576   5.010   0.181 -2.0499 -0.3738 -1.2453
 6761TIP3    H241775   6.677   4.957   0.081  0.3092  1.1489  0.2355
 6762TIP3   OH241776   2.408   4.144  16.783 -0.1902 -0.7476 -0.2314
 6762TIP3    H141777   2.425   4.197  16.705 -1.0459 -1.7654 -1.1513
 6762TIP3    H241778   2.314   4.156  16.799  0.2168  0.5363  1.5060
 6763TIP3   OH241779   4.777   6.111  16.754  0.2377 -0.1230 -0.1715
 6763TIP3    H141780   4.716   6.050  16.794  1.2411 -0.1201  1.4292
 6763TIP3    H241781   4.843   6.056  16.713 -1.1002 -0.1439 -2.4737
 6764TIP3   OH241782   5.295   4.669   2.321 -0.0819 -0.7532 -0.6290
 6764TIP3    H141783   5.356   4.601   2.351  0.9012 -0.1130 -1.1282
 6764TIP3    H241784   5.224   4.666   2.384  0.5311 -1.4266  0.0592
 6765TIP3   OH241785   5.768   0.200  16.939  0.0295  1.0626 -0.0447
 6765TIP3    H141786   5.824   0.124  16.924  0.8769  1.8082 -0.8150
 6765TIP3    H241787   5.824   0.275  16.917 -1.8016  1.7848 -2.6881
 6766TIP3   OH241788   4.877   3.800  11.476 -0.5112 -0.5418  0.5207
 6766TIP3    H141789   4.904   3.787  11.385 -3.4984  1.0154 -0.7281
 6766TIP3    H241790   4.830   3.720  11.499  0.1324 -0.8813  0.6932
 6767TIP3   OH241791   3.363   5.928  14.960  0.1649  0.5035 -0.4566
 6767TIP3    H141792   3.394   5.964  14.877 -0.7947  0.6342 -0.7743
 6767TIP3    H241793   3.442   5.919  15.013  0.6066  1.9110 -0.8108
 6768TIP3   OH241794   5.395   0.323   3.322  0.3222  0.3781  0.1414
 6768TIP3    H141795   5.433   0.240   3.350  1.5536 -0.4323 -3.4365
 6768TIP3    H241796   5.321   0.298   3.267 -0.9538  1.7880  1.1435
 6769TIP3   OH241797   1.917   0.660  14.701  0.2430 -0.1566 -0.6001
 6769TIP3    H141798   1.841   0.602  14.708 -0.8889  1.0749 -2.1221
 6769TIP3    H241799   1.971   0.620  14.633  1.5615 -1.6245  1.2335
 6770TIP3   OH241800   0.743   3.122  13.856 -0.1925 -0.3940  0.2364
 6770TIP3    H141801   0.837   3.103  13.861 -0.4503 -1.5446  0.9739
 6770TIP3    H241802   0.727   3.135  13.763  0.6603 -0.3843  0.0786
 6771TIP3   OH241803   0.617   5.816   5.149 -0.1323  0.5062 -0.7595
 6771TIP3    H141804   0.679   5.864   5.204 -1.2290  0.6509  0.3770
 6771TIP3    H241805   0.532   5.828   5.191 -1.0058  0.5385 -2.4334
 6772TIP3   OH241806   0.606   6.144   0.404  0.1267 -0.1439 -0.3276
 6772TIP3    H141807   0.666   6.209   0.367  0.1151 -1.2054 -2.3391
 6772TIP3    H241808   0.624   6.147   0.498 -0.0912  2.9510 -0.2514
 6773TIP3   OH241809   4.778   3.062  12.086  0.1781 -0.0682 -0.3765
 6773TIP3    H141810   4.868   3.045  12.056  0.1902  2.3801 -2.0132
 6773TIP3    H241811   4.726   2.991  12.047  1.3495 -1.4806  0.5344
 6774TIP3   OH241812   3.147   6.413   0.779 -0.1080  0.1721  0.1720
 6774TIP3    H141813   3.076   6.356   0.750  0.4810  0.1711 -1.3469
 6774TIP3    H241814   3.217   6.400   0.714  0.1753  2.3316 -0.0254
 6775TIP3   OH241815   3.157   5.341  15.564 -0.2421 -0.2174 -0.4067
 6775TIP3    H141816   3.251   5.340  15.582 -0.2010  2.0733 -0.2076
 6775TIP3    H241817   3.118   5.289  15.634  0.8403 -0.7261 -0.1734
 6776TIP3   OH241818   5.019   1.091  17.044 -0.0295  0.2260 -0.2208
 6776TIP3    H141819   4.980   1.057  17.125 -0.9458 -0.6162 -1.0039
 6776TIP3    H241820   5.054   1.014  17.000 -2.4759  0.1167 -2.2059
 6777TIP3   OH241821   2.804   4.197   5.639  0.0512 -0.3879 -0.6409
 6777TIP3    H141822   2.829   4.136   5.569  0.4737 -0.1050 -0.7404
 6777TIP3    H241823   2.716   4.170   5.664  1.2924 -2.8892  1.3560
 6778TIP3   OH241824   6.668   4.830  11.181 -0.1475  0.6297 -0.4816
 6778TIP3    H141825   6.667   4.745  11.226  1.4187  1.3311  0.9780
 6778TIP3    H241826   6.609   4.818  11.106  0.3637 -1.8817 -0.5771
 6779TIP3   OH241827   1.058   0.049  11.608  0.0870  0.1592 -0.4000
 6779TIP3    H141828   1.002   0.091  11.543 -0.5987 -0.7340 -0.4117
 6779TIP3    H241829   1.129   0.010  11.557 -0.7224 -0.9841 -0.7136
 6780TIP3   OH241830   0.727   3.961   0.498  0.6642 -0.5547  0.9188
 6780TIP3    H141831   0.748   4.052   0.518 -1.2280 -0.0663  0.9324
 6780TIP3    H241832   0.655   3.940   0.558  0.6465 -1.8578  0.4658
 6781TIP3   OH241833   6.302   1.445   4.530  0.1286  0.4350  0.0715
 6781TIP3    H141834   6.371   1.481   4.587  0.8787 -1.7413  0.6591
 6781TIP3    H241835   6.346   1.426   4.448  0.7044 -2.2428  0.8860
 6782TIP3   OH241836   4.471   2.842  14.497 -0.0662 -0.0677  0.3434
 6782TIP3    H141837   4.388   2.818  14.538 -1.2622  2.4326 -0.4122
 6782TIP3    H241838   4.524   2.877  14.570 -0.6757  0.6645  0.4557
 6783TIP3   OH241839   1.306   1.296  12.942 -0.5469 -0.0673 -0.0573
 6783TIP3    H141840   1.334   1.301  13.033  0.3963  0.8711 -0.3835
 6783TIP3    H241841   1.218   1.334  12.942  0.4823  2.4938  0.0672
 6784TIP3   OH241842   3.758   5.914   5.733  0.7595  0.0974  0.0830
 6784TIP3    H141843   3.713   5.885   5.812 -1.4803  0.4239 -1.0031
 6784TIP3    H241844   3.840   5.865   5.733  0.0387 -1.2080  1.6920
 6785TIP3   OH241845   4.303   0.919  16.152 -0.1114  0.0128  0.0501
 6785TIP3    H141846   4.362   0.983  16.112 -1.1206  0.6464 -0.4459
 6785TIP3    H241847   4.229   0.970  16.184  0.3242 -0.5636  2.1319
 6786TIP3   OH241848   6.314   5.210   2.822  0.0303  0.1230 -0.2208
 6786TIP3    H141849   6.382   5.163   2.774  0.4125  1.0480 -0.5972
 6786TIP3    H241850   6.321   5.177   2.912  0.2821 -0.5458 -0.4836
 6787TIP3   OH241851   2.732   5.815  14.486 -0.4208 -0.1575 -0.2531
 6787TIP3    H141852   2.733   5.874  14.562 -1.3309 -1.1987  0.6071
 6787TIP3    H241853   2.640   5.816  14.457 -0.5441 -1.4558  0.0415
 6788TIP3   OH241854   3.111   3.076  11.288 -0.0007  0.1881  0.0289
 6788TIP3    H141855   3.197   3.104  11.319  0.9302 -0.6797 -1.6618
 6788TIP3    H241856   3.092   3.134  11.214 -1.0152  0.5215  0.5159
 6789TIP3   OH241857   6.757   2.097  15.232 -0.3563 -0.0909  0.2056
 6789TIP3    H141858   6.674   2.068  15.271 -0.2191  0.5906  1.0274
 6789TIP3    H241859   6.742   2.090  15.138 -0.8623 -1.3087  0.3537
 6790TIP3   OH241860   0.139   4.150  13.604  0.3839  0.1422  0.4316
 6790TIP3    H141861   0.104   4.067  13.570  0.2742  0.0243  0.8253
 6790TIP3    H241862   0.085   4.169  13.680  1.3592 -0.2048  1.2348
 6791TIP3   OH241863   5.186   1.368   2.166 -0.2658 -0.1934  0.0712
 6791TIP3    H141864   5.219   1.447   2.124 -1.4949 -0.5160 -1.6230
 6791TIP3    H241865   5.251   1.347   2.233  0.7828  1.4620 -0.3750
 6792TIP3   OH241866   5.287   6.690  13.912  0.4097  0.2587 -0.4283
 6792TIP3    H141867   5.243   6.744  13.978 -1.2118 -1.6972  0.1789
 6792TIP3    H241868   5.380   6.714  13.920 -0.2160  3.0209 -0.3385
 6793TIP3   OH241869   4.944   3.270   2.824 -0.5118 -0.5547  0.2139
 6793TIP3    H141870   4.980   3.183   2.806  1.7291  0.6938 -1.9189
 6793TIP3    H241871   5.005   3.309   2.887  1.5053  1.1251 -2.5090
 6794TIP3   OH241872   0.445   0.380   1.780  0.5991 -0.8223 -0.2136
 6794TIP3    H141873   0.406   0.414   1.700  0.1612  0.9944  0.7093
 6794TIP3    H241874   0.416   0.288   1.784 -1.7804 -0.1717 -0.6859
 6795TIP3   OH241875   0.180   2.277   3.026 -0.0900 -0.2317 -0.0459
 6795TIP3    H141876   0.154   2.342   3.091 -3.3086 -0.0270 -1.3135
 6795TIP3    H241877   0.121   2.203   3.041  0.5039 -1.0166 -1.3955
 6796TIP3   OH241878   5.655   3.110  10.710 -0.2278 -0.4397  0.1219
 6796TIP3    H141879   5.746   3.093  10.737  0.2520  0.8096 -0.6440
 6796TIP3    H241880   5.636   3.041  10.646  0.6174  0.0268 -0.6439
 6797TIP3   OH241881   1.237   5.747   2.379  0.3991 -0.0394  0.2318
 6797TIP3    H141882   1.288   5.823   2.351 -0.2438  0.3747  0.1669
 6797TIP3    H241883   1.294   5.672   2.360  1.0442  0.4209  0.3081
 6798TIP3   OH241884   4.626   2.580  11.637 -1.0455 -0.6812  0.4956
 6798TIP3    H141885   4.718   2.603  11.647 -0.8752 -0.7946 -0.6695
 6798TIP3    H241886   4.609   2.516  11.707 -0.3753 -0.3133  1.0045
 6799TIP3   OH241887   5.334   1.840   4.175  0.3558  0.6935  0.2249
 6799TIP3    H141888   5.263   1.886   4.132  0.1320  0.2093  0.0669
 6799TIP3    H241889   5.293   1.795   4.249  0.3389 -0.2501 -0.3418
 6800TIP3   OH241890   1.477   5.404  12.964 -0.2179  0.3989 -0.1403
 6800TIP3    H141891   1.552   5.383  12.908  0.3250  0.5018  0.5430
 6800TIP3    H241892   1.450   5.491  12.935  0.2112  0.5538 -0.0787
 6801TIP3   OH241893   0.246   1.565  11.281 -0.0499  0.0492 -1.3653
 6801TIP3    H141894   0.271   1.479  11.248 -0.0052 -0.3970 -0.2068
 6801TIP3    H241895   0.164   1.550  11.328  0.2568  0.5319 -0.6626
 6802TIP3   OH241896   5.820   6.179  13.852 -0.3541  0.4009  0.4438
 6802TIP3    H141897   5.734   6.202  13.816  0.0676 -0.4109 -1.1870
 6802TIP3    H241898   5.881   6.199  13.781  0.4827 -1.6239  0.5324
 6803TIP3   OH241899   3.676   0.483   5.327  0.4438  0.0595 -0.6445
 6803TIP3    H141900   3.618   0.418   5.286  0.0540  0.1877 -0.3065
 6803TIP3    H241901   3.668   0.560   5.271  1.0280 -0.2282 -1.1349
 6804TIP3   OH241902   4.364   4.587   1.981  0.3550 -0.3903  0.2326
 6804TIP3    H141903   4.308   4.663   1.997  0.7853 -0.2675  1.2005
 6804TIP3    H241904   4.453   4.618   1.994  0.5541 -1.0002  0.3812
 6805TIP3   OH241905   2.435   1.128  11.767 -0.2676 -0.0664  0.0607
 6805TIP3    H141906   2.512   1.077  11.792 -0.7417 -0.7236  0.1999
 6805TIP3    H241907   2.370   1.063  11.742 -1.1052  0.4258  0.8665
 6806TIP3   OH241908   5.151   0.437   1.700  0.5736  0.3516  0.0421
 6806TIP3    H141909   5.239   0.400   1.698  0.3482 -0.1598 -0.8738
 6806TIP3    H241910   5.102   0.386   1.636 -0.9199 -0.6744  1.9178
 6807TIP3   OH241911   5.048   2.960  15.298  0.4918 -0.5340  0.0720
 6807TIP3    H141912   5.044   2.872  15.260 -0.1777 -0.1772 -0.7349
 6807TIP3    H241913   4.991   2.956  15.374  0.5283 -0.8238  0.0851
 6808TIP3   OH241914   4.275   0.362  10.628 -0.0468  0.0743  0.3794
 6808TIP3    H141915   4.269   0.373  10.533 -1.1466  0.7718  0.5090
 6808TIP3    H241916   4.185   0.365  10.659  0.3941  2.2554  1.6899
 6809TIP3   OH241917   5.333   3.114   1.503  0.3486  0.8859  0.3331
 6809TIP3    H141918   5.347   3.162   1.422 -1.5831  0.6931 -0.1715
 6809TIP3    H241919   5.409   3.056   1.511 -0.3096 -0.5185 -2.4136
 6810TIP3   OH241920   2.786   0.232   3.999  0.0052 -0.1378 -0.0032
 6810TIP3    H141921   2.703   0.210   4.042 -0.1479 -1.4630 -0.9151
 6810TIP3    H241922   2.831   0.289   4.062 -0.7380 -1.0134  1.3824
 6811TIP3   OH241923   6.079   3.622   3.226  0.5422  0.5644 -0.0410
 6811TIP3    H141924   6.031   3.664   3.155 -0.0006  0.0626  0.0264
 6811TIP3    H241925   6.087   3.689   3.294 -0.3705  0.5416  0.0918
 6812TIP3   OH241926   4.979   5.356  12.406 -0.9150 -0.1469  0.1262
 6812TIP3    H141927   5.057   5.371  12.354 -2.1060  2.1039 -1.1478
 6812TIP3    H241928   4.948   5.443  12.429 -2.0489 -1.0190  2.1966
 6813TIP3   OH241929   1.702   4.378   3.531  0.4695 -0.1273 -0.0143
 6813TIP3    H141930   1.674   4.347   3.445  2.2650  0.0932 -0.7232
 6813TIP3    H241931   1.669   4.312   3.592 -0.5525 -0.4588 -0.8909
 6814TIP3   OH241932   3.205   3.551  12.710  0.5647 -0.0809  0.5573
 6814TIP3    H141933   3.187   3.620  12.646  0.7207  1.5664  2.2076
 6814TIP3    H241934   3.292   3.519  12.687 -0.4925 -1.5372 -1.7411
 6815TIP3   OH241935   4.410   6.608  12.552  0.7357  0.2580 -0.4749
 6815TIP3    H141936   4.324   6.628  12.588  2.1376  1.5995  2.5322
 6815TIP3    H241937   4.414   6.656  12.469 -0.4306  2.5528  0.7204
 6816TIP3   OH241938   3.591   3.786  13.090  0.3165 -0.1017  0.1718
 6816TIP3    H141939   3.654   3.804  13.160  0.7336 -2.2466  0.4323
 6816TIP3    H241940   3.506   3.810  13.127  0.7667  0.8932  0.5730
 6817TIP3   OH241941   5.871   1.292   5.808  0.2345 -0.4153 -0.1524
 6817TIP3    H141942   5.954   1.246   5.812  2.1351  2.7784  0.9098
 6817TIP3    H241943   5.836   1.287   5.897  0.5071  0.2641 -0.0038
 6818TIP3   OH241944   3.807   5.537  15.708 -0.3846 -0.0656 -0.3357
 6818TIP3    H141945   3.834   5.476  15.640  0.1591  0.0182 -0.1984
 6818TIP3    H241946   3.752   5.600  15.663 -0.0044  0.0044 -0.7047
 6819TIP3   OH241947   4.473   3.831  13.836 -0.2163 -0.4423  0.5048
 6819TIP3    H141948   4.532   3.807  13.908  1.5866 -0.5932 -0.9478
 6819TIP3    H241949   4.497   3.921  13.815 -1.5142 -0.0140  0.7880
 6820TIP3   OH241950   4.945   4.583   2.581  0.1107 -0.5565 -0.3129
 6820TIP3    H141951   4.951   4.502   2.530 -1.3385  0.3499 -2.0651
 6820TIP3    H241952   4.941   4.652   2.515 -0.2463  0.8216  1.0930
 6821TIP3   OH241953   6.447   3.778   6.751 -0.5598  0.1572 -0.6420
 6821TIP3    H141954   6.353   3.765   6.737 -0.6239 -0.7472  0.4261
 6821TIP3    H241955   6.456   3.871   6.769 -1.4705  0.0408  0.5720
 6822TIP3   OH241956   4.040   0.611  11.450 -0.0439 -0.2553 -0.0527
 6822TIP3    H141957   4.021   0.690  11.399  1.6268  1.8717  2.2850
 6822TIP3    H241958   4.101   0.642  11.518 -0.8425 -3.1878  2.1888
 6823TIP3   OH241959   3.334   4.207   1.121  0.8110 -0.1625 -0.0550
 6823TIP3    H141960   3.240   4.217   1.108  0.3706 -1.9598  1.2549
 6823TIP3    H241961   3.373   4.279   1.073 -1.1637 -0.0985 -1.7044
 6824TIP3   OH241962   3.682   0.276  14.670 -0.2937  0.4295 -0.0715
 6824TIP3    H141963   3.775   0.266  14.649  0.0070  2.9816 -0.2341
 6824TIP3    H241964   3.651   0.341  14.607 -2.3687 -0.7752 -0.3815
 6825TIP3   OH241965   0.476   1.164  17.022 -0.4458  0.1529 -0.2107
 6825TIP3    H141966   0.384   1.189  17.033 -0.4795 -0.4879  1.0767
 6825TIP3    H241967   0.526   1.242  17.049 -0.5801  0.8467 -1.8148
 6826TIP3   OH241968   3.586   6.446  12.638  0.1110  0.2093  0.3394
 6826TIP3    H141969   3.612   6.471  12.549  0.1274 -1.2198 -0.0860
 6826TIP3    H241970   3.666   6.457  12.690  1.5023 -3.2041 -0.7629
 6827TIP3   OH241971   2.692   6.578  12.572  0.2187  0.5051 -0.2498
 6827TIP3    H141972   2.602   6.592  12.603  0.1076 -0.2614 -0.2099
 6827TIP3    H241973   2.689   6.599  12.479  0.1976  1.2865 -0.0890
 6828TIP3   OH241974   1.698   6.638   0.232  0.3602 -0.4452 -0.3798
 6828TIP3    H141975   1.643   6.696   0.284 -0.4089 -0.6648 -0.9298
 6828TIP3    H241976   1.718   6.565   0.291 -1.5244 -1.2956 -0.7481
 6829TIP3   OH241977   6.713   5.252  13.513  0.1399  0.2468  0.5380
 6829TIP3    H141978   6.724   5.160  13.493  0.5475  0.4872 -0.3561
 6829TIP3    H241979   6.623   5.259  13.546 -0.5177 -0.1831 -1.0962
 6830TIP3   OH241980   6.556   4.469   3.011  0.0684 -0.0034 -0.8504
 6830TIP3    H141981   6.611   4.437   3.083  0.3940  1.1740 -0.5457
 6830TIP3    H241982   6.585   4.418   2.935  1.5548  0.5196 -0.6792
 6831TIP3   OH241983   2.111   1.314  16.646  0.2417 -0.2456 -0.4174
 6831TIP3    H141984   2.187   1.322  16.588  0.2552 -0.7775 -0.4820
 6831TIP3    H241985   2.108   1.396  16.695 -0.5933  0.8150 -2.1561
 6832TIP3   OH241986   1.147   2.707   2.373 -0.1769 -0.1547  0.4825
 6832TIP3    H141987   1.147   2.800   2.397  0.3368  0.5149 -1.8681
 6832TIP3    H241988   1.237   2.689   2.346  0.4069 -2.0969  3.2772
 6833TIP3   OH241989   0.664   6.157  14.428 -0.2666 -0.1516 -0.2029
 6833TIP3    H141990   0.751   6.134  14.397 -0.6056  0.4053 -1.6105
 6833TIP3    H241991   0.607   6.148  14.351 -1.0851  1.5600  0.1505
 6834TIP3   OH241992   6.333   5.664   6.174 -0.2084 -0.1808 -0.3103
 6834TIP3    H141993   6.292   5.751   6.169  0.1148 -0.0373 -0.4529
 6834TIP3    H241994   6.299   5.618   6.097 -0.2430 -0.1227 -0.3308
 6835TIP3   OH241995   1.097   4.205   5.257  0.2377  0.0010 -0.4529
 6835TIP3    H141996   1.114   4.260   5.180 -0.8005  0.9207 -0.0663
 6835TIP3    H241997   1.125   4.259   5.332 -0.6897 -0.0228 -0.0745
 6836TIP3   OH241998   6.461   5.033  12.986  0.1901 -0.5492  0.1199
 6836TIP3    H141999   6.545   4.987  12.991 -0.7233 -2.2022  1.0371
 6836TIP3    H242000   6.464   5.080  12.903  2.2618 -0.0564  0.4227
 6837TIP3   OH242001   4.228   5.345  16.059 -0.0193 -0.4915  0.0176
 6837TIP3    H142002   4.242   5.260  16.101 -0.4807 -1.9693 -2.6257
 6837TIP3    H242003   4.133   5.358  16.062  0.1384  0.6078  1.5281
 6838TIP3   OH242004   3.181   2.820  14.499 -0.0430 -0.1149  0.6157
 6838TIP3    H142005   3.168   2.905  14.541 -2.9580 -0.9616  1.6958
 6838TIP3    H242006   3.196   2.759  14.571 -1.1198 -0.9663  0.1561
 6839TIP3   OH242007   1.169   3.171   1.872  0.0698  0.1664  0.1700
 6839TIP3    H142008   1.194   3.113   1.944  3.1965  0.4132 -0.5684
 6839TIP3    H242009   1.128   3.246   1.914 -2.8863 -1.8947  1.2292
 6840TIP3   OH242010   5.445   6.073   4.933  0.5486 -0.1180 -0.8343
 6840TIP3    H142011   5.532   6.032   4.928 -0.4342 -2.2130 -1.7304
 6840TIP3    H242012   5.402   6.048   4.852 -1.7275 -1.1452  0.5861
 6841TIP3   OH242013   6.033   6.627  11.890 -1.2904 -0.0777 -0.3645
 6841TIP3    H142014   6.015   6.709  11.937 -0.0811 -0.3434  0.5858
 6841TIP3    H242015   6.119   6.641  11.850 -0.2830 -1.4823  1.2133
 6842TIP3   OH242016   2.298   2.119   5.943 -0.5855  0.0914 -0.1964
 6842TIP3    H142017   2.250   2.040   5.971  1.4925 -0.5701  1.8839
 6842TIP3    H242018   2.311   2.168   6.024  1.3483  0.7086 -0.8289
 6843TIP3   OH242019   2.480   1.287  14.651 -0.0027 -0.1505  0.6434
 6843TIP3    H142020   2.498   1.207  14.699  0.2775  0.1257  1.0056
 6843TIP3    H242021   2.506   1.357  14.710 -0.2769  0.2093  0.3461
 6844TIP3   OH242022   1.318   4.107  16.109  0.1496 -1.0375 -0.1745
 6844TIP3    H142023   1.232   4.145  16.128  0.5529 -0.2819  0.2085
 6844TIP3    H242024   1.372   4.133  16.184  1.0288 -0.4664 -0.9820
 6845TIP3   OH242025   2.891   3.637  15.551 -0.2954  0.0787 -0.4676
 6845TIP3    H142026   2.861   3.687  15.475 -0.9482 -0.5085 -0.5965
 6845TIP3    H242027   2.972   3.595  15.520 -0.7174 -0.3975 -0.9330
 6846TIP3   OH242028   4.385   4.613   5.268 -0.8865 -0.0776  0.1094
 6846TIP3    H142029   4.358   4.535   5.316 -0.7456 -0.9959 -1.2492
 6846TIP3    H242030   4.447   4.657   5.326 -1.0549 -0.9132  0.9462
 6847TIP3   OH242031   5.075   5.569  10.923  0.0135  0.0398  0.3069
 6847TIP3    H142032   4.990   5.608  10.903 -0.1986 -1.1601 -1.2851
 6847TIP3    H242033   5.077   5.488  10.874  2.4142  0.4217 -0.3735
 6848TIP3   OH242034   3.484   1.468  14.557  0.4323  0.0067 -0.1450
 6848TIP3    H142035   3.425   1.429  14.622  0.5144 -0.7082 -0.4900
 6848TIP3    H242036   3.470   1.562  14.566 -0.5721 -0.1360 -0.0263
 6849TIP3   OH242037   2.921   5.689   4.796  0.0316 -0.2780  0.0334
 6849TIP3    H142038   2.959   5.601   4.801  0.3582 -0.1274  0.2521
 6849TIP3    H242039   2.970   5.732   4.726  0.1585 -0.1362  0.2076
 6850TIP3   OH242040   1.992   4.642  14.057 -0.3891 -0.0115 -0.1389
 6850TIP3    H142041   1.957   4.718  14.103  1.6933  1.6316 -1.0715
 6850TIP3    H242042   1.964   4.567  14.109 -1.2187  1.4996  1.7140
 6851TIP3   OH242043   6.068   2.936  16.888  0.3974  0.6682 -0.2355
 6851TIP3    H142044   6.095   2.874  16.820  2.0986  0.0760  0.9239
 6851TIP3    H242045   6.043   2.881  16.962  0.3869  1.3411  0.2722
 6852TIP3   OH242046   1.694   5.814  12.863  0.3175 -0.0063  0.1107
 6852TIP3    H142047   1.719   5.869  12.938 -2.4437  1.3390  0.1821
 6852TIP3    H242048   1.614   5.854  12.830 -0.7130 -2.8585 -1.1629
 6853TIP3   OH242049   4.355   0.691  14.984  0.1294  0.7040  0.1765
 6853TIP3    H142050   4.335   0.709  14.892  0.3543 -0.7390 -0.1861
 6853TIP3    H242051   4.327   0.600  14.997 -1.0529  1.2639  1.8888
 6854TIP3   OH242052   2.243   2.429  15.785  0.5433  0.5337 -0.5474
 6854TIP3    H142053   2.290   2.421  15.868 -0.5125 -0.2728 -0.0025
 6854TIP3    H242054   2.269   2.515  15.752  0.4807  1.1785  0.9567
 6855TIP3   OH242055   3.056   1.222   2.956 -0.3270 -0.1998  0.5702
 6855TIP3    H142056   3.086   1.313   2.952  1.8029 -0.8781 -1.3186
 6855TIP3    H242057   2.968   1.224   2.917 -0.2477  1.0397  0.4167
 6856TIP3   OH242058   0.202   6.681  12.824 -0.4867  0.1873  0.9270
 6856TIP3    H142059   0.293   6.699  12.847 -0.1507  1.8759 -1.3523
 6856TIP3    H242060   0.190   6.588  12.842  1.7792 -0.1380  1.0195
 6857TIP3   OH242061   3.540   0.893   1.597  0.2859 -0.0087 -0.7872
 6857TIP3    H142062   3.528   0.843   1.678  0.7787  1.5663  0.2999
 6857TIP3    H242063   3.634   0.887   1.579  0.3588  0.5877 -0.6091
 6858TIP3   OH242064   3.906   1.577   1.632 -0.2446 -0.1407 -0.4410
 6858TIP3    H142065   3.974   1.514   1.654 -0.2916  0.3707  1.3919
 6858TIP3    H242066   3.941   1.627   1.559  0.5085 -1.1437 -0.7879
 6859TIP3   OH242067   2.358   0.854  14.778 -0.3881 -0.1157  0.0908
 6859TIP3    H142068   2.432   0.835  14.720 -0.9402 -1.5361 -0.1781
 6859TIP3    H242069   2.353   0.950  14.780  1.0190 -0.0079 -0.4286
 6860TIP3   OH242070   2.078   1.595  15.118  0.4135  0.2103  0.2571
 6860TIP3    H142071   2.154   1.550  15.080 -0.2515  0.1318 -1.0160
 6860TIP3    H242072   2.091   1.687  15.095 -0.0908  0.1351 -0.3528
 6861TIP3   OH242073   0.186   5.446   3.636 -0.5428  0.4297  0.2083
 6861TIP3    H142074   0.261   5.420   3.690 -0.0022 -0.0471 -0.7557
 6861TIP3    H242075   0.210   5.421   3.547 -1.5430  0.9485 -0.2253
 6862TIP3   OH242076   6.781   3.553   0.687  0.0296  0.1012  0.2344
 6862TIP3    H142077   6.763   3.508   0.769  0.4169 -2.1331 -0.8172
 6862TIP3    H242078   6.724   3.630   0.688  0.1100  0.1975  2.6027
 6863TIP3   OH242079   3.726   5.224   0.092 -0.1666 -0.1845 -0.1229
 6863TIP3    H142080   3.759   5.245   0.179 -2.3525 -4.9298  2.2027
 6863TIP3    H242081   3.648   5.279   0.082  0.5950  1.0424  0.4245
 6864TIP3   OH242082   0.222   4.452   5.907  0.7962  0.1126  0.0022
 6864TIP3    H142083   0.133   4.435   5.875  0.5377 -0.5377  1.0254
 6864TIP3    H242084   0.242   4.378   5.964  1.9896  0.2724 -0.1801
 6865TIP3   OH242085   5.456   0.922   4.393 -0.5362  0.6626  0.1647
 6865TIP3    H142086   5.482   0.841   4.349  0.4226  0.3559  1.2562
 6865TIP3    H242087   5.496   0.992   4.342 -1.3983  0.4732 -0.8066
 6866TIP3   OH242088   5.638   0.094   2.488  0.2277 -0.7619  0.3950
 6866TIP3    H142089   5.555   0.141   2.476  0.9269  0.3435 -0.2227
 6866TIP3    H242090   5.623   0.039   2.565 -1.0651 -0.5585  0.3163
 6867TIP3   OH242091   1.203   3.997  16.396  0.3457 -0.0683  0.5577
 6867TIP3    H142092   1.119   3.953  16.387  0.3984 -0.3224  1.2781
 6867TIP3    H242093   1.267   3.936  16.359  0.3672 -0.4218  1.1752
 6868TIP3   OH242094   2.514   2.428  12.342 -0.0322 -0.0591  0.1143
 6868TIP3    H142095   2.502   2.497  12.277 -0.5302 -0.5336 -0.3023
 6868TIP3    H242096   2.444   2.366  12.325 -0.4880  0.0510  1.4309
 6869TIP3   OH242097   5.268   0.903   3.373  0.6321 -0.0314 -0.3775
 6869TIP3    H142098   5.268   0.967   3.302  1.4531 -1.1721 -1.4306
 6869TIP3    H242099   5.252   0.819   3.331  3.0527 -1.0126  0.4745
 6870TIP3   OH242100   4.663   5.214   1.239  0.3155 -0.2028 -0.2350
 6870TIP3    H142101   4.681   5.126   1.272 -1.3059 -0.2943  0.5383
 6870TIP3    H242102   4.567   5.217   1.230  0.4378  1.0578 -1.4809
 6871TIP3   OH242103   4.396   4.033   3.675 -0.1566 -0.1119  0.3293
 6871TIP3    H142104   4.476   4.071   3.638 -0.8455 -0.0383 -1.1527
 6871TIP3    H242105   4.421   4.006   3.764  1.7912 -0.9706 -0.4181
 6872TIP3   OH242106   2.530   2.742   2.090 -0.4508 -0.0887  0.3581
 6872TIP3    H142107   2.512   2.797   2.166 -1.5312 -1.6883  1.3183
 6872TIP3    H242108   2.581   2.669   2.124  3.6154  1.6295 -1.4074
 6873TIP3   OH242109   2.644   1.491   2.446  0.5331 -0.1628  0.2556
 6873TIP3    H142110   2.610   1.426   2.385  0.5495 -0.1951  0.2809
 6873TIP3    H242111   2.586   1.566   2.436  0.5395 -0.1657  0.1958
 6874TIP3   OH242112   0.080   3.542  16.579 -0.0454 -0.6047 -0.4991
 6874TIP3    H142113   0.161   3.520  16.625 -1.2771 -0.3076  1.9613
 6874TIP3    H242114   0.017   3.476  16.609 -1.5442  1.0710  0.2044
 6875TIP3   OH242115   0.908   4.005   1.868 -0.0891 -0.7219  0.5211
 6875TIP3    H142116   0.970   4.044   1.807  0.2393  0.1007  1.3568
 6875TIP3    H242117   0.963   3.968   1.937 -0.4988  1.7617  2.3254
 6876TIP3   OH242118   0.280   5.454  10.864 -0.3135  0.4741 -0.2847
 6876TIP3    H142119   0.217   5.447  10.792  0.2001 -0.4833 -0.6494
 6876TIP3    H242120   0.325   5.538  10.849 -0.6364  0.5686 -0.7208
 6877TIP3   OH242121   0.766   6.740   5.306  0.3225  0.1141 -0.4141
 6877TIP3    H142122   0.723   6.703   5.383 -1.0868  2.1324 -0.1617
 6877TIP3    H242123   0.749   6.676   5.236 -2.0030  0.2066 -0.0087
 6878TIP3   OH242124   6.233   2.572   0.905 -0.1654  0.7653  0.1502
 6878TIP3    H142125   6.202   2.554   0.816  0.1466 -0.5375  0.2837
 6878TIP3    H242126   6.155   2.567   0.959 -0.2356  0.8218  0.0563
 6879TIP3   OH242127   0.035   6.585  14.089  0.1622 -0.3771  0.4309
 6879TIP3    H142128  -0.012   6.507  14.120 -0.8635  0.6476  1.5397
 6879TIP3    H242129  -0.031   6.654  14.088  1.7423  1.3471  2.9505
 6880TIP3   OH242130   6.625   5.839  15.375  0.3408 -0.1111 -0.5290
 6880TIP3    H142131   6.539   5.845  15.418  0.4899 -1.8915  0.1005
 6880TIP3    H242132   6.611   5.879  15.289 -0.9611  0.1372 -0.2333
 6881TIP3   OH242133   1.124   0.763   5.391  0.0669 -0.3069  0.0223
 6881TIP3    H142134   1.173   0.845   5.392 -2.5461  1.4027 -0.7242
 6881TIP3    H242135   1.173   0.706   5.332  2.8086  0.0394  1.7837
 6882TIP3   OH242136   1.694   2.778   2.109  0.1389  0.5468  0.4000
 6882TIP3    H142137   1.682   2.758   2.202 -3.4465 -2.3749 -0.4360
 6882TIP3    H242138   1.784   2.753   2.090  0.5227 -0.1505  2.8049
 6883TIP3   OH242139   5.587   2.828  13.561 -0.2019 -0.3024  0.2827
 6883TIP3    H142140   5.538   2.797  13.638  0.6606 -1.5575  0.3437
 6883TIP3    H242141   5.555   2.774  13.489 -1.2496  1.0915 -0.3670
 6884TIP3   OH242142   3.694   5.458  14.463 -0.0745  0.2399 -0.1011
 6884TIP3    H142143   3.748   5.386  14.430 -0.0990  0.2126 -0.0823
 6884TIP3    H242144   3.695   5.523  14.393  0.5517  0.5418  0.1784
 6885TIP3   OH242145   2.096   0.026  11.418 -0.6341  0.2399 -0.3119
 6885TIP3    H142146   2.150   0.048  11.342  0.9719 -0.4544  0.5897
 6885TIP3    H242147   2.104  -0.069  11.425 -1.7003  0.1661  0.0712
 6886TIP3   OH242148   4.590   2.440  11.103  0.5314 -0.2059  0.4262
 6886TIP3    H142149   4.543   2.521  11.086 -0.0055 -0.6063 -0.0313
 6886TIP3    H242150   4.551   2.376  11.043 -2.3952 -2.0429  3.8792
 6887TIP3   OH242151   6.618   0.527   1.998 -0.2991 -0.1961  0.0154
 6887TIP3    H142152   6.568   0.500   1.921  0.1149 -1.7960  0.2641
 6887TIP3    H242153   6.710   0.514   1.972 -0.1001  0.6180  0.2995
 6888TIP3   OH242154   1.171   0.103   5.463 -0.5633 -0.3374  0.0811
 6888TIP3    H142155   1.247   0.154   5.433 -0.3467  0.3213  1.6423
 6888TIP3    H242156   1.129   0.074   5.383 -0.5461  2.1088 -0.8988
 6889TIP3   OH242157   3.016   2.972   5.308  0.4981 -0.4522  0.4608
 6889TIP3    H142158   2.995   3.065   5.319 -0.6454 -0.6845  0.3625
 6889TIP3    H242159   2.932   2.927   5.317  0.8659 -1.3889 -0.5024
 6890TIP3   OH242160   4.745   3.179  13.487 -0.0166 -0.1681  0.4438
 6890TIP3    H142161   4.650   3.176  13.477 -0.1211 -2.1634  1.4575
 6890TIP3    H242162   4.778   3.204  13.401 -1.3825 -2.0175 -0.6919
 6891TIP3   OH242163   5.445   6.289  10.619 -0.1660 -0.3881  0.2310
 6891TIP3    H142164   5.508   6.256  10.556 -0.3357 -1.9604  0.8306
 6891TIP3    H242165   5.412   6.210  10.663  0.3978  0.6604  2.6926
 6892TIP3   OH242166   1.924   1.226   3.578 -0.0442  0.0474  0.1473
 6892TIP3    H142167   1.983   1.152   3.567 -1.2840 -0.6995 -2.1303
 6892TIP3    H242168   1.979   1.304   3.566  0.5323 -0.6236 -1.9755
 6893TIP3   OH242169   4.025   4.511  14.452  0.3209 -0.2507 -0.0308
 6893TIP3    H142170   4.043   4.600  14.482 -0.6301 -0.5091  1.4493
 6893TIP3    H242171   4.110   4.467  14.455  0.7472  0.5322 -0.4952
 6894TIP3   OH242172   1.416   3.404   6.423  0.2196 -0.1461  0.6582
 6894TIP3    H142173   1.425   3.443   6.336  0.3174  0.6191  0.9990
 6894TIP3    H242174   1.475   3.456   6.478 -1.1512  0.5324  1.5359
 6895TIP3   OH242175   6.107   6.682   3.068  0.8566 -0.0826 -0.5473
 6895TIP3    H142176   6.050   6.737   3.014  0.2369  0.5454  0.6973
 6895TIP3    H242177   6.185   6.668   3.015 -0.1748 -0.3998 -2.0313
 6896TIP3   OH242178   3.541   3.861   2.582 -0.1840  0.3055 -0.2962
 6896TIP3    H142179   3.469   3.800   2.597 -0.2396  0.4605  0.0797
 6896TIP3    H242180   3.559   3.854   2.488 -0.6028  0.1709 -0.3707
 6897TIP3   OH242181   1.807   4.271   4.651 -0.1767 -0.4328  0.1173
 6897TIP3    H142182   1.900   4.251   4.638  0.4539  1.6697  1.0599
 6897TIP3    H242183   1.787   4.337   4.584 -0.8715 -0.4874  0.2599
 6898TIP3   OH242184   6.747   5.181  12.438  0.0894 -0.0744  0.3169
 6898TIP3    H142185   6.782   5.092  12.446  0.4409  0.0106 -0.2479
 6898TIP3    H242186   6.653   5.171  12.447  0.1409 -0.4793  0.4319
 6899TIP3   OH242187   2.763   4.840   0.840 -0.0218 -0.3358 -0.6589
 6899TIP3    H142188   2.816   4.846   0.760 -0.0287  1.3635 -0.5780
 6899TIP3    H242189   2.790   4.758   0.881  2.9015  0.6671 -0.3831
 6900TIP3   OH242190   0.960   1.881   0.704 -0.3841  0.5305 -0.1463
 6900TIP3    H142191   0.949   1.916   0.793 -2.7077  1.7179 -0.8270
 6900TIP3    H242192   0.946   1.787   0.714  2.6271  0.0775  1.1708
 6901TIP3   OH242193   6.345   0.139   4.133  0.3058 -0.4077  0.4436
 6901TIP3    H142194   6.334   0.227   4.168 -0.1096 -0.5198  0.5943
 6901TIP3    H242195   6.310   0.081   4.200  1.0700 -0.7240  0.5754
 6902TIP3   OH242196   5.726   1.354  13.693 -0.3431 -0.1137 -0.3476
 6902TIP3    H142197   5.819   1.351  13.670 -0.1849  0.4677  0.1681
 6902TIP3    H242198   5.681   1.361  13.609  0.0501 -0.8578 -0.6271
 6903TIP3   OH242199   6.521   1.675   6.555 -0.2431  0.3529  0.3414
 6903TIP3    H142200   6.434   1.647   6.527  0.4328 -0.3818 -1.1120
 6903TIP3    H242201   6.517   1.771   6.554 -0.2620  0.3831 -2.4218
 6904TIP3   OH242202   3.512   2.087  17.011 -0.2465  0.0029  0.3940
 6904TIP3    H142203   3.515   2.004  16.963  1.3873 -0.9900  2.1057
 6904TIP3    H242204   3.540   2.065  17.100 -1.7582  2.0479  1.4539
 6905TIP3   OH242205   2.531   0.323  12.991 -0.2744 -0.9538 -0.2973
 6905TIP3    H142206   2.512   0.307  12.899 -0.3696 -0.5455 -0.3530
 6905TIP3    H242207   2.450   0.301  13.037 -0.5951 -0.1049 -0.4342
 6906TIP3   OH242208   1.974   5.738  10.646 -0.1070 -0.0733 -0.2658
 6906TIP3    H142209   1.951   5.752  10.738  1.0890  1.8346 -0.1990
 6906TIP3    H242210   1.925   5.660  10.621 -2.0170  0.4849  1.4265
 6907TIP3   OH242211   5.708   0.944  13.932 -0.7146 -0.2806 -0.6710
 6907TIP3    H142212   5.794   0.940  13.975 -0.5289 -2.6652 -1.1380
 6907TIP3    H242213   5.647   0.964  14.002  0.0663  0.1689 -0.1014
 6908TIP3   OH242214   3.038   4.046  13.106 -0.0796 -0.2361 -0.2056
 6908TIP3    H142215   3.107   3.979  13.099 -0.8952 -1.4178  2.1398
 6908TIP3    H242216   3.062   4.111  13.039  4.2326  0.2699  1.4743
 6909TIP3   OH242217   6.059   2.564  14.495  0.7138  0.3704 -0.2027
 6909TIP3    H142218   6.063   2.498  14.425  0.1512  0.6848 -0.5348
 6909TIP3    H242219   6.095   2.643  14.455 -0.1972  0.7255 -0.3515
 6910TIP3   OH242220   0.230   0.058  15.526 -0.5400 -0.1543 -0.0551
 6910TIP3    H142221   0.170   0.036  15.455  1.6324 -0.7894 -1.8044
 6910TIP3    H242222   0.305  -0.001  15.515 -0.1106 -0.3083  2.8206
 6911TIP3   OH242223   2.790   2.941  16.030 -0.1103 -0.3767  0.1420
 6911TIP3    H142224   2.842   2.862  16.040  1.4617  0.4233 -1.2163
 6911TIP3    H242225   2.808   2.970  15.941  0.1665  2.0787  0.9360
 6912TIP3   OH242226   3.050   4.721  13.072 -0.0450 -0.2615 -0.0558
 6912TIP3    H142227   3.049   4.750  13.163  0.1921 -0.6766  0.0844
 6912TIP3    H242228   3.023   4.629  13.075 -0.3421 -0.1916 -0.4394
 6913TIP3   OH242229   2.666   3.816   4.291 -0.1344  0.0887  0.4047
 6913TIP3    H142230   2.588   3.856   4.251 -0.9565 -1.7568  0.0610
 6913TIP3    H242231   2.702   3.759   4.224  0.5322 -0.3748  1.1297
 6914TIP3   OH242232   2.545   6.487  10.371 -0.0751  0.9476  0.7800
 6914TIP3    H142233   2.515   6.400  10.344 -2.2153  2.0108 -0.5246
 6914TIP3    H242234   2.614   6.469  10.435 -1.0771 -1.6919  1.2562
 6915TIP3   OH242235   3.751   0.642   2.667  0.1023 -0.2496 -0.6634
 6915TIP3    H142236   3.676   0.586   2.686 -0.2662  0.8073  1.1670
 6915TIP3    H242237   3.826   0.583   2.666 -0.3530 -0.8677  0.6398
 6916TIP3   OH242238   4.426   4.076   2.210  0.4879 -0.3820 -0.0933
 6916TIP3    H142239   4.426   4.135   2.135 -1.0613 -0.0558  0.1247
 6916TIP3    H242240   4.354   4.015   2.193  0.2030 -0.3848  1.0314
 6917TIP3   OH242241   4.536   2.564  14.572 -0.5828  0.3237 -0.3126
 6917TIP3    H142242   4.502   2.495  14.515  0.0118 -0.3495  0.1406
 6917TIP3    H242243   4.545   2.640  14.514  0.6418 -0.5335 -1.3009
 6918TIP3   OH242244   3.575   0.839   3.551  0.0236  0.2675  0.2997
 6918TIP3    H142245   3.536   0.925   3.568 -1.9401 -0.5012 -0.1357
 6918TIP3    H242246   3.544   0.784   3.623  0.1463 -0.4115 -0.1616
 6919TIP3   OH242247   0.302   5.537  12.073 -0.1573  0.0919  0.1411
 6919TIP3    H142248   0.276   5.588  12.150 -2.1210 -1.5625  0.6741
 6919TIP3    H242249   0.225   5.540  12.016 -0.3669 -2.1926  0.1999
 6920TIP3   OH242250   2.947   5.834   3.181  0.3144 -0.5873  0.3475
 6920TIP3    H142251   2.884   5.898   3.148  1.9074  1.4526  1.0834
 6920TIP3    H242252   2.974   5.785   3.103 -0.1747  0.3374 -0.4240
 6921TIP3   OH242253   5.227   4.090   0.258 -0.3330  0.7035 -0.0550
 6921TIP3    H142254   5.136   4.119   0.253 -0.3066  1.1293  1.4195
 6921TIP3    H242255   5.223   3.996   0.242 -1.5331  0.0590  3.2376
 6922TIP3   OH242256   5.929   4.929  12.861  0.0707  0.1832 -0.0520
 6922TIP3    H142257   6.010   4.979  12.852 -0.2927  0.7044 -0.5490
 6922TIP3    H242258   5.866   4.976  12.806 -0.4005 -0.5737 -0.1763
 6923TIP3   OH242259   3.130   4.851   5.947 -0.3282  0.2615  0.2674
 6923TIP3    H142260   3.126   4.831   6.041 -0.8932  1.3483  0.4819
 6923TIP3    H242261   3.151   4.944   5.943 -0.4070  0.2459 -0.6882
 6924TIP3   OH242262   0.684   2.905  16.856 -0.4434  0.2955  0.0701
 6924TIP3    H142263   0.770   2.920  16.896 -0.8965 -0.8841  1.6041
 6924TIP3    H242264   0.703   2.859  16.775  0.3921  0.2156  0.2960
 6925TIP3   OH242265   1.864   3.401  13.825  0.6109  0.0431  0.5693
 6925TIP3    H142266   1.782   3.413  13.776  1.2388 -0.0730 -0.5473
 6925TIP3    H242267   1.884   3.489  13.858  0.1896  0.1326  0.5993
 6926TIP3   OH242268   0.007   3.130   2.270  0.2320 -0.3337  0.1073
 6926TIP3    H142269   0.005   3.225   2.282  2.3800 -0.1503 -0.4870
 6926TIP3    H242270   0.100   3.109   2.263 -0.2536 -2.3198 -1.1943
 6927TIP3   OH242271   5.027   3.026  14.522  0.0168 -0.1864 -0.0347
 6927TIP3    H142272   4.973   3.041  14.445 -1.2794 -0.2807  0.8204
 6927TIP3    H242273   5.070   2.942  14.505  1.7042  0.9381 -1.7056
 6928TIP3   OH242274   6.750   6.731  11.400  0.2888 -0.3554  0.0211
 6928TIP3    H142275   6.799   6.657  11.364 -0.2364 -0.1398 -1.1759
 6928TIP3    H242276   6.744   6.712  11.494  1.8454 -0.8438  0.0549
 6929TIP3   OH242277   3.847   6.298   1.311  0.1259  0.0680 -0.3640
 6929TIP3    H142278   3.804   6.238   1.250 -1.2991  0.2546  0.4076
 6929TIP3    H242279   3.836   6.258   1.397  0.5830  0.6429 -0.0271
 6930TIP3   OH242280   4.300   2.387   3.004 -0.1240 -0.3085  0.2501
 6930TIP3    H142281   4.213   2.380   3.043 -1.8176  0.8502 -2.9966
 6930TIP3    H242282   4.333   2.472   3.035  0.9166 -1.6320  3.1713
 6931TIP3   OH242283   0.733   1.439   1.653 -0.2475  0.6992  0.1104
 6931TIP3    H142284   0.642   1.411   1.654 -0.6507  1.9719  1.2310
 6931TIP3    H242285   0.730   1.532   1.634  0.9424  0.4853 -1.4259
 6932TIP3   OH242286   4.598   6.131  15.778 -0.0743  0.1222 -0.2568
 6932TIP3    H142287   4.593   6.035  15.780  0.5402  0.0932  0.2763
 6932TIP3    H242288   4.668   6.150  15.716 -1.1741  0.2830 -1.4910
 6933TIP3   OH242289   5.992   1.975  12.513 -0.5631 -0.3737 -0.0402
 6933TIP3    H142290   5.920   2.012  12.564 -1.6529 -2.8791  0.3791
 6933TIP3    H242291   5.971   1.995  12.422 -1.2568 -0.2320  0.1523
 6934TIP3   OH242292   4.923   2.478   1.355 -0.0992  0.4130  0.1451
 6934TIP3    H142293   4.916   2.472   1.260 -1.1397  1.0740  0.1662
 6934TIP3    H242294   5.017   2.489   1.372  0.2517 -0.9914 -0.7114
 6935TIP3   OH242295   6.041   4.783  15.562 -0.1865  0.2071  0.5438
 6935TIP3    H142296   6.104   4.713  15.545  1.0445  1.3526  0.2976
 6935TIP3    H242297   6.000   4.798  15.477 -0.2194  0.0193  0.5249
 6936TIP3   OH242298   3.949   1.627  15.637 -0.1762 -0.1028  0.0371
 6936TIP3    H142299   3.962   1.539  15.601  0.5397 -0.1923  0.5000
 6936TIP3    H242300   3.921   1.612  15.727  0.6940  0.1481  0.3521
 6937TIP3   OH242301   2.363   2.067   3.181 -0.2698  0.0317 -0.5003
 6937TIP3    H142302   2.393   2.129   3.115  0.2200  0.9586  0.5540
 6937TIP3    H242303   2.408   2.093   3.261 -1.5471 -0.4770  0.4284
 6938TIP3   OH242304   3.845   6.472  13.176 -0.0542 -0.6287 -0.4169
 6938TIP3    H142305   3.772   6.412  13.160 -1.3767  0.5090  1.0664
 6938TIP3    H242306   3.803   6.553  13.204  1.7424  0.6531 -1.3041
 6939TIP3   OH242307   4.347   1.731   2.450 -0.7700  0.3090  0.0061
 6939TIP3    H142308   4.347   1.635   2.454 -0.0135  0.3095  0.2982
 6939TIP3    H242309   4.411   1.757   2.516 -0.7729  1.0066 -0.2597
 6940TIP3   OH242310   6.072   2.744  12.746  0.0359 -0.0417 -0.1885
 6940TIP3    H142311   6.131   2.813  12.718  0.5560  0.0205  1.0133
 6940TIP3    H242312   6.103   2.719  12.833 -0.3994 -1.4957 -0.4261
 6941TIP3   OH242313   5.003   6.092   5.059  0.1116 -0.4895 -0.1261
 6941TIP3    H142314   5.073   6.156   5.062 -0.2929 -0.0458  2.7096
 6941TIP3    H242315   5.045   6.010   5.033  0.6597  0.7304 -3.6799
 6942TIP3   OH242316   1.423   3.323   2.092  0.1662 -0.1268  0.2530
 6942TIP3    H142317   1.376   3.358   2.168 -0.6857 -0.1222 -0.2649
 6942TIP3    H242318   1.388   3.235   2.080  0.9567 -0.4726  0.4072
 6943TIP3   OH242319   2.484   6.501   4.259  0.4385 -0.8231 -0.3246
 6943TIP3    H142320   2.448   6.508   4.347 -1.7572 -0.8355 -1.1625
 6943TIP3    H242321   2.579   6.513   4.271  0.0422  0.9494  1.8157
 6944TIP3   OH242322   6.146   6.620   0.608 -0.2826  0.3179 -0.3544
 6944TIP3    H142323   6.061   6.651   0.575 -0.2044 -0.1906 -1.0605
 6944TIP3    H242324   6.150   6.529   0.580  0.6531  0.4403 -0.6392
 6945TIP3   OH242325   1.662   4.636  16.502  0.4386  0.0049  0.3446
 6945TIP3    H142326   1.724   4.571  16.470 -1.4612 -1.7925  0.0753
 6945TIP3    H242327   1.613   4.663  16.425 -1.2785 -1.1139  0.9764
 6946TIP3   OH242328   0.901   2.050   5.115  0.3068 -0.3247  0.2243
 6946TIP3    H142329   0.939   2.080   5.197 -0.8812  0.7665  0.4073
 6946TIP3    H242330   0.976   2.021   5.063  1.2601  0.6398  1.0243
 6947TIP3   OH242331   0.242   3.264  12.968  0.1228 -0.1158 -0.5439
 6947TIP3    H142332   0.307   3.199  12.942  1.0089  0.3801  0.3710
 6947TIP3    H242333   0.273   3.297  13.052 -1.9522 -0.7323  0.5422
 6948TIP3   OH242334   1.045   4.667   5.754 -0.4813 -0.2490 -0.3932
 6948TIP3    H142335   0.998   4.652   5.836 -1.4214 -1.9640 -1.1757
 6948TIP3    H242336   1.067   4.760   5.755  1.9750 -0.6896  3.0278
 6949TIP3   OH242337   0.153   1.634  12.138  0.3110 -0.2651  0.2692
 6949TIP3    H142338   0.244   1.622  12.163  0.8495 -0.2276 -1.5981
 6949TIP3    H242339   0.118   1.693  12.206  1.1832 -1.5851  1.9436
 6950TIP3   OH242340   0.471   1.046   2.760  0.0416  0.1367 -0.1080
 6950TIP3    H142341   0.509   0.982   2.699 -0.3393 -1.9039  1.6681
 6950TIP3    H242342   0.390   1.074   2.718  0.3009 -0.4477 -1.0263
 6951TIP3   OH242343   6.268   0.203   0.755 -0.1290 -0.0524 -0.4410
 6951TIP3    H142344   6.335   0.243   0.810 -0.5579  0.7017 -0.4553
 6951TIP3    H242345   6.304   0.117   0.731  0.7888  0.3129 -0.3888
 6952TIP3   OH242346   4.400   5.847  15.392  0.1315  0.0804 -0.1734
 6952TIP3    H142347   4.335   5.795  15.344 -1.8568  0.8438  1.5534
 6952TIP3    H242348   4.437   5.786  15.456  1.4789 -0.4476 -1.3747
 6953TIP3   OH242349   5.255   4.666  11.154  0.4518 -0.4118  0.2598
 6953TIP3    H142350   5.190   4.735  11.168  1.9122  0.8418  1.1499
 6953TIP3    H242351   5.266   4.663  11.059  0.2764  0.5136  0.1931
 6954TIP3   OH242352   4.022   1.641  12.804  0.1482  0.2007  0.1037
 6954TIP3    H142353   4.117   1.637  12.804  0.1069 -1.1881 -0.4079
 6954TIP3    H242354   3.993   1.551  12.820 -1.0881  0.6595  0.6630
 6955TIP3   OH242355   0.622   6.427  14.504  0.0422  0.4538 -0.3339
 6955TIP3    H142356   0.644   6.334  14.509 -1.0822  0.2042  0.2621
 6955TIP3    H242357   0.639   6.451  14.413 -2.7336 -1.1716 -1.3841
 6956TIP3   OH242358   5.437   6.182  11.655 -0.1505  0.6585 -0.0674
 6956TIP3    H142359   5.399   6.270  11.653  1.4181  1.4790  1.8961
 6956TIP3    H242360   5.365   6.124  11.632 -1.0704  2.4641 -2.0915
 6957TIP3   OH242361   1.691   4.053  14.854  0.2047  0.2269 -0.0194
 6957TIP3    H142362   1.682   3.986  14.786 -0.0414  0.7630 -0.5166
 6957TIP3    H242363   1.775   4.095  14.835  0.6641 -0.3431  0.6661
 6958TIP3   OH242364   5.846   3.427  10.872 -0.4545 -0.4485 -0.2441
 6958TIP3    H142365   5.933   3.444  10.837  0.1172 -1.0866  0.8152
 6958TIP3    H242366   5.787   3.478  10.817  0.7002  0.9522 -0.2257
 6959TIP3   OH242367   0.306   3.878  11.176  0.1919 -0.5292 -0.6077
 6959TIP3    H142368   0.362   3.886  11.098  0.8719  0.0793 -0.0736
 6959TIP3    H242369   0.366   3.859  11.247  0.1363  2.6814  0.4570
 6960TIP3   OH242370   6.486   0.743   2.929 -0.3460  0.2963 -0.3028
 6960TIP3    H142371   6.574   0.776   2.948 -0.2128 -0.8790  1.3581
 6960TIP3    H242372   6.428   0.796   2.985 -0.6621  0.7785 -1.0716
 6961TIP3   OH242373   0.775   3.718   3.899 -0.0826  0.4972  0.3342
 6961TIP3    H142374   0.691   3.687   3.865  1.0496 -0.4220 -1.8337
 6961TIP3    H242375   0.761   3.727   3.993 -1.9291 -1.8910  0.3906
 6962TIP3   OH242376   5.599   4.203   1.586  0.2155  0.0666  0.8346
 6962TIP3    H142377   5.515   4.156   1.584  0.9646 -1.3506  1.2819
 6962TIP3    H242378   5.655   4.149   1.642  1.6733  0.5780 -0.0874
 6963TIP3   OH242379   1.777   6.488   5.879 -0.2040  0.2455 -0.0332
 6963TIP3    H142380   1.749   6.476   5.970  0.4279 -0.0329  0.1315
 6963TIP3    H242381   1.763   6.581   5.862 -0.2732  0.3097  0.3663
 6964TIP3   OH242382   2.040   2.758   2.331  0.2138 -0.1291  0.0668
 6964TIP3    H142383   1.973   2.826   2.342  1.9100  2.1007 -2.0767
 6964TIP3    H242384   2.099   2.770   2.406  0.0713  0.2725  0.1173
 6965TIP3   OH242385   2.305   5.123   5.975 -0.5345  0.2093  0.4667
 6965TIP3    H142386   2.382   5.159   6.019  1.7492 -1.2056 -2.1176
 6965TIP3    H242387   2.233   5.140   6.036  1.9096  0.8278  3.4025
 6966TIP3   OH242388   3.752   4.895  14.746  0.0949  1.1309  0.5976
 6966TIP3    H142389   3.808   4.847  14.806 -0.0110 -0.9932 -0.8959
 6966TIP3    H242390   3.807   4.908  14.668 -1.1102 -0.1661 -0.5338
 6967TIP3   OH242391   0.670   1.387   0.325  0.0769 -0.3781  0.3703
 6967TIP3    H142392   0.748   1.367   0.274 -0.1248  1.0041 -0.5318
 6967TIP3    H242393   0.691   1.358   0.414  2.2601  1.4019  0.5175
 6968TIP3   OH242394   4.007   2.133   2.257 -0.3338  0.1512  0.0501
 6968TIP3    H142395   4.031   2.177   2.339 -0.7970 -0.0766  0.3123
 6968TIP3    H242396   3.914   2.153   2.246 -0.2738  0.1784 -0.4222
 6969TIP3   OH242397   0.171   2.554  16.421 -0.6782  0.0548 -0.5936
 6969TIP3    H142398   0.172   2.601  16.505  0.4868  0.1928 -0.6666
 6969TIP3    H242399   0.264   2.547  16.397 -0.8395 -2.0054 -0.7523
 6970TIP3   OH242400   3.952   2.849   1.965  0.3395  0.0136  0.4264
 6970TIP3    H142401   3.971   2.908   1.892  1.1323  2.0374  2.1458
 6970TIP3    H242402   3.862   2.820   1.951  0.1866  1.0501 -0.8774
 6971TIP3   OH242403   1.986   3.887   0.615 -0.1680 -0.2528 -0.3868
 6971TIP3    H142404   2.063   3.837   0.587 -1.8798 -1.8142 -2.6537
 6971TIP3    H242405   1.957   3.842   0.695  1.4566  0.6495  0.7785
 6972TIP3   OH242406   2.375   5.314  13.981  0.1155  0.0028 -0.3239
 6972TIP3    H142407   2.374   5.349  14.070 -0.6590 -2.9436  0.9432
 6972TIP3    H242408   2.297   5.258  13.976  0.2803 -0.1267 -2.7850
 6973TIP3   OH242409   6.516   4.578  17.013 -0.1365 -0.4971  0.1708
 6973TIP3    H142410   6.596   4.546  17.055 -0.3754  0.7253  1.6590
 6973TIP3    H242411   6.464   4.500  16.996  0.3265 -1.1232  1.4811
 6974TIP3   OH242412   2.501   5.423   1.320  0.0886 -0.2630  0.0809
 6974TIP3    H142413   2.508   5.327   1.314 -0.8828 -0.2439 -3.1548
 6974TIP3    H242414   2.590   5.454   1.306  0.3861 -0.6512  1.0140
 6975TIP3   OH242415   1.441   4.981  16.042 -0.3938 -0.2130  0.3272
 6975TIP3    H142416   1.479   4.897  16.018 -0.7993 -0.2448 -0.2175
 6975TIP3    H242417   1.393   4.964  16.123  0.1810 -0.3241  0.6501
 6976TIP3   OH242418   1.874   0.989  11.182  0.1820  0.7077 -1.3951
 6976TIP3    H142419   1.955   0.955  11.145  1.7166  0.3299  1.9554
 6976TIP3    H242420   1.847   0.924  11.246 -0.0621  2.9476  0.9677
 6977TIP3   OH242421   3.626   4.955   5.187 -0.0344  0.6274  0.2270
 6977TIP3    H142422   3.591   4.962   5.276 -0.2131  1.8068  0.0747
 6977TIP3    H242423   3.709   5.004   5.190 -0.0039  0.6059 -0.2372
 6978TIP3   OH242424   4.687   2.545  11.946 -0.4468  0.8860  0.1818
 6978TIP3    H142425   4.763   2.494  11.976 -1.9918 -0.7313  1.5274
 6978TIP3    H242426   4.648   2.581  12.025 -1.9291  0.4405 -0.3101
 6979TIP3   OH242427   5.144   6.515   1.740  0.4710  0.0962 -0.2095
 6979TIP3    H142428   5.125   6.426   1.769 -2.9854  1.1495  1.2506
 6979TIP3    H242429   5.212   6.546   1.800  0.5091 -1.0044  0.3357
 6980TIP3   OH242430   3.771   4.216  16.750 -0.8081 -0.4980  0.2712
 6980TIP3    H142431   3.699   4.154  16.740 -1.3414  0.0936  0.3710
 6980TIP3    H242432   3.756   4.257  16.835 -0.9981  0.4383 -0.1991
 6981TIP3   OH242433   2.482   2.286   1.300  0.7878  0.2194 -0.1845
 6981TIP3    H142434   2.553   2.346   1.280  0.1727  0.6595 -1.1070
 6981TIP3    H242435   2.503   2.206   1.252 -0.4667  1.1267 -2.3924
 6982TIP3   OH242436   5.451   5.708   4.111 -0.1969 -0.4022 -0.4561
 6982TIP3    H142437   5.363   5.688   4.143 -1.9814  0.0500 -4.5383
 6982TIP3    H242438   5.488   5.765   4.179 -3.7534  0.8836  0.6472
 6983TIP3   OH242439   3.542   3.062   1.547  0.6569  0.0431 -0.3938
 6983TIP3    H142440   3.565   2.970   1.534 -0.3998 -0.5354  1.3579
 6983TIP3    H242441   3.595   3.090   1.621  0.1216  0.4784 -0.1656
 6984TIP3   OH242442   1.290   6.789  14.642  0.0654 -0.2407 -0.2981
 6984TIP3    H142443   1.245   6.853  14.697 -0.2149 -1.7732  1.3549
 6984TIP3    H242444   1.281   6.823  14.553 -1.8332  0.9684  0.3000
 6985TIP3   OH242445   4.466   5.912   5.988 -0.2175 -0.1174 -0.3924
 6985TIP3    H142446   4.420   5.876   6.064 -3.0018  1.7380 -1.0054
 6985TIP3    H242447   4.465   6.007   6.003  0.0850  0.2111 -2.2218
 6986TIP3   OH242448   3.599   0.375   2.526 -0.4120  0.0365 -0.2906
 6986TIP3    H142449   3.634   0.406   2.609 -1.7335 -0.1659  0.3709
 6986TIP3    H242450   3.585   0.281   2.539  1.0408 -0.3572 -1.3652
 6987TIP3   OH242451   3.354   1.009   1.425 -0.7128  0.2996 -0.3746
 6987TIP3    H142452   3.399   0.962   1.495 -1.2859 -1.4070 -1.1019
 6987TIP3    H242453   3.404   1.090   1.414  0.7546 -0.4720  0.4125
 6988TIP3   OH242454   5.399   3.653   5.295 -0.3811  0.6416 -0.0111
 6988TIP3    H142455   5.464   3.611   5.239 -0.5936 -0.0060  0.2225
 6988TIP3    H242456   5.422   3.746   5.293  0.0197  0.5350 -0.6289
 6989TIP3   OH242457   3.351   5.323   6.082  0.0944 -0.1077 -0.1585
 6989TIP3    H142458   3.325   5.413   6.098  1.6903  0.3403  0.0768
 6989TIP3    H242459   3.430   5.311   6.134  0.1084 -1.5344 -0.4677
 6990TIP3   OH242460   3.090   4.524  10.997  0.5234 -0.5987  0.1223
 6990TIP3    H142461   3.039   4.464  10.942  0.9885  0.2294 -1.2368
 6990TIP3    H242462   3.149   4.466  11.045 -0.6974 -1.4446  0.6880
 6991TIP3   OH242463   4.949   1.942   4.220  0.5772 -0.2162  0.0946
 6991TIP3    H142464   5.027   1.963   4.169 -1.4282  1.0278 -2.7720
 6991TIP3    H242465   4.940   2.014   4.282  0.3683  1.0446 -1.3404
 6992TIP3   OH242466   6.704   2.418   5.604  0.0269  0.3090 -0.4915
 6992TIP3    H142467   6.632   2.367   5.569  1.5858 -1.5816 -1.1040
 6992TIP3    H242468   6.688   2.507   5.574 -2.6423  0.2038  0.4114
 6993TIP3   OH242469   1.722   4.658   5.791 -0.5089  0.8056 -0.0587
 6993TIP3    H142470   1.661   4.585   5.790 -1.0935  1.2572  0.8361
 6993TIP3    H242471   1.741   4.672   5.884  0.7517  0.8468 -0.3111
 6994TIP3   OH242472   4.596   4.332  12.550 -0.5755  0.9109 -0.8362
 6994TIP3    H142473   4.530   4.340  12.481 -0.2701  0.5036 -1.1813
 6994TIP3    H242474   4.676   4.310  12.503  0.3631  3.5771 -0.6799
 6995TIP3   OH242475   1.618   0.356  13.918 -0.0646  0.3750 -0.4230
 6995TIP3    H142476   1.657   0.300  13.850 -2.8026 -1.0306 -0.9840
 6995TIP3    H242477   1.614   0.443  13.878 -1.1771 -0.3330 -1.9529
 6996TIP3   OH242478   1.751   0.304  13.696 -0.4819  0.0214  0.0178
 6996TIP3    H142479   1.708   0.307  13.611 -0.6659  0.7216  0.1299
 6996TIP3    H242480   1.834   0.351  13.683 -0.3826 -0.1127  0.1535
 6997TIP3   OH242481   6.753   0.804   3.251 -0.0161 -0.3423 -0.1772
 6997TIP3    H142482   6.755   0.808   3.156  0.7242  1.1536 -0.1203
 6997TIP3    H242483   6.841   0.775   3.276 -0.5024 -1.7347  0.0523
 6998TIP3   OH242484   4.733   4.419  13.265 -0.0091 -0.1238 -0.2668
 6998TIP3    H142485   4.642   4.428  13.292  0.2349 -1.5382  1.1805
 6998TIP3    H242486   4.783   4.469  13.331  0.2094  2.1744 -2.0551
 6999TIP3   OH242487   2.358   0.555  13.307 -0.5796 -0.1234 -0.0521
 6999TIP3    H142488   2.331   0.594  13.390  1.2564 -0.5871  0.8215
 6999TIP3    H242489   2.292   0.585  13.244 -1.8912  0.4367  1.5026
 7000TIP3   OH242490   2.591   5.053   4.519 -0.3212 -0.1838  0.3514
 7000TIP3    H142491   2.536   5.061   4.597 -0.6106 -0.6436  0.2012
 7000TIP3    H242492   2.546   4.988   4.465 -0.1595  0.1883 -0.2324
 7001TIP3   OH242493   3.284   0.648  14.966  0.6614 -0.7411  0.2886
 7001TIP3    H142494   3.347   0.614  14.903  1.0123 -0.2092  0.3523
 7001TIP3    H242495   3.216   0.580  14.970  1.2364 -1.3355  0.2438
 7002TIP3   OH242496   3.700   0.521   1.512 -0.5969 -0.6073  0.3202
 7002TIP3    H142497   3.724   0.511   1.604  1.2969 -2.1796 -0.2828
 7002TIP3    H242498   3.688   0.431   1.480 -2.2976 -0.0602 -0.7561
 7003TIP3   OH242499   1.675   1.135  15.111  0.0642  0.1037  0.0191
 7003TIP3    H142500   1.659   1.084  15.032  0.3397 -0.8736  0.5685
 7003TIP3    H242501   1.765   1.165  15.103  1.6646 -3.5164  1.7583
 7004TIP3   OH242502   3.133   6.114  12.796 -0.1374 -0.0506  0.5170
 7004TIP3    H142503   3.195   6.060  12.747  0.1519  0.1357  0.6740
 7004TIP3    H242504   3.158   6.102  12.888  0.1279  0.5922  0.5299
 7005TIP3   OH242505   5.353   5.726   4.984  0.9717 -0.6435 -0.1250
 7005TIP3    H142506   5.259   5.744   4.976  1.3862  1.5901 -0.6045
 7005TIP3    H242507   5.387   5.742   4.896  1.8015 -1.5475  0.0192
 7006TIP3   OH242508   2.356   5.269   1.687 -0.4263  0.1813 -0.5835
 7006TIP3    H142509   2.373   5.330   1.759  1.0654 -1.6739  0.7698
 7006TIP3    H242510   2.283   5.215   1.719 -1.4834  0.9503 -1.6056
 7007TIP3   OH242511   0.259   5.774  14.704 -0.0853  0.1045  0.3022
 7007TIP3    H142512   0.237   5.849  14.760 -1.4538 -0.8847  1.1418
 7007TIP3    H242513   0.255   5.809  14.615 -1.1166  0.9446  0.6585
 7008TIP3   OH242514   3.667   1.468  12.231  0.5227  0.1036 -0.2899
 7008TIP3    H142515   3.607   1.535  12.197  1.5099  0.2207 -1.9224
 7008TIP3    H242516   3.753   1.509  12.227  0.8915 -0.5537  0.6858
 7009TIP3   OH242517   5.865   5.722   3.964 -0.1018 -0.0637  0.1317
 7009TIP3    H142518   5.869   5.744   4.058 -1.2747 -0.1383  0.2150
 7009TIP3    H242519   5.938   5.770   3.925  0.4533 -0.0974  1.0965
 7010TIP3   OH242520   2.134   4.483   3.809  0.3867  0.4127  0.2184
 7010TIP3    H142521   2.095   4.436   3.883  0.6034  0.5376  0.4141
 7010TIP3    H242522   2.223   4.504   3.839  0.9640 -0.7596 -0.5923
 7011TIP3   OH242523   5.342   4.194  12.297 -0.2485  0.0420 -0.2119
 7011TIP3    H142524   5.430   4.205  12.260  1.2082  0.3118  2.9744
 7011TIP3    H242525   5.325   4.100  12.290  1.2468 -0.3651  0.9112
 7012TIP3   OH242526   4.264   5.853   5.247  0.1630  0.3232  0.1378
 7012TIP3    H142527   4.228   5.942   5.237 -4.7755 -1.2375  1.0470
 7012TIP3    H242528   4.247   5.831   5.338  1.0209 -1.6358 -0.1418
 7013TIP3   OH242529   5.111   4.062  16.802 -0.0490  0.2151 -0.5959
 7013TIP3    H142530   5.089   3.971  16.781  0.8580 -0.6682  1.9542
 7013TIP3    H242531   5.026   4.105  16.815 -0.4644 -0.5576 -0.7159
 7014TIP3   OH242532   2.341   5.212   5.153  0.4495  0.4273 -0.5619
 7014TIP3    H142533   2.434   5.232   5.162  1.1384 -2.0543 -1.3781
 7014TIP3    H242534   2.324   5.144   5.218 -0.6589  0.4319 -0.8188
 7015TIP3   OH242535   6.484   5.590   4.728 -0.1843  0.6235 -0.3382
 7015TIP3    H142536   6.397   5.623   4.703  0.4724  1.8368 -1.1369
 7015TIP3    H242537   6.525   5.664   4.773  0.2064 -0.1638  0.6250
 7016TIP3   OH242538   3.543   1.714   5.088 -0.1534  0.1819  0.2522
 7016TIP3    H142539   3.565   1.656   5.160 -0.5897 -1.2720 -0.7470
 7016TIP3    H242540   3.464   1.760   5.117 -1.2315 -1.5199  0.1368
 7017TIP3   OH242541   6.686   1.672  14.752  0.0860  0.4744 -0.6997
 7017TIP3    H142542   6.733   1.588  14.754  1.9677  1.4787  0.5651
 7017TIP3    H242543   6.747   1.732  14.708  0.8611  2.2562  2.5131
 7018TIP3   OH242544   6.815   0.126   0.549 -0.3144 -0.3028  0.4147
 7018TIP3    H142545   6.798   0.221   0.548  3.4794  0.5111  0.2484
 7018TIP3    H242546   6.801   0.098   0.459 -0.3281  0.3182  0.2186
 7019TIP3   OH242547   4.179   4.772   1.976  0.1986 -0.2305 -0.4648
 7019TIP3    H142548   4.114   4.703   1.967  0.3485 -0.4370  0.0388
 7019TIP3    H242549   4.143   4.831   2.043 -0.0085  0.2735 -1.0059
 7020TIP3   OH242550   6.129   4.008   4.485 -0.1092 -0.0779 -0.0299
 7020TIP3    H142551   6.096   4.002   4.395 -0.7401  0.8042  0.1262
 7020TIP3    H242552   6.050   4.017   4.538  0.3129  0.5528  0.5000
 7021TIP3   OH242553   5.031   6.687  16.280 -0.3608 -0.1962 -0.0401
 7021TIP3    H142554   5.113   6.655  16.317 -0.0092  0.1784 -0.4756
 7021TIP3    H242555   4.998   6.615  16.228  0.7948  0.3533 -1.6113
 7022TIP3   OH242556   3.779   3.224   2.706  0.0139 -0.4048  0.3062
 7022TIP3    H142557   3.796   3.311   2.741  0.3080  0.1708 -1.2254
 7022TIP3    H242558   3.689   3.204   2.734  1.1710 -1.2917  3.9748
 7023TIP3   OH242559   4.505   1.049  14.553  0.5613  0.1784  0.1333
 7023TIP3    H142560   4.542   0.972  14.597 -0.9376 -1.1136 -0.7666
 7023TIP3    H242561   4.508   1.027  14.460 -1.0929  0.6002 -0.0592
 7024TIP3   OH242562   1.690   4.759  15.085 -0.2600  0.0164 -0.1433
 7024TIP3    H142563   1.661   4.762  14.994  3.0740  2.1992 -1.3520
 7024TIP3    H242564   1.722   4.847  15.103 -1.2941 -0.1927  3.4000
 7025TIP3   OH242565   2.700   5.017   5.236 -0.1174 -0.9232  0.3612
 7025TIP3    H142566   2.788   5.037   5.204 -0.6900  0.5383 -0.3906
 7025TIP3    H242567   2.645   5.088   5.203 -1.6890 -2.0541  0.3897
 7026TIP3   OH242568   0.091   1.278  15.746  0.8236  0.0755 -0.2777
 7026TIP3    H142569   0.021   1.214  15.754 -0.7729  1.5256 -1.5901
 7026TIP3    H242570   0.160   1.247  15.804 -0.3802 -2.1127  0.0796
 7027TIP3   OH242571   5.412   4.853   2.718 -0.2532 -0.0196 -0.6007
 7027TIP3    H142572   5.463   4.903   2.782  1.5097 -1.5362 -0.7433
 7027TIP3    H242573   5.323   4.853   2.754  0.4113  0.2836  1.1661
 7028TIP3   OH242574   6.460   6.801  11.473  0.6316  0.2215  0.0694
 7028TIP3    H142575   6.470   6.803  11.378 -0.7261 -1.9449 -0.1890
 7028TIP3    H242576   6.505   6.721  11.500 -3.0938 -1.9582  0.5291
 7029TIP3   OH242577   4.538   5.309   5.366  0.4109 -0.2122 -0.0417
 7029TIP3    H142578   4.503   5.360   5.292 -1.0621 -2.0174 -0.6530
 7029TIP3    H242579   4.509   5.357   5.444  0.8419  0.9866 -0.5857
 7030TIP3   OH242580   1.344   3.676   0.341  0.0678  0.4191  0.3844
 7030TIP3    H142581   1.428   3.688   0.385  0.9197 -0.8885 -0.8057
 7030TIP3    H242582   1.288   3.637   0.408  1.3126 -1.4632  0.4131
 7031TIP3   OH242583   2.736   6.559   0.652  0.2149  0.1451  0.4688
 7031TIP3    H142584   2.753   6.499   0.579 -1.2171 -0.4332  0.5727
 7031TIP3    H242585   2.698   6.637   0.611 -0.2809 -0.0469  0.5560
 7032TIP3   OH242586   0.689   1.658  17.135 -0.0259 -0.2009 -0.0223
 7032TIP3    H142587   0.740   1.688  17.060 -0.4667  1.0419  0.1489
 7032TIP3    H242588   0.715   1.716  17.206  1.5119 -2.3082  1.2321
 7033TIP3   OH242589   4.519   2.915  13.749 -0.0137 -0.4293  0.2674
 7033TIP3    H142590   4.529   2.915  13.654  0.5390 -0.1103  0.3189
 7033TIP3    H242591   4.572   2.841  13.779 -2.0082 -1.9499  0.1688
 7034TIP3   OH242592   1.243   2.116  10.659 -0.4441 -0.1405 -0.4301
 7034TIP3    H142593   1.290   2.062  10.597 -2.4649 -0.6342 -1.6243
 7034TIP3    H242594   1.305   2.185  10.683  0.5054 -0.1005 -2.7742
 7035TIP3   OH242595   0.423   6.629   3.911 -1.0055 -0.7815 -0.2524
 7035TIP3    H142596   0.370   6.569   3.858 -1.9366  1.1686 -1.6720
 7035TIP3    H242597   0.504   6.641   3.861 -1.0814 -0.4134 -0.2940
 7036TIP3   OH242598   0.432   1.874  14.238 -0.3993 -0.2677 -0.5202
 7036TIP3    H142599   0.424   1.779  14.235  0.2716 -0.3316 -0.3261
 7036TIP3    H242600   0.351   1.906  14.198 -1.2111 -0.8999  0.5681
 7037TIP3   OH242601   5.562   3.842   5.684 -0.5985  0.1090  0.0607
 7037TIP3    H142602   5.621   3.819   5.756 -1.4020  2.6659  1.6722
 7037TIP3    H242603   5.475   3.815   5.715 -0.9424  1.1718  0.0567
 7038TIP3   OH242604   2.655   2.227  16.527 -0.2407  0.2614 -0.3019
 7038TIP3    H142605   2.685   2.185  16.447  0.5688  0.4127 -0.0944
 7038TIP3    H242606   2.560   2.232  16.519 -0.1809  0.0723 -1.1422
 7039TIP3   OH242607   1.136   0.000  13.190  0.2426  0.1886 -0.0744
 7039TIP3    H142608   1.087   0.067  13.237 -1.0161 -0.1068 -0.9252
 7039TIP3    H242609   1.102   0.004  13.100  2.8202  1.0054 -1.1299
 7040TIP3   OH242610   1.904   4.735  14.313  0.4330 -0.3739 -0.2548
 7040TIP3    H142611   1.985   4.745  14.363  1.9719 -0.2001 -2.6823
 7040TIP3    H242612   1.841   4.789  14.361  1.8763 -0.0273  1.3683
 7041TIP3   OH242613   6.038   5.942  10.994 -0.3034 -0.1825  0.2492
 7041TIP3    H142614   6.111   5.943  10.932  0.4081 -0.2056  1.0698
 7041TIP3    H242615   5.968   5.895  10.948 -0.1576  0.7021 -0.9375
 7042TIP3   OH242616   2.507   2.868   4.828 -0.8583  0.0379  0.1935
 7042TIP3    H142617   2.545   2.795   4.877 -1.0946 -0.9325 -0.9969
 7042TIP3    H242618   2.533   2.852   4.737 -0.5772  1.6816 -0.0535
 7043TIP3   OH242619   6.438   6.715   3.519 -0.9304 -0.4117 -0.1819
 7043TIP3    H142620   6.475   6.691   3.434 -0.7011 -2.4707  0.4591
 7043TIP3    H242621   6.507   6.767   3.561 -0.9820  0.4786 -1.1555
 7044TIP3   OH242622   0.634   1.671   3.827  0.0281 -0.1606 -0.3143
 7044TIP3    H142623   0.680   1.708   3.902  0.4300 -0.6545 -0.3081
 7044TIP3    H242624   0.644   1.736   3.757 -4.0450  2.4807  1.1540
 7045TIP3   OH242625   4.440   5.976  13.103  0.8838 -0.3478 -0.7375
 7045TIP3    H142626   4.422   5.901  13.160  0.0127 -1.4724 -2.4332
 7045TIP3    H242627   4.459   5.939  13.018 -0.1730  1.3625 -1.7920
 7046TIP3   OH242628   1.660   3.601   3.147 -0.5740 -0.0738 -0.1327
 7046TIP3    H142629   1.632   3.578   3.236  0.5230  0.6413  0.4156
 7046TIP3    H242630   1.743   3.648   3.159  0.4620 -1.4328 -1.6481
 7047TIP3   OH242631   4.514   5.118  12.899 -0.2192 -0.0925  0.0712
 7047TIP3    H142632   4.608   5.131  12.916 -0.3543  0.3508  0.4993
 7047TIP3    H242633   4.512   5.059  12.824  0.4067 -0.7198  0.5250
 7048TIP3   OH242634   4.595   5.404   5.925 -0.4951 -0.3912  0.4229
 7048TIP3    H142635   4.546   5.419   6.007  1.1494  1.3762  1.1666
 7048TIP3    H242636   4.560   5.470   5.865 -0.3915 -0.4369  0.3139
 7049TIP3   OH242637   2.914   2.903   2.460  0.4144 -0.3427  0.2769
 7049TIP3    H142638   2.989   2.847   2.477 -0.0354 -0.7676  0.8806
 7049TIP3    H242639   2.840   2.858   2.500 -0.1778  0.0533 -0.3394
 7050TIP3   OH242640   1.159   3.751  15.555 -0.3784  0.3563 -0.3380
 7050TIP3    H142641   1.248   3.726  15.581 -0.2726  1.1718  0.1086
 7050TIP3    H242642   1.102   3.694  15.608 -0.1611  1.8023  1.5776
 7051TIP3   OH242643   4.536   1.458   5.685 -0.3343 -0.3306  0.0960
 7051TIP3    H142644   4.606   1.484   5.744  0.8056  0.9095 -1.7073
 7051TIP3    H242645   4.466   1.521   5.702  0.1659  0.3097 -0.1824
 7052TIP3   OH242646   6.328   3.813   3.163 -0.6870  0.7219 -0.2792
 7052TIP3    H142647   6.336   3.746   3.231 -2.3082  1.0046  0.2555
 7052TIP3    H242648   6.416   3.824   3.128  0.8432  2.3665  3.5208
 7053TIP3   OH242649   0.187   2.134  15.365  0.1551  0.0616 -0.1787
 7053TIP3    H142650   0.179   2.059  15.424  1.7264  0.4850  0.6048
 7053TIP3    H242651   0.122   2.116  15.296 -1.3898 -0.6877  1.3707
 7054TIP3   OH242652   1.179   5.689   6.368  0.4254  0.8405 -0.1380
 7054TIP3    H142653   1.136   5.743   6.301 -1.1811 -1.6596 -1.2505
 7054TIP3    H242654   1.114   5.679   6.437  0.3933 -0.2905 -0.3142
 7055TIP3   OH242655   2.127   5.678  11.328 -0.8435  0.2169 -0.0723
 7055TIP3    H142656   2.156   5.708  11.414  0.1791 -1.5420  0.2593
 7055TIP3    H242657   2.076   5.751  11.293 -1.0222  1.0985  1.8782
 7056TIP3   OH242658   6.318   0.866  13.032  0.2239  0.4872 -0.8028
 7056TIP3    H142659   6.312   0.844  12.939  0.3974  0.0068 -0.7080
 7056TIP3    H242660   6.302   0.782  13.077 -0.2874  0.8004 -0.3889
 7057TIP3   OH242661   4.239   3.100   0.627  0.5105  0.1220 -0.2795
 7057TIP3    H142662   4.325   3.059   0.617  0.5174 -0.0450  0.3923
 7057TIP3    H242663   4.232   3.117   0.721 -0.4867 -0.5365 -0.2143
 7058TIP3   OH242664   1.866   1.612  13.650  0.1799  0.1627  0.3455
 7058TIP3    H142665   1.874   1.524  13.687 -0.1173 -0.1838 -0.3878
 7058TIP3    H242666   1.887   1.600  13.557 -1.0941  0.6428 -0.0202
 7059TIP3   OH242667   1.040   2.453  14.762  0.0016  0.3764  0.7279
 7059TIP3    H142668   1.019   2.531  14.814 -0.7485  2.4211 -2.3908
 7059TIP3    H242669   1.133   2.462  14.743 -0.2260  0.8872 -0.1744
 7060TIP3   OH242670   2.477   3.677   4.089 -0.3756  0.1839 -0.4510
 7060TIP3    H142671   2.459   3.584   4.102 -0.8423  0.1926 -0.9942
 7060TIP3    H242672   2.558   3.678   4.037  1.0829  0.1411  1.6949
 7061TIP3   OH242673   6.519   2.926   4.157 -0.1824 -0.1503 -0.3683
 7061TIP3    H142674   6.574   2.977   4.217 -0.4104 -1.0768  0.6510
 7061TIP3    H242675   6.564   2.842   4.148 -1.2592 -0.8157  0.2513
 7062TIP3   OH242676   5.269   5.555  14.660  0.2157  0.2535 -0.1311
 7062TIP3    H142677   5.301   5.512  14.581  0.4541 -0.6200  0.4222
 7062TIP3    H242678   5.274   5.649  14.641 -0.1339  0.0492 -1.2985
 7063TIP3   OH242679   0.282   6.001   3.477  0.4894  0.3257  0.0548
 7063TIP3    H142680   0.345   5.929   3.475  0.8122  0.6208 -0.3137
 7063TIP3    H242681   0.208   5.970   3.424 -0.5289 -0.7934  1.9948
 7064TIP3   OH242682   3.785   0.638  13.230 -0.1665 -0.6067  0.0311
 7064TIP3    H142683   3.758   0.718  13.184 -1.3958 -1.8409 -1.4787
 7064TIP3    H242684   3.878   0.650  13.245 -0.6357  1.9323  1.5657
 7065TIP3   OH242685   1.959   6.022  14.004 -0.3819 -0.0888 -0.2739
 7065TIP3    H142686   1.897   5.975  13.948 -2.2639  0.0586  1.5684
 7065TIP3    H242687   1.951   6.114  13.977 -0.3758 -0.1752 -0.5722
 7066TIP3   OH242688   6.714   2.665  15.500 -0.3726 -0.3193  0.3476
 7066TIP3    H142689   6.665   2.593  15.461  1.8874 -1.3041 -0.8592
 7066TIP3    H242690   6.716   2.645  15.593 -2.9479  0.2520  0.6062
 7067TIP3   OH242691   4.978   6.315   1.860 -0.8423  0.2694 -0.0418
 7067TIP3    H142692   4.895   6.361   1.844 -0.0990  1.6013 -0.1743
 7067TIP3    H242693   4.963   6.226   1.826 -1.4292  1.1566 -2.2674
 7068TIP3   OH242694   2.657   4.972  11.600  0.5916  0.1878  0.1445
 7068TIP3    H142695   2.587   5.036  11.613  0.4888  0.1945 -0.4113
 7068TIP3    H242696   2.693   4.993  11.514  0.6858 -0.3795  0.0421
 7069TIP3   OH242697   4.787   4.979  13.159  0.4750  0.6685 -0.1334
 7069TIP3    H142698   4.806   4.931  13.239  0.9268 -0.1806 -0.7373
 7069TIP3    H242699   4.784   4.912  13.090  0.6562  1.4362 -0.9161
 7070TIP3   OH242700   5.876   4.812  13.728  0.7920 -0.5129  0.2733
 7070TIP3    H142701   5.891   4.862  13.809  1.6835  1.2705 -0.9193
 7070TIP3    H242702   5.868   4.879  13.660  1.1458 -1.9974 -1.3029
 7071TIP3   OH242703   4.418   5.336  11.332  0.7202  0.0149  0.3996
 7071TIP3    H142704   4.371   5.298  11.257  1.9652 -0.7948  0.0040
 7071TIP3    H242705   4.507   5.347  11.301  1.3881 -0.8362  1.9146
 7072TIP3   OH242706   0.029   5.315   0.678 -0.0904 -0.3587 -0.0493
 7072TIP3    H142707   0.006   5.226   0.650 -0.7241 -0.1434 -0.2213
 7072TIP3    H242708  -0.054   5.363   0.676  0.4590  0.5931 -1.2700
 7073TIP3   OH242709   4.380   5.514  15.041  0.0702  0.1151  0.1665
 7073TIP3    H142710   4.378   5.425  15.008  1.5301 -0.3704  1.2734
 7073TIP3    H242711   4.306   5.557  14.999 -0.5851 -1.5721 -0.4851
 7074TIP3   OH242712   2.526   4.679   5.122 -1.0405 -0.0425 -0.0416
 7074TIP3    H142713   2.541   4.665   5.029 -0.8602  3.3568 -0.6496
 7074TIP3    H242714   2.614   4.681   5.160 -1.0791 -0.5705  0.0923
 7075TIP3   OH242715   0.605   3.297   1.864  0.2217 -0.5708 -0.8147
 7075TIP3    H142716   0.573   3.340   1.785  2.6446  0.8112 -1.1386
 7075TIP3    H242717   0.612   3.205   1.841  2.0307 -0.0427 -2.6996
 7076TIP3   OH242718   2.083   1.472  14.797 -0.6032  0.3730 -0.5188
 7076TIP3    H142719   2.087   1.421  14.878  1.6037 -0.6371 -1.1784
 7076TIP3    H242720   2.014   1.431  14.745  0.5148 -1.4335 -0.6590
 7077TIP3   OH242721   4.572   6.026   4.318  0.0116  0.6814  0.6167
 7077TIP3    H142722   4.512   5.962   4.281 -0.4703  1.2998  0.3125
 7077TIP3    H242723   4.564   6.015   4.412 -2.2130  2.2016  0.6586
 7078TIP3   OH242724   4.739   4.682  13.520  0.8287  0.3653  0.1548
 7078TIP3    H142725   4.657   4.727  13.499  1.3577  0.8094 -1.0562
 7078TIP3    H242726   4.731   4.659  13.613 -2.2733 -2.9233 -0.6935
 7079TIP3   OH242727   6.754   3.688  12.842 -0.3786  0.0631  0.5783
 7079TIP3    H142728   6.693   3.615  12.847 -0.7551  0.4563  2.6987
 7079TIP3    H242729   6.838   3.652  12.871 -0.0394 -0.0249 -0.4847
 7080TIP3   OH242730   3.168   0.929  13.337 -0.2239  0.2188 -0.4981
 7080TIP3    H142731   3.169   0.929  13.433 -0.8254 -0.5266 -0.4813
 7080TIP3    H242732   3.080   0.898  13.315 -0.6946  1.9779 -1.2965
 7081TIP3   OH242733   1.369   5.514   1.840 -0.5834  0.1595 -0.4265
 7081TIP3    H142734   1.437   5.505   1.907 -1.5884  0.6821  0.7189
 7081TIP3    H242735   1.365   5.429   1.797 -0.7190 -0.5821  0.9950
 7082TIP3   OH242736   0.404   1.987  16.050 -0.3825  0.3229  0.1228
 7082TIP3    H142737   0.368   1.979  16.138  0.6271  1.0454  0.6225
 7082TIP3    H242738   0.364   2.067  16.015 -0.2258  0.4384  0.2050
 7083TIP3   OH242739   1.463   5.571   6.637  0.4147  0.4450 -0.5373
 7083TIP3    H142740   1.371   5.575   6.663  0.2364  1.4287 -1.2678
 7083TIP3    H242741   1.495   5.490   6.677 -1.3381 -1.1204 -2.0566
 7084TIP3   OH242742   3.823   5.530   0.767 -0.0459 -0.0927 -0.0657
 7084TIP3    H142743   3.770   5.473   0.712 -1.5344  0.3024  0.9175
 7084TIP3    H242744   3.786   5.521   0.855  1.6054  0.0959  0.6969
 7085TIP3   OH242745   6.584   4.527  16.604 -0.3591  0.0944  0.1970
 7085TIP3    H142746   6.547   4.574  16.529  0.6506 -0.3949 -0.6381
 7085TIP3    H242747   6.634   4.593  16.652  0.9535 -0.0395 -0.9055
 7086TIP3   OH242748   2.748   1.291   1.056 -0.3931 -0.1647  0.2342
 7086TIP3    H142749   2.769   1.224   0.991 -1.0487 -0.1301 -0.0172
 7086TIP3    H242750   2.821   1.288   1.118 -0.6147 -1.3919  0.4569
 7087TIP3   OH242751   3.089   6.046  13.748  0.4717  0.7396 -0.5899
 7087TIP3    H142752   3.147   6.118  13.725 -0.1922  2.2592  2.1350
 7087TIP3    H242753   3.147   5.980  13.787  0.7285  1.0300 -0.4787
 7088TIP3   OH242754   2.066   1.724  16.987  0.0587  0.3297 -0.0498
 7088TIP3    H142755   1.999   1.728  16.918  0.3681  0.1059 -0.3695
 7088TIP3    H242756   2.059   1.636  17.022  0.1449  0.3235 -0.0466
 7089TIP3   OH242757   3.584   5.675  10.979 -0.2045  0.1677 -0.1472
 7089TIP3    H142758   3.618   5.738  11.043  1.0350 -1.6136  1.0372
 7089TIP3    H242759   3.490   5.672  10.997 -0.2331  1.3552  0.0331
 7090TIP3   OH242760   1.170   3.165  14.398 -0.0036  0.2626 -0.5072
 7090TIP3    H142761   1.132   3.241  14.353  1.0361  0.0670 -1.8248
 7090TIP3    H242762   1.239   3.202  14.453 -0.7626  0.4306  0.3530
 7091TIP3   OH242763   4.976   3.398  10.273  0.3405  0.0476  0.4953
 7091TIP3    H142764   4.960   3.421  10.364  2.7139 -1.3492  1.3367
 7091TIP3    H242765   5.010   3.479  10.234  0.3187  0.3690  1.1298
 7092TIP3   OH242766   5.745   3.743   5.911 -0.0647  0.2435  1.0312
 7092TIP3    H142767   5.840   3.730   5.915 -0.0984 -0.2746  0.4238
 7092TIP3    H242768   5.709   3.670   5.961 -0.1095  1.4529  2.8253
 7093TIP3   OH242769   0.630   3.447  13.718  0.3285 -0.2148  0.0218
 7093TIP3    H142770   0.612   3.426  13.810 -1.0307  1.8418  0.2837
 7093TIP3    H242771   0.600   3.537  13.708  0.8492 -0.2551 -2.3574
 7094TIP3   OH242772   1.788   2.999  12.815 -0.3972 -0.9307  0.0070
 7094TIP3    H142773   1.724   2.941  12.774 -1.4125 -0.0763  0.3299
 7094TIP3    H242774   1.767   2.996  12.908 -3.0778  2.7975 -0.2367
 7095TIP3   OH242775   2.484   6.582  13.449 -0.8473  0.1118  0.2313
 7095TIP3    H142776   2.486   6.677  13.453 -0.8027  0.1782 -1.1586
 7095TIP3    H242777   2.482   6.555  13.541  0.2851  1.4234  0.6828
 7096TIP3   OH242778   5.377   0.395  10.741  0.3479 -0.0746  0.2685
 7096TIP3    H142779   5.429   0.470  10.772 -0.2208 -0.7088  2.9853
 7096TIP3    H242780   5.324   0.431  10.670  1.5727  1.5753  0.1222
 7097TIP3   OH242781   1.809   1.197  16.079  0.3029 -0.4315  0.1012
 7097TIP3    H142782   1.859   1.260  16.131 -1.3225  0.1424  1.0233
 7097TIP3    H242783   1.876   1.148  16.030  1.7939 -0.1299  1.7516
 7098TIP3   OH242784   5.088   3.528   6.233  0.1255 -0.2791  0.3724
 7098TIP3    H142785   5.148   3.577   6.177 -0.1330 -0.4009 -0.0115
 7098TIP3    H242786   5.081   3.581   6.313 -0.1836  0.3332 -0.0546
 7099TIP3   OH242787   2.404   2.800   4.466  0.3809 -0.9676 -0.0787
 7099TIP3    H142788   2.340   2.868   4.443  1.2107  0.4156  1.5123
 7099TIP3    H242789   2.443   2.775   4.382 -2.1048 -1.7853 -1.0926
 7100TIP3   OH242790   4.988   5.478   1.529 -0.0667 -0.0136  0.7374
 7100TIP3    H142791   5.062   5.466   1.589  0.2305 -0.5068  0.2862
 7100TIP3    H242792   5.001   5.565   1.492 -1.2973  1.1370  2.7728
 7101TIP3   OH242793   6.513   4.407  15.551  0.5380 -0.2298 -0.8270
 7101TIP3    H142794   6.608   4.418  15.560  0.4626  0.6085 -1.0522
 7101TIP3    H242795   6.481   4.492  15.520 -0.6453  0.4302  1.9403
 7102TIP3   OH242796   2.242   5.512  14.185  0.1087 -0.2095  0.3499
 7102TIP3    H142797   2.317   5.526  14.242  0.1504  0.9733  0.0326
 7102TIP3    H242798   2.254   5.574  14.113 -0.6159 -0.7572 -0.2640
 7103TIP3   OH242799   3.743   3.673  14.201 -0.0297  0.1011 -0.3599
 7103TIP3    H142800   3.724   3.688  14.294  1.6040  0.0734  0.0008
 7103TIP3    H242801   3.736   3.760  14.161  3.1190  0.9169  0.5634
 7104TIP3   OH242802   0.145   2.705   4.073 -0.3204  0.1565  0.0780
 7104TIP3    H142803   0.207   2.777   4.086 -0.4501  0.3108 -0.1582
 7104TIP3    H242804   0.144   2.659   4.157  0.0459  0.2067  0.1134
 7105TIP3   OH242805   6.026   4.474  13.873 -0.5946 -0.2562 -0.1620
 7105TIP3    H142806   5.939   4.485  13.836  0.0733  0.7221 -1.5245
 7105TIP3    H242807   6.065   4.561  13.870  0.7922 -0.8578 -0.5393
 7106TIP3   OH242808   2.699   2.570  10.705 -0.0644 -0.4810  0.9241
 7106TIP3    H142809   2.787   2.596  10.730  1.2284 -2.6346 -1.0304
 7106TIP3    H242810   2.659   2.650  10.672  2.5797 -0.1076 -1.8058
 7107TIP3   OH242811   6.713   3.880  15.161  0.0350  0.0273 -0.5265
 7107TIP3    H142812   6.678   3.825  15.091 -0.6904  0.5835 -0.6209
 7107TIP3    H242813   6.689   3.835  15.241  0.7651 -0.5530 -0.6310
 7108TIP3   OH242814   0.082   2.283  11.813  0.2373 -0.0216  0.5794
 7108TIP3    H142815   0.135   2.216  11.768  0.6706  1.3854 -1.1335
 7108TIP3    H242816   0.030   2.234  11.876  3.0118 -1.5904  1.8622
 7109TIP3   OH242817   0.957   0.216   0.839  0.1582 -0.0722  0.2937
 7109TIP3    H142818   0.941   0.153   0.909  2.3574 -1.2024 -0.1297
 7109TIP3    H242819   0.951   0.165   0.759  1.1035  0.4196 -0.1088
 7110TIP3   OH242820   4.237   1.157   4.618 -0.0220  1.0809 -0.2964
 7110TIP3    H142821   4.285   1.075   4.616  1.3098  1.8275 -2.4661
 7110TIP3    H242822   4.303   1.224   4.600 -1.0642  2.6622  1.4150
 7111TIP3   OH242823   3.780   5.706  15.245  0.3158 -0.8119  0.2955
 7111TIP3    H142824   3.833   5.721  15.324 -0.1320 -1.2884  0.6914
 7111TIP3    H242825   3.755   5.614  15.250 -1.7149 -0.2640  0.8258
 7112TIP3   OH242826   2.463   3.480  12.669 -0.0591  0.7549 -0.0006
 7112TIP3    H142827   2.518   3.556  12.686 -0.7382  1.1336  0.5527
 7112TIP3    H242828   2.524   3.411  12.644  0.5337  1.5850 -0.8978
 7113TIP3   OH242829   1.722   1.769   2.974 -0.3031 -0.4804  0.3326
 7113TIP3    H142830   1.816   1.775   2.988 -0.1700 -1.7937  0.1117
 7113TIP3    H242831   1.683   1.784   3.060  0.0128  1.5791  0.1593
 7114TIP3   OH242832   2.179   4.211   2.301 -0.2741  0.0910  0.5033
 7114TIP3    H142833   2.167   4.138   2.240 -1.1655  2.1421 -1.9460
 7114TIP3    H242834   2.103   4.206   2.360  0.1102 -1.3941  0.9047
 7115TIP3   OH242835   4.870   2.445   5.272 -0.9128 -0.0265 -0.1793
 7115TIP3    H142836   4.894   2.490   5.191 -0.8691  0.3510  0.0402
 7115TIP3    H242837   4.787   2.401   5.252 -0.1115 -1.2657 -0.9164
 7116TIP3   OH242838   1.863   4.034  11.689  0.2752  0.7040  0.4906
 7116TIP3    H142839   1.799   3.963  11.692 -0.0017  0.8749 -0.7740
 7116TIP3    H242840   1.813   4.113  11.708  0.5507  0.6021  1.7215
 7117TIP3   OH242841   4.445   4.150  15.041  0.1358 -0.0995  0.2434
 7117TIP3    H142842   4.357   4.168  15.073 -0.9347  0.6074 -2.7263
 7117TIP3    H242843   4.484   4.236  15.026  0.8131 -0.4005  0.2019
 7118TIP3   OH242844   0.988   0.802  12.642 -0.2980  0.3283  0.3769
 7118TIP3    H142845   1.046   0.729  12.663 -1.2260 -0.0285  1.7617
 7118TIP3    H242846   0.955   0.782  12.555 -0.2419 -0.7003  0.5831
 7119TIP3   OH242847   5.482   2.732   2.876 -0.4410  0.8021  0.2183
 7119TIP3    H142848   5.576   2.727   2.895 -0.2983  0.2112 -0.6336
 7119TIP3    H242849   5.466   2.663   2.812 -1.2418  1.6641 -0.5299
 7120TIP3   OH242850   3.423   0.587  12.306 -0.1097  0.6855 -0.0899
 7120TIP3    H142851   3.494   0.650  12.298 -0.2759  0.6606 -2.8943
 7120TIP3    H242852   3.346   0.640  12.329  0.1886  1.2007 -0.2652
 7121TIP3   OH242853   6.291   6.624  11.294  0.0767 -0.7659 -0.0255
 7121TIP3    H142854   6.328   6.708  11.266 -0.8330  1.1042  3.6184
 7121TIP3    H242855   6.334   6.559  11.240  2.5266  1.8708 -1.5316
 7122TIP3   OH242856   0.990   5.041   3.009  0.0193  0.1126 -0.0719
 7122TIP3    H142857   1.040   5.083   3.080  1.5017  0.3076 -1.1810
 7122TIP3    H242858   0.999   5.101   2.935 -0.2756 -0.7716 -0.8466
 7123TIP3   OH242859   3.328   6.491  14.893 -0.3435  0.2202 -0.2530
 7123TIP3    H142860   3.290   6.408  14.923  0.7634 -0.3321 -0.3486
 7123TIP3    H242861   3.317   6.488  14.797 -0.5795  0.3316 -0.2318
 7124TIP3   OH242862   6.816   3.829   2.252 -0.5414 -0.8505 -0.1643
 7124TIP3    H142863   6.849   3.908   2.209  0.8066 -1.8324 -0.9946
 7124TIP3    H242864   6.736   3.858   2.296 -0.9874  0.6254 -1.8033
 7125TIP3   OH242865   6.631   0.103  11.255  0.3591 -0.2867 -0.0124
 7125TIP3    H142866   6.678   0.036  11.304 -0.2418  0.0839  1.1061
 7125TIP3    H242867   6.623   0.176  11.316 -1.4301 -0.2419 -0.2465
 7126TIP3   OH242868   3.191   2.340   5.702  0.1200 -0.4271 -0.2158
 7126TIP3    H142869   3.258   2.405   5.682 -1.0584  1.1049  0.5593
 7126TIP3    H242870   3.213   2.310   5.791 -0.7579  0.8512  0.4651
 7127TIP3   OH242871   2.265   3.574   1.605 -0.0904  0.0686  0.2161
 7127TIP3    H142872   2.243   3.616   1.689  0.2438 -1.2127  0.9736
 7127TIP3    H242873   2.263   3.646   1.541  1.2869  1.4070  1.5886
 7128TIP3   OH242874   5.653   0.484  14.966 -0.5277 -0.2251 -0.0617
 7128TIP3    H142875   5.711   0.560  14.956 -0.2601 -0.3536  0.4779
 7128TIP3    H242876   5.698   0.429  15.030 -0.7243 -0.8341 -0.4504
 7129TIP3   OH242877   1.313   1.144   0.125 -0.2299  0.6789 -0.0526
 7129TIP3    H142878   1.326   1.146   0.220 -2.0054  0.9241  0.2256
 7129TIP3    H242879   1.274   1.058   0.108 -0.5278  0.8938 -0.4653
 7130TIP3   OH242880   5.948   6.766  13.093 -0.2555 -0.8749  0.2650
 7130TIP3    H142881   5.948   6.837  13.029  2.7553 -0.9389  0.0676
 7130TIP3    H242882   5.911   6.691  13.046  2.0212 -0.9590 -1.5147
 7131TIP3   OH242883   6.074   4.362  14.732  0.6430 -0.3604 -0.2987
 7131TIP3    H142884   6.006   4.428  14.714  0.0283 -1.4240 -2.1261
 7131TIP3    H242885   6.027   4.291  14.776  0.7886 -0.6490 -0.6100
 7132TIP3   OH242886   1.030   5.350  13.663 -0.0910 -0.5075  0.3591
 7132TIP3    H142887   1.066   5.438  13.656 -0.0362 -0.6708 -2.4503
 7132TIP3    H242888   1.090   5.304  13.721  2.9851 -0.1202 -2.2732
 7133TIP3   OH242889   6.607   6.124   4.181  0.3413 -0.3980  0.1043
 7133TIP3    H142890   6.696   6.160   4.182  0.3751 -0.3946 -1.3775
 7133TIP3    H242891   6.555   6.191   4.226  0.9473 -0.0126  0.2518
 7134TIP3   OH242892   4.371   5.999   2.503  0.1699  0.6998 -0.0381
 7134TIP3    H142893   4.383   6.092   2.524  0.0812  0.6041  0.4472
 7134TIP3    H242894   4.366   5.997   2.407 -0.1974  1.2431 -0.0395
 7135TIP3   OH242895   2.357   0.031   2.710  0.0376 -0.2203  0.1852
 7135TIP3    H142896   2.442   0.065   2.684 -0.9442  2.9906  0.6548
 7135TIP3    H242897   2.311   0.013   2.628  1.1453 -2.1601 -0.0684
 7136TIP3   OH242898   0.789   3.305  12.928 -0.0603 -0.6270  0.0467
 7136TIP3    H142899   0.846   3.260  12.990 -0.5940 -0.7346  0.4707
 7136TIP3    H242900   0.836   3.303  12.845  1.6150  1.3082  0.8630
 7137TIP3   OH242901   6.335   0.991  14.723 -0.2972 -0.6191 -0.7110
 7137TIP3    H142902   6.239   0.994  14.714 -0.3606 -1.7381 -0.4566
 7137TIP3    H242903   6.366   1.047  14.651 -1.0865 -1.9851 -2.1966
 7138TIP3   OH242904   4.255   2.980   6.010 -0.4334 -0.9671 -0.1339
 7138TIP3    H142905   4.212   3.053   5.966 -0.7791 -1.9858 -1.5402
 7138TIP3    H242906   4.184   2.926   6.044 -0.1747 -0.2625  1.6354
 7139TIP3   OH242907   4.564   1.725  16.355  0.6941 -0.4343  0.1154
 7139TIP3    H142908   4.607   1.806  16.382  1.4147 -0.5207 -0.7208
 7139TIP3    H242909   4.620   1.656  16.390 -0.8104 -0.6397  2.2842
 7140TIP3   OH242910   0.384   3.316   3.949  0.1532 -0.4349 -0.3763
 7140TIP3    H142911   0.372   3.252   4.019 -0.0494  0.9092  0.8381
 7140TIP3    H242912   0.466   3.360   3.970 -0.3535  0.5857 -0.4794
 7141TIP3   OH242913   3.590   3.223  15.206 -0.6992  1.0642 -0.0495
 7141TIP3    H142914   3.629   3.278  15.139  1.8859 -1.7064 -1.0752
 7141TIP3    H242915   3.648   3.233  15.282 -0.7245  0.5139  0.0505
 7142TIP3   OH242916   0.026   2.654   1.157 -0.0780 -0.7946 -0.2262
 7142TIP3    H142917   0.115   2.687   1.173 -0.1475 -1.2205  1.2294
 7142TIP3    H242918   0.017   2.654   1.062  1.8440 -1.6600 -0.4573
 7143TIP3   OH242919   5.351   0.104  12.826  0.4438  0.3508  0.0887
 7143TIP3    H142920   5.331   0.010  12.830 -1.3929  0.7331  1.0032
 7143TIP3    H242921   5.366   0.129  12.918  2.9474  0.6047 -0.3127
 7144TIP3   OH242922   5.821   1.795   2.641 -0.1232 -0.1240  0.3967
 7144TIP3    H142923   5.786   1.823   2.556  0.3999  0.1098  0.2555
 7144TIP3    H242924   5.747   1.751   2.684 -0.7569  0.8567  0.3341
 7145TIP3   OH242925   4.544   0.527   4.291  0.3770 -0.6705 -0.0516
 7145TIP3    H142926   4.540   0.602   4.350 -3.0153  0.4913 -1.4673
 7145TIP3    H242927   4.489   0.461   4.334 -0.6172 -0.4865 -1.0015
 7146TIP3   OH242928   5.616   6.583   4.536  0.1513  0.0824 -0.0235
 7146TIP3    H142929   5.550   6.600   4.468 -1.1438 -1.8292  0.6761
 7146TIP3    H242930   5.565   6.551   4.611  1.8401 -1.2018  0.6344
 7147TIP3   OH242931   2.672   1.103  16.373  0.1323  0.0890 -0.5562
 7147TIP3    H142932   2.716   1.024  16.343  0.2439  0.1829 -0.6435
 7147TIP3    H242933   2.705   1.172  16.315  0.4908  0.3076 -0.1026
 7148TIP3   OH242934   2.344   1.931  12.334  0.0486 -0.3956  0.1109
 7148TIP3    H142935   2.417   1.955  12.391 -0.0447  1.4944 -0.4838
 7148TIP3    H242936   2.273   1.908  12.395  0.4018  0.1514  0.7549
 7149TIP3   OH242937   4.844   2.848   2.578  0.3312  0.1727 -0.0504
 7149TIP3    H142938   4.863   2.781   2.642 -0.4684  0.5013  0.5513
 7149TIP3    H242939   4.869   2.809   2.494 -0.5021 -1.0349  0.2404
 7150TIP3   OH242940   4.214   6.495   3.185  0.3852  0.0132 -0.0534
 7150TIP3    H142941   4.220   6.446   3.103  1.1155 -1.2377  0.7174
 7150TIP3    H242942   4.124   6.528   3.187 -0.7003 -2.7379  0.1916
 7151TIP3   OH242943   3.077   2.529   0.073 -0.1862  0.3475  0.4385
 7151TIP3    H142944   2.998   2.583   0.064  0.3225  1.0984  0.4186
 7151TIP3    H242945   3.140   2.568   0.013  0.3356 -0.0094  0.7449
 7152TIP3   OH242946   2.722   2.270  11.585 -0.2579 -0.4380 -0.3482
 7152TIP3    H142947   2.759   2.269  11.673  0.9183 -2.4512 -0.8135
 7152TIP3    H242948   2.627   2.271  11.600 -0.1013 -1.5308  0.9759
 7153TIP3   OH242949   3.753   1.356  15.222  0.1200 -0.2343  0.4268
 7153TIP3    H142950   3.718   1.277  15.264  1.1041 -0.3990  0.9564
 7153TIP3    H242951   3.675   1.407  15.199 -0.5335 -1.4172 -0.0609
 7154TIP3   OH242952   5.570   1.193  12.997 -0.0384 -0.1977 -0.2570
 7154TIP3    H142953   5.564   1.288  13.001  0.3689 -0.1888  0.2065
 7154TIP3    H242954   5.527   1.170  12.915  0.1666  0.4084 -0.5406
 7155TIP3   OH242955   0.874   0.468  12.842  0.0540  0.2260  0.3476
 7155TIP3    H142956   0.877   0.436  12.932  0.8608 -1.3633 -0.2151
 7155TIP3    H242957   0.781   0.477  12.823 -0.2296 -1.6766  0.6123
 7156TIP3   OH242958   3.141   5.609  14.828  0.0342 -0.7554 -0.2994
 7156TIP3    H142959   3.090   5.551  14.772  1.6821 -1.9741 -0.6091
 7156TIP3    H242960   3.231   5.599  14.798  0.5660  0.8120  0.6599
 7157TIP3   OH242961   1.229   1.678   5.070 -0.8365  0.6469 -0.0032
 7157TIP3    H142962   1.203   1.632   4.990 -2.7148  1.2998  0.1811
 7157TIP3    H242963   1.193   1.625   5.141  1.9621 -0.6499  0.5360
 7158TIP3   OH242964   1.648   5.327  12.294  0.3331  0.0848  0.1009
 7158TIP3    H142965   1.740   5.307  12.281  0.8649  1.2256  1.7804
 7158TIP3    H242966   1.624   5.281  12.375 -0.3778  0.3775  0.0704
 7159TIP3   OH242967   4.498   3.574   2.068  0.3226  0.2956 -0.0241
 7159TIP3    H142968   4.483   3.512   1.997  4.3293 -1.0899  0.0985
 7159TIP3    H242969   4.458   3.656   2.038  1.7048 -0.2422 -3.8816
 7160TIP3   OH242970   5.569   6.622  11.263 -0.2848 -0.5344 -0.6126
 7160TIP3    H142971   5.561   6.650  11.172 -1.5563 -1.0186 -0.6838
 7160TIP3    H242972   5.600   6.699  11.310  0.1492 -0.2079 -1.4169
 7161TIP3   OH242973   6.226   3.880  16.767 -0.3058 -0.1381 -0.3781
 7161TIP3    H142974   6.179   3.962  16.779  0.2623  0.1560 -0.0922
 7161TIP3    H242975   6.215   3.833  16.851 -1.2316 -0.6799 -0.7895
 7162TIP3   OH242976   3.906   3.356   2.464 -0.2412 -0.1020 -0.0467
 7162TIP3    H142977   3.994   3.325   2.483 -0.2719  1.4461  3.3235
 7162TIP3    H242978   3.848   3.289   2.501 -0.3902  0.3531  0.5725
 7163TIP3   OH242979   5.186   2.999  12.515  0.4775  0.0644  0.2505
 7163TIP3    H142980   5.143   2.939  12.454 -0.3303 -0.7852  1.5966
 7163TIP3    H242981   5.170   2.961  12.601  1.6585  1.1817  0.9998
 7164TIP3   OH242982   5.589   4.570  15.470  0.4474 -0.2567 -0.0762
 7164TIP3    H142983   5.598   4.609  15.557  1.1175 -1.9182  0.6474
 7164TIP3    H242984   5.504   4.598  15.439 -2.1502 -3.4650  3.2355
 7165TIP3   OH242985   0.251   2.026  14.086 -0.4437 -0.6344  0.2660
 7165TIP3    H142986   0.166   2.036  14.044  0.4983  2.2098 -1.1866
 7165TIP3    H242987   0.303   2.099  14.053  1.6248 -0.4784  3.4527
 7166TIP3   OH242988   6.540   6.215   1.122  0.2429 -0.1132 -1.1713
 7166TIP3    H142989   6.619   6.269   1.128 -0.5662  1.0295 -0.4231
 7166TIP3    H242990   6.523   6.188   1.212 -1.4547  1.5197 -0.9428
 7167TIP3   OH242991   0.468   4.895  14.254 -0.2920  0.1401  1.0723
 7167TIP3    H142992   0.546   4.951  14.262  0.9527 -1.5741  1.3805
 7167TIP3    H242993   0.439   4.909  14.164  2.1838 -1.3957 -0.0663
 7168TIP3   OH242994   1.934   0.062   5.527 -0.0604  0.3537  0.2056
 7168TIP3    H142995   1.961  -0.016   5.576  0.0884  0.7044  0.6894
 7168TIP3    H242996   1.843   0.044   5.502 -0.8455  0.9533  2.3200
 7169TIP3   OH242997   5.396   0.391  14.415 -0.0806  0.0497  0.2746
 7169TIP3    H142998   5.375   0.465  14.471 -1.0855 -0.3086  0.4013
 7169TIP3    H242999   5.488   0.403  14.392 -0.8203  2.8321 -1.8886
 7170TIP3   OH243000   1.066   2.539   6.626  0.4043  0.2661 -0.6210
 7170TIP3    H143001   1.092   2.505   6.540  0.7710  0.7527 -0.7087
 7170TIP3    H243002   0.983   2.496   6.645  2.4100 -3.4662  0.8697
 7171TIP3   OH243003   5.951   1.915   3.544  0.1365  0.3035  0.4658
 7171TIP3    H143004   6.028   1.969   3.531 -0.8372  2.0716  1.6695
 7171TIP3    H243005   5.920   1.937   3.632 -2.1309  0.1909 -0.2320
 7172TIP3   OH243006   4.204   1.457  16.240 -0.0755  0.1669  0.1321
 7172TIP3    H143007   4.287   1.466  16.192  0.2233 -2.2627  0.0880
 7172TIP3    H243008   4.219   1.502  16.323  0.5230  1.5993 -0.7158
 7173TIP3   OH243009   0.134   3.203   1.323  0.2419 -0.2477 -0.1322
 7173TIP3    H143010   0.099   3.162   1.244 -1.3462  0.2697  0.2841
 7173TIP3    H243011   0.215   3.154   1.341  0.0206 -1.1281 -1.4032
 7174TIP3   OH243012   2.931   6.507   2.269 -0.2072 -0.0388 -0.1135
 7174TIP3    H143013   3.006   6.566   2.258 -0.6029  0.2255 -1.6737
 7174TIP3    H243014   2.942   6.442   2.199 -1.9027  0.5547 -0.9854
 7175TIP3   OH243015   0.548   4.135  12.676 -0.0594  0.3692 -0.2858
 7175TIP3    H143016   0.545   4.042  12.652 -1.7507  0.0904  0.8009
 7175TIP3    H243017   0.529   4.182  12.595  0.9707 -0.2124 -0.8834
 7176TIP3   OH243018   1.411   2.037  11.213 -0.0816 -0.8364 -0.2351
 7176TIP3    H143019   1.354   2.077  11.147 -0.3893 -0.0362  0.5051
 7176TIP3    H243020   1.353   2.014  11.285  0.3301 -1.2439 -0.0243
 7177TIP3   OH243021   3.045   2.251  14.927  0.5829  0.5809 -0.1314
 7177TIP3    H143022   2.993   2.249  15.008  1.3555 -0.0163  0.3716
 7177TIP3    H243023   3.129   2.288  14.954  2.0161 -2.4823  0.1127
 7178TIP3   OH243024   3.212   1.237  11.113 -0.2392 -0.0726  0.2533
 7178TIP3    H143025   3.266   1.305  11.073 -0.1108 -0.1857  0.2328
 7178TIP3    H243026   3.144   1.218  11.049  0.3055 -0.6663 -0.1629
 7179TIP3   OH243027   0.242   2.780  11.276 -0.0454  0.5270 -0.1407
 7179TIP3    H143028   0.307   2.715  11.250 -0.7788 -0.0386 -0.5857
 7179TIP3    H243029   0.178   2.781  11.205 -1.5074 -0.2628  1.0863
 7180TIP3   OH243030   1.182   0.535   5.239 -0.2524  0.2146  0.9583
 7180TIP3    H143031   1.247   0.471   5.269  0.7083  0.9665  0.5176
 7180TIP3    H243032   1.106   0.482   5.215  1.4706 -1.1066 -2.0844
 7181TIP3   OH243033   6.710   2.840  14.586 -0.4682  0.2344  0.9397
 7181TIP3    H143034   6.750   2.865  14.669  0.1789  1.3824  0.3138
 7181TIP3    H243035   6.635   2.898  14.577  0.9659  2.0361 -0.4580
 7182TIP3   OH243036   4.441   5.485   1.321  0.4544  0.3244  0.4248
 7182TIP3    H143037   4.443   5.494   1.416  0.0416  0.1035  0.4572
 7182TIP3    H243038   4.397   5.402   1.305 -2.1903  1.6700  0.0119
 7183TIP3   OH243039   1.431   3.747   5.065  0.2095  0.7099  0.3364
 7183TIP3    H143040   1.353   3.779   5.110 -0.6392 -0.4030 -0.2927
 7183TIP3    H243041   1.483   3.706   5.134  0.1824  1.3425  0.7411
 7184TIP3   OH243042   5.450   1.682   6.143 -0.4818 -0.2394  0.3834
 7184TIP3    H143043   5.380   1.663   6.205 -1.4115  1.1389 -0.1835
 7184TIP3    H243044   5.442   1.614   6.076  0.0516 -1.2904  1.3435
 7185TIP3   OH243045   4.519   6.818  14.034  0.3463 -0.2059 -0.3162
 7185TIP3    H143046   4.593   6.854  13.985  1.3279 -1.1902  0.3776
 7185TIP3    H243047   4.495   6.886  14.096  1.6870 -0.4165  0.4766
 7186TIP3   OH243048   0.386   4.290   1.842 -0.0806  0.8386 -0.4451
 7186TIP3    H143049   0.295   4.282   1.870  0.1026  2.4398  0.7349
 7186TIP3    H243050   0.401   4.213   1.786 -1.5293 -0.5713  1.0063
 7187TIP3   OH243051   4.441   0.390  16.531  0.4315  0.3340 -0.1356
 7187TIP3    H143052   4.482   0.448  16.595  0.0085  0.0049  0.4411
 7187TIP3    H243053   4.501   0.389  16.457  0.7361  1.0280  0.0977
 7188TIP3   OH243054   2.246   5.167   4.012 -0.1206 -0.1856  0.1907
 7188TIP3    H143055   2.186   5.181   3.938  1.4301  1.3606 -0.8627
 7188TIP3    H243056   2.311   5.237   4.003  1.1280 -1.0421  2.0125
 7189TIP3   OH243057   0.925   2.799   3.482 -0.2693  0.0406 -0.4074
 7189TIP3    H143058   0.984   2.804   3.557  0.1337 -0.5498 -0.6728
 7189TIP3    H243059   0.983   2.778   3.408 -0.8859 -1.3005 -0.5504
 7190TIP3   OH243060   4.548   2.749   2.416  0.1376  0.2153  0.3249
 7190TIP3    H143061   4.537   2.842   2.434 -0.3619  0.1220  0.5235
 7190TIP3    H243062   4.637   2.729   2.446  0.0054  0.4851  0.9038
 7191TIP3   OH243063   2.011   1.351   0.605  0.0839  0.0694 -0.6189
 7191TIP3    H143064   2.019   1.418   0.537  1.0752  0.0014 -0.5830
 7191TIP3    H243065   2.017   1.400   0.688 -2.5228  0.3320 -0.5168
 7192TIP3   OH243066   5.090   6.696   3.761 -0.0901 -0.0682  0.2691
 7192TIP3    H143067   5.176   6.655   3.751 -0.1685 -0.2192  0.2041
 7192TIP3    H243068   5.044   6.674   3.680 -0.3007 -0.2566  0.4364
 7193TIP3   OH243069   3.735   4.145  15.340 -0.6591  0.1903 -0.3134
 7193TIP3    H143070   3.796   4.205  15.296 -0.3568  0.2562  0.1760
 7193TIP3    H243071   3.777   4.059  15.333 -1.5921 -0.1680 -1.9266
 7194TIP3   OH243072   3.426   5.172  16.449 -0.7782  0.3689 -0.1901
 7194TIP3    H143073   3.403   5.079  16.443 -2.1127  0.6247  0.5895
 7194TIP3    H243074   3.361   5.216  16.394 -0.1944  0.8627 -0.4990
 7195TIP3   OH243075   5.208   1.858  12.766 -0.1468  0.1971 -0.6573
 7195TIP3    H143076   5.253   1.782  12.728  0.8677 -1.3212  3.0980
 7195TIP3    H243077   5.119   1.852  12.732  0.0547 -2.3673 -0.9561
 7196TIP3   OH243078   3.808   2.890   4.625 -0.7380 -0.2870 -0.0874
 7196TIP3    H143079   3.788   2.815   4.680  0.2777 -0.4066  0.1418
 7196TIP3    H243080   3.902   2.903   4.635 -0.4105 -0.6590 -2.2154
 7197TIP3   OH243081   4.145   1.486  11.661 -0.1774  0.4033  0.0428
 7197TIP3    H143082   4.202   1.502  11.587  1.5735  0.5192  1.3481
 7197TIP3    H243083   4.122   1.573  11.693 -1.7572  0.3695 -0.9373
 7198TIP3   OH243084   5.638   5.772  16.876 -0.2755 -0.1320  0.0395
 7198TIP3    H143085   5.596   5.760  16.790 -2.0115 -0.8752  0.9410
 7198TIP3    H243086   5.707   5.705  16.878 -0.7200 -0.6201 -0.4894
 7199TIP3   OH243087   4.266   6.265  13.574  0.1098 -0.0857 -0.1985
 7199TIP3    H143088   4.229   6.285  13.659 -0.8254 -2.8031  0.1211
 7199TIP3    H243089   4.231   6.333  13.516 -0.3014  1.0245  1.2885
 7200TIP3   OH243090   1.451   1.961   4.100  0.5522  0.6932  0.0633
 7200TIP3    H143091   1.480   2.036   4.048  0.7821  0.7066  0.2134
 7200TIP3    H243092   1.448   1.889   4.037 -2.5071  1.4275 -0.8036
 7201TIP3   OH243093   3.982   4.710  16.336  0.3675  0.3188  0.2747
 7201TIP3    H143094   3.960   4.803  16.328  0.5969  0.3053 -0.6789
 7201TIP3    H243095   4.077   4.707  16.323  0.4759  0.0300  1.0893
 7202TIP3   OH243096   2.136   2.859  15.295 -0.0760  0.2103 -0.2276
 7202TIP3    H143097   2.132   2.914  15.217  0.7091 -0.4518 -0.7540
 7202TIP3    H243098   2.137   2.769  15.261 -0.0576 -0.0938  0.5620
 7203TIP3   OH243099   5.501   1.047  14.092  0.0503 -0.4777  0.3132
 7203TIP3    H143100   5.462   1.091  14.167  0.2653 -2.2216  1.4873
 7203TIP3    H243101   5.470   0.957  14.097 -0.5700 -0.4760 -2.1713
 7204TIP3   OH243102   0.543   5.910   4.639  0.3698  0.8514  0.3186
 7204TIP3    H143103   0.470   5.918   4.700 -0.2745  0.0246 -0.3210
 7204TIP3    H243104   0.619   5.941   4.688 -0.5217  2.5752  0.7224
 7205TIP3   OH243105   4.751   6.189   5.098 -0.3665  0.3865  0.8536
 7205TIP3    H143106   4.672   6.137   5.084  0.0199 -0.7001  2.4090
 7205TIP3    H243107   4.823   6.128   5.082  0.2138  1.4941 -1.0515
 7206TIP3   OH243108   0.433   4.244  13.869  0.3827 -0.1234  0.0920
 7206TIP3    H143109   0.435   4.149  13.873 -1.1468 -0.1446  2.0754
 7206TIP3    H243110   0.460   4.265  13.780 -2.2465 -2.5727 -1.4617
 7207TIP3   OH243111   1.693   1.293  11.685  0.3758 -0.2368  0.5350
 7207TIP3    H143112   1.658   1.350  11.754  2.2796  1.3777  0.2473
 7207TIP3    H243113   1.706   1.209  11.728  1.8835  0.8307  2.3366
 7208TIP3   OH243114   2.872   6.765   0.375 -0.5586  0.5452 -1.2853
 7208TIP3    H143115   2.797   6.790   0.429 -1.7105  0.9116 -2.9686
 7208TIP3    H243116   2.907   6.686   0.417 -1.4454  0.7676 -0.0783
 7209TIP3   OH243117   0.700   3.892  11.768  0.5782 -0.2893 -0.0365
 7209TIP3    H143118   0.632   3.833  11.801  0.3111 -0.0429 -0.1380
 7209TIP3    H243119   0.679   3.977  11.808  0.3074 -0.0094 -0.7661
 7210TIP3   OH243120   1.117   6.026  12.781 -0.5345  0.0338  0.0656
 7210TIP3    H143121   1.166   6.000  12.859 -1.5434 -1.2991  0.2830
 7210TIP3    H243122   1.090   6.116  12.798 -0.3895 -0.1017  1.0717
 7211TIP3   OH243123   2.528   2.175   1.653 -0.4514  0.6229 -0.0883
 7211TIP3    H143124   2.478   2.198   1.575  2.5271  0.1756 -2.3027
 7211TIP3    H243125   2.501   2.086   1.673  0.2114 -0.0426 -1.9491
 7212TIP3   OH243126   1.143   1.311   1.818 -0.2479 -1.2192  0.0085
 7212TIP3    H143127   1.131   1.272   1.731 -1.6219  0.6826 -0.7207
 7212TIP3    H243128   1.053   1.321   1.851  0.0652  0.7106  0.3923
 7213TIP3   OH243129   6.576   4.823  14.564  0.5436 -0.1517 -0.7339
 7213TIP3    H143130   6.661   4.806  14.523  0.1946 -0.9893 -1.1277
 7213TIP3    H243131   6.594   4.892  14.628  1.3314  0.3347 -1.4587
 7214TIP3   OH243132   3.370   5.663   3.964  0.2863 -0.7571  0.3594
 7214TIP3    H143133   3.303   5.636   4.026  1.5171 -2.0199  1.2031
 7214TIP3    H243134   3.353   5.611   3.885  0.1935 -0.9662  0.5169
 7215TIP3   OH243135   3.272   6.512  14.104 -0.0727  0.2543 -0.1673
 7215TIP3    H143136   3.240   6.562  14.029 -1.0081  0.4627  0.3494
 7215TIP3    H243137   3.204   6.523  14.171  0.1433 -0.9392  0.2816
 7216TIP3   OH243138   1.416   2.309   4.319 -0.0177 -0.6990 -0.5813
 7216TIP3    H143139   1.405   2.358   4.401 -0.4493 -0.0762 -1.0013
 7216TIP3    H243140   1.359   2.233   4.328 -0.1861 -0.5494 -0.3628
 7217TIP3   OH243141   4.084   0.279  12.299 -0.9545  0.1066  0.2018
 7217TIP3    H143142   4.055   0.300  12.388 -0.1916  0.7735  0.3107
 7217TIP3    H243143   4.013   0.227  12.262 -1.6660  0.5448  0.9097
 7218TIP3   OH243144   2.411   0.690   2.554  0.0309 -0.3549 -0.1088
 7218TIP3    H143145   2.417   0.597   2.534  0.0761 -0.5524  0.7940
 7218TIP3    H243146   2.438   0.734   2.473 -0.5474 -1.1135 -0.7212
 7219TIP3   OH243147   0.767   2.853  16.460 -0.7361 -0.2890  0.9492
 7219TIP3    H143148   0.691   2.879  16.408 -0.0501 -0.9335 -0.4266
 7219TIP3    H243149   0.817   2.933  16.472  0.5153 -0.5403 -1.8335
 7220TIP3   OH243150   0.775   0.205   0.428  0.8410 -0.1542  0.1376
 7220TIP3    H143151   0.775   0.167   0.340  0.2752 -1.7603  0.7890
 7220TIP3    H243152   0.712   0.277   0.423  1.1860  0.0951 -0.8811
 7221TIP3   OH243153   1.861   2.676  15.988 -0.0442 -0.3397 -0.2398
 7221TIP3    H143154   1.931   2.739  15.975 -1.0796  1.5533  2.3648
 7221TIP3    H243155   1.881   2.634  16.072 -3.5785  2.9038  2.6115
 7222TIP3   OH243156   2.463   6.399   0.632 -0.3571 -0.2665  0.1109
 7222TIP3    H143157   2.371   6.411   0.655 -0.1896  0.8455  0.2925
 7222TIP3    H243158   2.484   6.475   0.577  0.5580 -0.2609  0.4390
 7223TIP3   OH243159   6.241   3.197   4.580  0.3351 -0.0477  0.5892
 7223TIP3    H143160   6.219   3.287   4.555  0.5904  0.2737  1.4959
 7223TIP3    H243161   6.191   3.143   4.519 -0.0548  0.7066  0.2251
 7224TIP3   OH243162   0.667   0.935   2.597  0.1004 -0.3848  0.2727
 7224TIP3    H143163   0.711   0.866   2.648  1.2172 -0.0521 -0.2224
 7224TIP3    H243164   0.715   0.939   2.515  0.2069  1.1489  0.3777
 7225TIP3   OH243165   1.253   4.202   1.770  0.0899  0.5988 -0.5728
 7225TIP3    H143166   1.275   4.295   1.756  1.2341  0.1902 -1.6827
 7225TIP3    H243167   1.296   4.156   1.698  1.3761 -1.0479  1.1681
 7226TIP3   OH243168   2.593   3.296  14.208  0.4860  0.1177 -0.1367
 7226TIP3    H143169   2.629   3.333  14.289  1.8760  0.6453 -0.9461
 7226TIP3    H243170   2.626   3.207  14.206  0.5774  0.1521 -0.1861
 7227TIP3   OH243171   1.277   6.723  13.628 -0.4362 -0.6606  0.0499
 7227TIP3    H143172   1.229   6.719  13.711 -0.9528 -1.4903 -0.2758
 7227TIP3    H243173   1.220   6.678  13.566  0.4112 -0.9487 -0.5299
 7228TIP3   OH243174   4.535   0.213   3.775  0.0738 -0.0519 -0.4801
 7228TIP3    H143175   4.539   0.203   3.680 -0.4719  0.7113 -0.5937
 7228TIP3    H243176   4.531   0.308   3.789  0.5474 -0.1453  0.3233
 7229TIP3   OH243177   5.624   2.207  15.249 -0.9064 -0.4659 -0.0808
 7229TIP3    H143178   5.564   2.133  15.251  0.6763 -1.7988  0.2409
 7229TIP3    H243179   5.660   2.211  15.337 -0.3396  0.1501 -0.3300
 7230TIP3   OH243180   3.994   0.357  12.548  0.3408  0.1178  0.0415
 7230TIP3    H143181   3.928   0.398  12.493  1.1214  0.7587 -0.4536
 7230TIP3    H243182   3.954   0.276  12.578 -1.1635  1.1188  0.8499
 7231TIP3   OH243183   2.117   1.866   5.442  0.3046  0.4011  0.3136
 7231TIP3    H143184   2.113   1.837   5.351 -0.1862 -2.5121  1.1834
 7231TIP3    H243185   2.137   1.960   5.436  0.2572  0.3097 -2.7615
 7232TIP3   OH243186   0.873   1.536  16.675  0.8794 -0.3064 -0.0730
 7232TIP3    H143187   0.883   1.462  16.615 -2.1077  0.1974 -1.3903
 7232TIP3    H243188   0.929   1.515  16.749  0.9942 -3.3385 -0.8912
 7233TIP3   OH243189   3.709   3.257   1.024  0.8217 -0.3894  0.2107
 7233TIP3    H143190   3.786   3.211   0.990  2.0968  0.2120  2.0616
 7233TIP3    H243191   3.705   3.231   1.116  0.0818  1.2241  0.6739
 7234TIP3   OH243192   0.422   4.779  12.445 -0.1968 -0.5063  0.3415
 7234TIP3    H143193   0.378   4.864  12.446 -0.2861 -0.4721 -1.5841
 7234TIP3    H243194   0.355   4.717  12.475  0.0043  0.1152  2.1952
 7235TIP3   OH243195   2.743   1.399  15.509 -0.0636  0.4019  0.0341
 7235TIP3    H143196   2.690   1.441  15.577  0.9951 -1.6930  2.2935
 7235TIP3    H243197   2.823   1.372  15.554  0.9449 -0.5613 -2.2066
 7236TIP3   OH243198   2.641   1.604   5.820  0.2813  0.0795 -0.7358
 7236TIP3    H143199   2.707   1.660   5.862  0.4136  0.2594 -1.1837
 7236TIP3    H243200   2.653   1.519   5.862 -0.1364  0.4564  0.1857
 7237TIP3   OH243201   1.400   0.249   2.255  0.1628  0.1077 -0.0853
 7237TIP3    H143202   1.332   0.231   2.189 -0.7657  0.0324  0.8727
 7237TIP3    H243203   1.376   0.335   2.290  1.5403  0.8642 -0.8977
 7238TIP3   OH243204   5.399   2.716   2.088  0.3771 -0.4713  0.3337
 7238TIP3    H143205   5.468   2.735   2.151 -1.3279 -0.0155  2.1866
 7238TIP3    H243206   5.317   2.732   2.136 -1.0393 -0.6021 -1.8510
 7239TIP3   OH243207   4.083   2.522   6.055  0.2907 -0.4399  0.0170
 7239TIP3    H143208   4.149   2.483   6.112  0.4219 -2.0430 -1.1529
 7239TIP3    H243209   4.127   2.535   5.972 -0.0890  1.2188  0.0420
 7240TIP3   OH243210   6.117   0.867  12.788 -0.4706  0.4358 -0.2676
 7240TIP3    H143211   6.099   0.926  12.862 -0.2611 -0.4605  0.5170
 7240TIP3    H243212   6.033   0.826  12.769 -0.7768  1.4723 -1.2770
 7241TIP3   OH243213   6.745   3.454  16.022  0.2694  0.0787  0.0956
 7241TIP3    H143214   6.708   3.541  16.038 -0.3070 -0.5001  2.1216
 7241TIP3    H243215   6.680   3.410  15.967  0.2099  0.6598 -0.3103
 7242TIP3   OH243216   5.274   0.678   3.191 -0.0311  0.1511 -0.5868
 7242TIP3    H143217   5.260   0.609   3.126 -0.0375  0.8038 -1.2953
 7242TIP3    H243218   5.369   0.689   3.194  0.0188 -0.4323  0.1126
 7243TIP3   OH243219   6.334   0.874   1.498 -0.2485 -0.1769 -0.5377
 7243TIP3    H143220   6.330   0.845   1.589 -0.6099 -0.1337 -0.5373
 7243TIP3    H243221   6.285   0.957   1.498  0.9405  0.5542 -0.4896
 7244TIP3   OH243222   2.475   1.476   2.010 -0.4275  0.1948 -0.1887
 7244TIP3    H143223   2.520   1.399   2.045  0.4513  0.7347 -0.0964
 7244TIP3    H243224   2.423   1.443   1.937  0.9069 -0.3018 -0.9458
 7245TIP3   OH243225   5.279   3.057  12.843 -0.3311 -0.0983  0.6628
 7245TIP3    H143226   5.301   2.979  12.793  0.4208  0.9454 -0.6820
 7245TIP3    H243227   5.197   3.089  12.805 -0.6698 -0.2437  1.2480
 7246TIP3   OH243228   5.353   2.904  13.122  0.4759  0.6949  0.0970
 7246TIP3    H143229   5.421   2.838  13.126 -0.6113 -0.4701 -0.0588
 7246TIP3    H243230   5.347   2.928  13.029  1.3130  1.5159  0.2403
 7247TIP3   OH243231   1.386   6.070   2.648 -0.7125 -0.0181  0.1461
 7247TIP3    H143232   1.478   6.056   2.630 -0.7698 -0.7293  0.3758
 7247TIP3    H243233   1.367   6.157   2.611  0.2761  0.5719  0.9847
 7248TIP3   OH243234   0.537   4.184   6.321 -0.3270 -0.0825  0.9221
 7248TIP3    H143235   0.570   4.146   6.240 -0.6382  0.8160  0.3539
 7248TIP3    H243236   0.576   4.272   6.324  0.7281 -0.5566  2.4147
 7249TIP3   OH243237   1.520   2.538  12.559  0.0491 -0.3926  0.3899
 7249TIP3    H143238   1.562   2.470  12.507 -1.1512  0.8456 -2.4150
 7249TIP3    H243239   1.430   2.509  12.569  0.2494 -0.5849  1.8027
 7250TIP3   OH243240   1.408   6.251   0.227  0.3234  0.8116 -0.3181
 7250TIP3    H143241   1.393   6.277   0.136  3.4472  1.3080 -0.7870
 7250TIP3    H243242   1.486   6.197   0.225 -0.3942 -0.4650  1.9404
 7251TIP3   OH243243   6.763   1.504   1.957  0.3586  0.0293 -0.0954
 7251TIP3    H143244   6.718   1.532   2.037 -1.9545 -0.5574 -1.1305
 7251TIP3    H243245   6.844   1.555   1.957 -0.1968  1.0411  1.9158
 7252TIP3   OH243246   4.160   2.848  12.237  0.0972 -0.5390 -0.4614
 7252TIP3    H143247   4.118   2.815  12.316  1.1362 -1.6459 -0.3331
 7252TIP3    H243248   4.223   2.780  12.213  0.6915  0.3439 -1.5324
 7253TIP3   OH243249   4.452   5.266   0.712 -0.1260 -0.3173  0.0087
 7253TIP3    H143250   4.364   5.232   0.727 -0.6212  0.1967 -1.5377
 7253TIP3    H243251   4.442   5.328   0.639  1.6080 -0.7130 -0.6245
 7254TIP3   OH243252   5.591   4.750   4.946 -0.6833 -0.4532  0.2128
 7254TIP3    H143253   5.606   4.683   4.879 -4.0885 -1.4084  0.2298
 7254TIP3    H243254   5.551   4.823   4.900 -1.6202 -0.4961  0.9180
 7255TIP3   OH243255   5.686   1.858  17.041  0.8065 -0.3359 -0.0541
 7255TIP3    H143256   5.703   1.952  17.054  0.0111 -0.3816  1.5924
 7255TIP3    H243257   5.683   1.847  16.946 -1.7191  1.8300 -0.3287
 7256TIP3   OH243258   1.764   3.508  14.818 -0.0267 -0.4622  0.2465
 7256TIP3    H143259   1.826   3.569  14.859 -0.8015  0.5800 -0.0788
 7256TIP3    H243260   1.814   3.466  14.748  0.4426  0.0267  0.2830
 7257TIP3   OH243261   3.969   3.710   0.240  0.1164  0.3534 -0.1969
 7257TIP3    H143262   3.938   3.621   0.224  0.0332  0.6452 -1.8964
 7257TIP3    H243263   4.010   3.706   0.326  1.6185 -1.7605 -0.9096
 7258TIP3   OH243264   3.364   4.811   4.767 -0.6970 -0.7975 -0.1206
 7258TIP3    H143265   3.287   4.867   4.778 -0.4909  0.0687 -2.4659
 7258TIP3    H243266   3.428   4.846   4.829 -0.6961  1.4433 -1.2706
 7259TIP3   OH243267   0.299   3.983   5.345  1.0623 -0.7650  0.7777
 7259TIP3    H143268   0.317   4.011   5.434  2.4257 -1.7963  0.8420
 7259TIP3    H243269   0.228   3.919   5.353 -0.3959  0.7852  0.8598
 7260TIP3   OH243270   5.286   5.902  11.596  0.1924 -0.1739  0.1495
 7260TIP3    H143271   5.371   5.880  11.634 -0.9390 -2.2946  1.6228
 7260TIP3    H243272   5.271   5.833  11.530 -0.4251  0.1315 -0.0367
 7261TIP3   OH243273   1.266   2.725   4.460 -0.2094  0.3111  0.0943
 7261TIP3    H143274   1.337   2.738   4.523 -0.2173  0.0074  0.1691
 7261TIP3    H243275   1.210   2.659   4.500 -0.8822  1.0149  0.3173
 7262TIP3   OH243276   1.308   3.006   5.298  0.3883  0.4271 -0.5518
 7262TIP3    H143277   1.244   3.076   5.286 -0.1269 -0.1665 -1.3563
 7262TIP3    H243278   1.390   3.051   5.318  0.1025  1.2697 -1.2329
 7263TIP3   OH243279   4.035   4.986  12.225  0.1136  0.5685  0.5586
 7263TIP3    H143280   4.011   5.020  12.311 -1.0177 -1.1448  0.9768
 7263TIP3    H243281   3.973   4.914  12.209  0.7615  0.3629 -1.3705
 7264TIP3   OH243282   4.971   1.914   2.740 -0.2721  0.0798 -0.7387
 7264TIP3    H143283   4.885   1.912   2.782 -0.2432 -1.0713 -0.6840
 7264TIP3    H243284   5.033   1.926   2.813 -0.3793  0.8883 -0.7761
 7265TIP3   OH243285   3.307   1.880  15.040  0.2313 -0.1971 -0.1053
 7265TIP3    H143286   3.393   1.838  15.037  0.0028 -0.6683 -2.8334
 7265TIP3    H243287   3.325   1.971  15.064  1.4705 -0.3406 -0.4265
 7266TIP3   OH243288   3.727   3.933   1.258  0.3424  0.3856 -0.5753
 7266TIP3    H143289   3.736   3.974   1.172  2.0418 -0.5567 -0.9010
 7266TIP3    H243290   3.817   3.911   1.283 -0.0292  1.2380  1.7613
 7267TIP3   OH243291   3.736   0.195  12.966 -0.8386 -0.5387  0.4452
 7267TIP3    H143292   3.742   0.104  12.997  0.9984 -0.8944 -0.7948
 7267TIP3    H243293   3.819   0.234  12.993 -1.3745  0.6203  0.4483
 7268TIP3   OH243294   0.836   3.538  16.120 -0.1244  0.0698 -0.0788
 7268TIP3    H143295   0.746   3.553  16.091  0.1590  0.0707 -0.9795
 7268TIP3    H243296   0.828   3.519  16.214 -0.9611  1.1502  0.0967
 7269TIP3   OH243297   4.517   4.778  14.869 -0.3887 -0.2900  0.2685
 7269TIP3    H143298   4.574   4.711  14.906 -0.3595 -0.3562  0.1058
 7269TIP3    H243299   4.519   4.761  14.775 -0.0316  0.2106  0.1817
 7270TIP3   OH243300   3.758   2.912  15.124 -0.1251  0.0604 -0.3928
 7270TIP3    H143301   3.674   2.951  15.101  0.6272 -0.0289 -3.8846
 7270TIP3    H243302   3.815   2.986  15.143 -0.0139  0.4336 -2.0240
 7271TIP3   OH243303   2.169   4.657   0.976 -0.6055  0.5159 -0.1696
 7271TIP3    H143304   2.124   4.611   0.906  0.4448  0.2029 -0.6610
 7271TIP3    H243305   2.174   4.748   0.946  0.2811  0.2881 -0.7447
 7272TIP3   OH243306   4.264   4.178  15.750 -0.0525  0.4007  0.1330
 7272TIP3    H143307   4.357   4.184  15.774 -0.1156  0.2950  0.4029
 7272TIP3    H243308   4.254   4.243  15.680  0.0970  0.8314  0.5060
 7273TIP3   OH243309   1.184   6.640   3.257 -0.0411  0.4012  0.0474
 7273TIP3    H143310   1.277   6.634   3.281  0.0130 -0.3568 -0.3188
 7273TIP3    H243311   1.180   6.709   3.192  0.7113 -1.2709 -1.8954
 7274TIP3   OH243312   6.589   1.119   1.305  0.2004  0.1583  0.6356
 7274TIP3    H143313   6.615   1.162   1.386  1.7942 -0.7074  0.6221
 7274TIP3    H243314   6.656   1.146   1.241 -0.9395  0.7030 -0.3710
 7275TIP3   OH243315   1.100   0.201   4.660 -0.4476 -0.2086  0.4037
 7275TIP3    H143316   1.047   0.146   4.602 -1.3878  0.4140  0.6562
 7275TIP3    H243317   1.152   0.139   4.711  1.4189 -0.7670 -2.0002
 7276TIP3   OH243318   2.298   5.304   2.999  0.3699 -1.1440 -0.7252
 7276TIP3    H143319   2.238   5.367   2.959 -0.7639 -1.9384 -0.3386
 7276TIP3    H243320   2.245   5.259   3.064  2.1448  0.1388  1.8024
 7277TIP3   OH243321   0.101   2.073   0.484 -0.0910  0.2062 -0.6500
 7277TIP3    H143322   0.193   2.048   0.483  0.2436  1.2749  0.9374
 7277TIP3    H243323   0.099   2.158   0.440  0.1939  1.6311  1.9339
 7278TIP3   OH243324   1.641   3.003  11.698 -0.3115  0.3404 -0.1708
 7278TIP3    H143325   1.724   3.037  11.663  1.6789 -2.0658  1.8651
 7278TIP3    H243326   1.625   3.056  11.776 -0.5710  0.5961 -0.3922
 7279TIP3   OH243327   3.670   4.758   6.333  0.0949 -0.1782 -0.2355
 7279TIP3    H143328   3.761   4.786   6.348  0.3982 -0.3368 -1.6883
 7279TIP3    H243329   3.677   4.689   6.267 -0.9592 -1.2995  0.7684
 7280TIP3   OH243330   0.307   3.710  13.905 -0.6654 -0.6991 -0.1289
 7280TIP3    H143331   0.280   3.714  13.996  0.7082  0.8203  0.2616
 7280TIP3    H243332   0.280   3.623  13.875 -0.8910 -1.3235  1.7926
 7281TIP3   OH243333   6.429   5.852   0.585 -0.5326  0.1699  0.1162
 7281TIP3    H143334   6.341   5.824   0.609 -0.3189 -0.8631 -0.2401
 7281TIP3    H243335   6.487   5.785   0.622  0.0952  0.7716  0.2498
 7282TIP3   OH243336   0.525   5.248   2.698  0.3503  0.1868  0.0939
 7282TIP3    H143337   0.571   5.310   2.642 -0.8559  0.6009 -0.4827
 7282TIP3    H243338   0.435   5.246   2.663  0.0754 -1.0448  0.7888
 7283TIP3   OH243339   3.181   5.477   3.091 -0.3285 -0.3379 -0.0310
 7283TIP3    H143340   3.232   5.486   3.010  2.9556 -3.9232  1.3259
 7283TIP3    H243341   3.145   5.389   3.087 -2.3225  0.3389  1.3821
 7284TIP3   OH243342   3.757   3.629  13.369 -0.0457 -0.0076 -0.4690
 7284TIP3    H143343   3.824   3.634  13.437 -1.8176 -0.3159  1.4002
 7284TIP3    H243344   3.756   3.716  13.329 -0.5999  0.9776  1.5841
 7285TIP3   OH243345   0.801   1.305   4.822  0.0203  0.2050 -0.0019
 7285TIP3    H143346   0.787   1.340   4.910  0.3960 -2.0190  1.0089
 7285TIP3    H243347   0.715   1.272   4.796 -0.0982  0.8908 -0.5167
 7286TIP3   OH243348   1.463   6.535   2.267 -0.3207  0.1961  0.1640
 7286TIP3    H143349   1.389   6.568   2.318 -1.6074 -0.7361 -1.0308
 7286TIP3    H243350   1.540   6.564   2.316 -1.4645 -0.9543  2.8493
 7287TIP3   OH243351   4.879   1.918  12.900  0.2434  0.7399  0.0207
 7287TIP3    H143352   4.880   1.951  12.810 -0.6744 -0.2785 -0.3890
 7287TIP3    H243353   4.950   1.854  12.902  0.1604  0.6465 -0.0264
 7288TIP3   OH243354   4.763   3.631   0.224  0.4878  0.1038  0.1378
 7288TIP3    H143355   4.784   3.680   0.304  0.1728 -0.9782  0.9113
 7288TIP3    H243356   4.786   3.690   0.153 -0.4944  1.6513  1.0257
 7289TIP3   OH243357   6.244   4.234  15.091 -0.6903 -0.0820  0.0559
 7289TIP3    H143358   6.260   4.267  15.180  2.8901  1.4453 -0.9555
 7289TIP3    H243359   6.232   4.314  15.039  0.6120 -0.7349 -1.3042
 7290TIP3   OH243360   6.609   3.797  11.962  0.2319  0.6531  0.2779
 7290TIP3    H143361   6.697   3.823  11.934 -0.4958  0.4926 -2.4951
 7290TIP3    H243362   6.556   3.876  11.952 -0.0858  0.5830  1.2994
 7291TIP3   OH243363   2.603   2.465   4.911  0.3251 -0.2085  0.2740
 7291TIP3    H143364   2.615   2.545   4.860 -2.0757 -0.4252 -0.7502
 7291TIP3    H243365   2.548   2.492   4.985  0.2996 -0.7217  0.4467
 7292TIP3   OH243366   0.740   2.243   5.000 -0.4986 -0.6187 -0.4851
 7292TIP3    H143367   0.761   2.245   4.907  0.5867 -1.2105 -0.2801
 7292TIP3    H243368   0.785   2.165   5.033 -0.6121 -0.2549  0.5931
 7293TIP3   OH243369   0.332   6.138  14.648 -0.3528 -0.4176  0.3043
 7293TIP3    H143370   0.270   6.212  14.647 -0.5084 -0.5561 -0.1838
 7293TIP3    H243371   0.298   6.077  14.583  0.2218 -0.5624  0.1347
 7294TIP3   OH243372   5.505   0.600   1.650 -0.4089  0.3270 -0.1549
 7294TIP3    H143373   5.546   0.687   1.648  0.4691 -0.0850 -0.8077
 7294TIP3    H243374   5.436   0.607   1.716 -1.2899  1.9294 -1.2055
 7295TIP3   OH243375   5.889   5.033   3.734  0.1848 -0.0580  0.0465
 7295TIP3    H143376   5.875   5.031   3.639  2.0034 -0.5806 -0.2351
 7295TIP3    H243377   5.980   5.059   3.744 -0.0786  0.2981  1.6764
 7296TIP3   OH243378   4.460   1.014   3.001 -0.3892  0.3304  0.3071
 7296TIP3    H143379   4.538   1.057   3.035  0.4617 -1.1635  0.3430
 7296TIP3    H243380   4.418   0.976   3.079 -0.9560  0.8064  0.2398
 7297TIP3   OH243381   4.493   1.266   5.490  0.1565  0.0558  0.2913
 7297TIP3    H143382   4.539   1.274   5.573 -2.6841  0.5066  1.9355
 7297TIP3    H243383   4.420   1.327   5.497 -2.0873 -2.2852 -1.1522
 7298TIP3   OH243384   4.657   1.962   4.949 -0.3295  0.0617  0.6578
 7298TIP3    H143385   4.578   2.015   4.950 -1.1741 -1.1460  2.5195
 7298TIP3    H243386   4.727   2.023   4.974 -1.0706  0.5761  1.5003
 7299TIP3   OH243387   4.560   0.371   3.450 -0.4099  0.1789  0.1289
 7299TIP3    H143388   4.594   0.407   3.532  0.2584  1.1536 -0.5631
 7299TIP3    H243389   4.479   0.326   3.476  0.7977 -1.2589  1.6422
 7300TIP3   OH243390   5.504   3.769  12.002  0.1787 -0.1189  0.6070
 7300TIP3    H143391   5.441   3.706  11.967 -0.1473  0.0466  0.8836
 7300TIP3    H243392   5.534   3.818  11.925  1.6157 -1.6289  0.1509
 7301TIP3   OH243393   1.556   3.552  13.102  0.3217  0.1263 -0.6381
 7301TIP3    H143394   1.541   3.627  13.044 -1.5062  1.0908  1.0116
 7301TIP3    H243395   1.632   3.578  13.155 -0.4133  0.9051  0.0500
 7302TIP3   OH243396   0.527   5.885  11.613 -0.4582 -0.0014 -0.2455
 7302TIP3    H143397   0.536   5.920  11.524 -1.8842 -1.1646 -0.8851
 7302TIP3    H243398   0.527   5.963  11.669 -0.8571  0.8384 -1.3805
 7303TIP3   OH243399   4.456   3.215  16.808  1.1064 -0.2082  0.2260
 7303TIP3    H143400   4.424   3.305  16.808  1.9266  0.0958  0.0777
 7303TIP3    H243401   4.514   3.211  16.732  0.2932 -1.1561 -0.3619
 7304TIP3   OH243402   6.502   0.337  14.038 -0.3772 -0.5409 -0.2898
 7304TIP3    H143403   6.443   0.364  13.967 -0.6947  0.4449  0.3351
 7304TIP3    H243404   6.478   0.246  14.056  0.2459 -1.0777 -1.9748
 7305TIP3   OH243405   2.216   1.456   1.509 -0.2414 -0.1000  0.0220
 7305TIP3    H143406   2.279   1.472   1.580 -0.9743 -0.5509  0.7878
 7305TIP3    H243407   2.184   1.543   1.486 -0.1049  0.0407  0.3524
 7306TIP3   OH243408   5.855   3.938  13.833 -0.0663  0.4483 -0.2936
 7306TIP3    H143409   5.800   4.015  13.838  0.6429  0.9274  0.3499
 7306TIP3    H243410   5.941   3.967  13.863 -0.1441 -0.9328  1.4491
 7307TIP3   OH243411   4.008   5.096   2.330 -0.1952 -0.1649 -0.0777
 7307TIP3    H143412   3.988   5.076   2.422  0.2390 -0.5021 -0.0542
 7307TIP3    H243413   4.054   5.018   2.298  0.0692  0.1411 -0.4509
 7308TIP3   OH243414   1.860   4.054  14.106  0.5830 -0.1466 -0.7503
 7308TIP3    H143415   1.895   4.071  14.194  0.0717  0.5638 -0.6737
 7308TIP3    H243416   1.918   3.987  14.070  0.8388 -0.4005  0.1047
 7309TIP3   OH243417   5.323   2.285  13.738 -0.4813 -0.1377  0.1947
 7309TIP3    H143418   5.264   2.212  13.758  0.2114 -0.5245  0.8874
 7309TIP3    H243419   5.289   2.359  13.788 -2.3933  0.6333 -2.0650
 7310TIP3   OH243420   3.356   6.325  15.686 -0.6026  0.1768 -0.5207
 7310TIP3    H143421   3.447   6.318  15.716 -0.2470 -1.2626 -1.8281
 7310TIP3    H243422   3.357   6.395  15.621  0.1507 -1.4332 -2.3537
 7311TIP3   OH243423   0.051   0.891  14.765  0.1971 -0.3210 -0.3825
 7311TIP3    H143424   0.096   0.835  14.703  1.3394  1.8166 -1.6241
 7311TIP3    H243425   0.088   0.869  14.850  0.1491 -1.8403 -0.7407
 7312TIP3   OH243426   5.915   1.347  10.173 -0.3005  0.3206  0.2177
 7312TIP3    H143427   5.882   1.430  10.138  0.0086 -0.0272 -0.9505
 7312TIP3    H243428   6.008   1.362  10.187 -0.6755  0.9198  2.3552
 7313TIP3   OH243429   5.296   2.153   3.655  0.4706  0.4228  0.6654
 7313TIP3    H143430   5.334   2.124   3.738 -1.8103  0.5374  1.8285
 7313TIP3    H243431   5.211   2.108   3.651 -0.2162  1.7593 -0.7640
 7314TIP3   OH243432   0.301   4.746   0.903 -0.3649  0.2067 -0.0600
 7314TIP3    H143433   0.303   4.655   0.873  0.1793 -0.7280  2.5680
 7314TIP3    H243434   0.226   4.784   0.857 -1.0389 -1.7613 -0.7137
 7315TIP3   OH243435   4.097   3.011   1.109  0.3403 -0.7485  0.0448
 7315TIP3    H143436   4.117   3.085   1.053 -1.1709 -0.0422  0.3990
 7315TIP3    H243437   4.156   2.942   1.080  0.2296 -0.1104 -1.7931
 7316TIP3   OH243438   3.401   5.152  11.856  0.7380 -0.0115  0.1632
 7316TIP3    H143439   3.440   5.190  11.935 -1.1220  0.1673  1.0616
 7316TIP3    H243440   3.463   5.086  11.828  2.1292  0.9052  0.9425
 7317TIP3   OH243441   4.668   3.990   3.640 -0.3621  0.1437  0.2503
 7317TIP3    H143442   4.703   4.024   3.723 -0.3005 -0.9382  0.6799
 7317TIP3    H243443   4.743   3.948   3.598 -0.3426  0.8721 -0.4691
 7318TIP3   OH243444   2.401   1.027   5.088  0.3646  0.0042  0.5605
 7318TIP3    H143445   2.390   0.991   5.177 -1.0327  0.7498  0.7198
 7318TIP3    H243446   2.373   1.118   5.095 -1.7246 -0.4434 -1.0483
 7319TIP3   OH243447   0.354   5.217  12.331  0.1367 -0.6178 -0.4192
 7319TIP3    H143448   0.320   5.184  12.414  1.0863 -1.4218 -0.3191
 7319TIP3    H243449   0.427   5.273  12.356 -0.2280 -0.0310 -0.6725
 7320TIP3   OH243450   3.577   4.389   1.330 -0.3685  0.6348  0.3681
 7320TIP3    H143451   3.671   4.381   1.350 -0.1642  1.0418 -0.3758
 7320TIP3    H243452   3.549   4.300   1.310  0.6557  0.8598 -2.6678
 7321TIP3   OH243453   5.344   5.046  14.261  0.3140 -0.3557 -0.8268
 7321TIP3    H143454   5.394   4.973  14.298  0.3298 -0.4948 -1.1164
 7321TIP3    H243455   5.303   5.088  14.336  0.9131 -0.2050 -0.5803
 7322TIP3   OH243456   6.313   3.322  15.086  0.1018 -0.2427  0.1753
 7322TIP3    H143457   6.258   3.253  15.123  0.5408 -0.3504  0.6469
 7322TIP3    H243458   6.296   3.398  15.141  1.8397 -0.7911  1.5711
 7323TIP3   OH243459   4.935   0.930  15.801 -0.0393 -0.0246  0.1114
 7323TIP3    H143460   4.882   0.997  15.846  2.6362  1.9736  0.5108
 7323TIP3    H243461   4.948   0.966  15.713  0.1134 -0.8045 -0.1843
 7324TIP3   OH243462   5.055   4.656   0.229 -0.5857 -0.3067  0.3340
 7324TIP3    H143463   5.062   4.696   0.142 -0.5902 -0.2225  0.3725
 7324TIP3    H243464   5.125   4.591   0.231 -0.5053 -0.2222  0.3132
 7325TIP3   OH243465   4.858   5.609   4.968  0.5870  0.2112  0.4063
 7325TIP3    H143466   4.783   5.572   4.923  1.1535  1.5241 -1.7244
 7325TIP3    H243467   4.823   5.640   5.052 -0.6366 -1.6608  0.6476
 7326TIP3   OH243468   4.069   5.813   3.744  0.4984  0.1938 -0.1458
 7326TIP3    H143469   4.101   5.835   3.657 -2.2642  1.8135 -0.8585
 7326TIP3    H243470   3.980   5.781   3.729  0.5384 -1.0864  1.9653
 7327TIP3   OH243471   0.959   3.419   5.640  0.0358 -1.6243  0.4035
 7327TIP3    H143472   0.959   3.399   5.546 -0.3084 -0.2505  0.0880
 7327TIP3    H243473   1.044   3.388   5.670  0.5183 -1.3061 -0.5567
 7328TIP3   OH243474   3.958   1.302  11.569  0.5596  0.1739  0.1455
 7328TIP3    H143475   3.899   1.369  11.533  0.1732 -0.5343 -0.5985
 7328TIP3    H243476   4.032   1.351  11.603  0.5817  0.9563 -0.9453
 7329TIP3   OH243477   3.895   4.693   5.498 -0.3582 -0.3206  0.0610
 7329TIP3    H143478   3.954   4.707   5.572 -0.3129  1.8841 -0.3332
 7329TIP3    H243479   3.809   4.722   5.530 -0.7829 -1.3684 -0.0959
 7330TIP3   OH243480   4.783   6.462  12.288  0.4735  0.2824 -0.2834
 7330TIP3    H143481   4.766   6.519  12.214 -2.2096 -0.1984 -0.1269
 7330TIP3    H243482   4.736   6.381  12.268  1.8309 -0.8402  0.7954
 7331TIP3   OH243483   4.007   4.867   5.320  0.0274  0.0132  0.0130
 7331TIP3    H143484   4.092   4.861   5.364  0.4817  1.6164 -0.5985
 7331TIP3    H243485   3.943   4.856   5.391  0.6930 -1.8885  0.3881
 7332TIP3   OH243486   6.093   0.263  12.478 -0.6538 -0.0610  0.7876
 7332TIP3    H143487   6.178   0.230  12.509  0.3397  1.2714 -0.3995
 7332TIP3    H243488   6.048   0.293  12.557 -0.1926 -1.1222  1.4749
 7333TIP3   OH243489   3.146   3.786   5.733  0.0487  0.0589  0.1846
 7333TIP3    H143490   3.133   3.880   5.731 -0.9702  0.0614  2.5144
 7333TIP3    H243491   3.165   3.767   5.825 -0.6709 -2.0815 -0.0504
 7334TIP3   OH243492   5.425   5.545  14.001 -0.5798  0.5199  0.6283
 7334TIP3    H143493   5.455   5.623  13.954 -0.5440 -0.3084 -0.7771
 7334TIP3    H243494   5.442   5.473  13.941  0.4251 -0.7313  2.3269
 7335TIP3   OH243495   1.765   3.733   4.659 -0.0372  0.1407 -0.7271
 7335TIP3    H143496   1.737   3.710   4.570  0.6812  1.4901 -1.3219
 7335TIP3    H243497   1.757   3.828   4.663  0.2732  0.1257  0.5468
 7336TIP3   OH243498   3.625   5.799  16.776  0.2401  0.1140 -0.1412
 7336TIP3    H143499   3.630   5.813  16.681  1.1561  0.1278 -0.1041
 7336TIP3    H243500   3.562   5.728  16.787 -1.3665  1.3880 -0.6208
 7337TIP3   OH243501   4.647   1.502   0.987 -0.1891 -0.0303 -0.0115
 7337TIP3    H143502   4.661   1.412   1.015  0.8131  0.5311  1.4367
 7337TIP3    H243503   4.580   1.497   0.919  1.1321 -2.0555 -1.2833
 7338TIP3   OH243504   2.284   3.521   2.556  0.3820  0.0257  0.2753
 7338TIP3    H143505   2.247   3.520   2.644 -1.2893 -0.9055 -0.3945
 7338TIP3    H243506   2.304   3.613   2.540 -0.5851  0.4121  1.1177
 7339TIP3   OH243507   5.680   0.543   3.634  0.2974  0.1959  0.1240
 7339TIP3    H143508   5.737   0.551   3.557 -0.3268  2.0637 -0.1871
 7339TIP3    H243509   5.599   0.506   3.600  0.5162 -0.3208  0.1543
 7340TIP3   OH243510   1.155   1.186   0.498 -0.2957  0.4755  0.0860
 7340TIP3    H143511   1.108   1.251   0.551  3.2261  2.6268  0.9271
 7340TIP3    H243512   1.135   1.209   0.408 -2.0048  0.3183  0.3949
 7341TIP3   OH243513   1.330   6.003  12.366 -0.1579 -0.4471 -0.1826
 7341TIP3    H143514   1.246   6.036  12.398  0.0628 -0.5001  0.4651
 7341TIP3    H243515   1.308   5.944  12.295 -0.7612 -1.6173  0.9545
 7342TIP3   OH243516   4.943   4.662  16.459  0.6203  0.1449 -0.4462
 7342TIP3    H143517   4.848   4.670  16.449  0.3914 -0.5187  0.9418
 7342TIP3    H243518   4.973   4.752  16.469 -0.3605  0.2709  2.6272
 7343TIP3   OH243519   5.997   3.988  12.553  0.6354 -0.1512  1.0360
 7343TIP3    H143520   6.092   3.997  12.548  0.5884  0.1542  0.7025
 7343TIP3    H243521   5.972   3.951  12.469  0.4410 -0.0824  1.0622
 7344TIP3   OH243522   3.409   0.708  13.033  0.8903  0.2284 -0.1831
 7344TIP3    H143523   3.447   0.626  13.066 -0.4948  0.0374  1.0525
 7344TIP3    H243524   3.468   0.735  12.963  2.6300 -0.6537  0.8604
 7345TIP3   OH243525   4.945   2.615  13.706  0.0946  0.4973 -0.4738
 7345TIP3    H143526   4.889   2.688  13.680 -1.7883  0.4463  2.8375
 7345TIP3    H243527   4.917   2.542  13.650  0.0402  1.5596 -1.8921
 7346TIP3   OH243528   2.796   2.490  11.346 -0.0329  0.0552 -0.6046
 7346TIP3    H143529   2.769   2.432  11.418  0.3284 -0.1816 -0.6540
 7346TIP3    H243530   2.715   2.512  11.301 -0.3411  0.7167  0.2572
 7347TIP3   OH243531   4.753   6.293  11.477  0.4210 -0.2254  0.7861
 7347TIP3    H143532   4.762   6.388  11.484  2.2019 -0.1812 -1.1617
 7347TIP3    H243533   4.686   6.280  11.410  0.9127 -0.3090  0.3033
 7348TIP3   OH243534   5.208   1.706  11.030  0.6174 -0.4260  0.1613
 7348TIP3    H143535   5.131   1.687  10.978  1.3216  2.1711 -2.0875
 7348TIP3    H243536   5.177   1.703  11.121 -2.2417  0.8328 -0.6539
 7349TIP3   OH243537   6.558   2.463  10.654  0.0064  0.7161 -0.4054
 7349TIP3    H143538   6.473   2.503  10.675 -0.9233 -1.4104  0.1212
 7349TIP3    H243539   6.553   2.374  10.689  1.7740 -0.0791 -1.9402
 7350TIP3   OH243540   2.846   1.075   0.917 -0.3711  0.0624  0.2453
 7350TIP3    H143541   2.873   1.129   0.843 -1.3418  0.8699  0.4600
 7350TIP3    H243542   2.798   1.001   0.878  1.9700 -1.3586 -0.1366
 7351TIP3   OH243543   3.053   4.983  16.401  0.5395  0.2043 -0.2007
 7351TIP3    H143544   3.057   5.078  16.395  1.7769  0.0803 -1.8909
 7351TIP3    H243545   3.058   4.965  16.495 -0.0916  1.7982  0.1768
 7352TIP3   OH243546   4.038   2.180  12.413 -0.1878  0.1099  0.1451
 7352TIP3    H143547   4.042   2.265  12.369 -0.5264  0.6342  1.1105
 7352TIP3    H243548   3.972   2.191  12.482 -0.1909 -0.9166  0.3268
 7353TIP3   OH243549   3.285   6.708  16.859 -0.3237  0.3035 -0.2533
 7353TIP3    H143550   3.338   6.642  16.816  0.5833  0.1918  0.9778
 7353TIP3    H243551   3.323   6.792  16.832 -0.4541  0.2763 -0.5278
 7354TIP3   OH243552   3.439   5.023  12.237 -0.2665  0.3557 -0.0650
 7354TIP3    H143553   3.446   5.083  12.163 -0.4643  2.6531  1.6586
 7354TIP3    H243554   3.475   5.072  12.311 -4.0275  0.0129  2.2878
 7355TIP3   OH243555   0.006   3.416  15.602  0.6342 -0.5132 -0.0817
 7355TIP3    H143556   0.039   3.329  15.624 -1.0418 -1.0648  0.3388
 7355TIP3    H243557   0.085   3.467  15.581  1.8000 -1.5903  1.5032
 7356TIP3   OH243558   6.745   3.810  17.104  0.1177 -0.5611  0.5346
 7356TIP3    H143559   6.658   3.773  17.093 -0.0236 -0.0096 -0.2919
 7356TIP3    H243560   6.792   3.745  17.157 -0.8855 -0.7066  1.2850
 7357TIP3   OH243561   2.116   5.067   2.544 -0.3997  0.2542  0.1665
 7357TIP3    H143562   2.085   4.998   2.602 -0.5787 -1.3682 -1.7348
 7357TIP3    H243563   2.098   5.034   2.456 -0.7196  2.8641 -0.8400
 7358TIP3   OH243564   2.028   0.810   5.184 -0.2131  0.6691 -0.0757
 7358TIP3    H143565   1.979   0.750   5.239 -1.4737 -0.0198 -1.8420
 7358TIP3    H243566   2.117   0.811   5.220 -0.0712 -2.4576 -0.1246
 7359TIP3   OH243567   0.468   1.405   1.247  0.0534  0.1089 -0.0661
 7359TIP3    H143568   0.417   1.480   1.278  0.9806  1.3645 -1.4234
 7359TIP3    H243569   0.473   1.418   1.152 -0.6144 -2.2391 -0.4765
 7360TIP3   OH243570   0.319   1.199  10.398 -0.6855  0.8150  0.0145
 7360TIP3    H143571   0.226   1.183  10.383 -0.4587  0.4636 -1.0696
 7360TIP3    H243572   0.364   1.126  10.355  0.0827  0.7209  0.9259
 7361TIP3   OH243573   0.309   0.461   1.539  0.4599 -0.1522 -0.4281
 7361TIP3    H143574   0.347   0.377   1.514 -0.2397 -1.1118  1.4597
 7361TIP3    H243575   0.214   0.446   1.537  0.2164  1.3520 -2.3871
 7362TIP3   OH243576   4.862   5.696  11.135  0.0354  0.7489 -0.6267
 7362TIP3    H143577   4.817   5.640  11.072  1.4220 -1.2819  0.0868
 7362TIP3    H243578   4.942   5.723  11.090 -0.2605  1.5785 -0.6821
 7363TIP3   OH243579   3.935   4.963   3.808  0.3390 -0.6570 -0.0019
 7363TIP3    H143580   3.933   5.019   3.731  1.5632  0.0853  0.4764
 7363TIP3    H243581   4.020   4.919   3.804  0.5759 -0.3380  1.0862
 7364TIP3   OH243582   3.683   4.747  15.379 -0.0906 -0.4050  0.0602
 7364TIP3    H143583   3.597   4.728  15.415  0.3153 -0.1937  1.1903
 7364TIP3    H243584   3.743   4.735  15.453  0.6774  0.9719 -0.3035
 7365TIP3   OH243585   1.562   3.514   4.547 -0.0255  0.2247 -0.0719
 7365TIP3    H143586   1.555   3.478   4.458  1.6565  0.7830 -0.4626
 7365TIP3    H243587   1.522   3.601   4.540 -1.9324 -0.5756  0.2989
 7366TIP3   OH243588   0.191   4.402   4.251  0.1988 -0.8298 -0.0946
 7366TIP3    H143589   0.236   4.408   4.335 -1.6202  1.6403  0.8162
 7366TIP3    H243590   0.154   4.314   4.250  2.3000 -1.7874  0.5167
 7367TIP3   OH243591   2.926   2.458  16.836 -0.0393 -0.4634 -0.6906
 7367TIP3    H143592   2.859   2.480  16.900 -0.3277 -0.7858 -0.8758
 7367TIP3    H243593   2.941   2.539  16.788  1.5748  0.3259  1.0238
 7368TIP3   OH243594   5.703   0.346  14.719  0.8255  0.6269 -0.7324
 7368TIP3    H143595   5.674   0.381  14.803 -1.0771 -2.2301 -0.0328
 7368TIP3    H243596   5.708   0.422  14.661  1.1510  2.5329  1.6667
 7369TIP3   OH243597   3.447   4.147  15.262 -0.3359  0.1970  0.6450
 7369TIP3    H143598   3.539   4.160  15.284  0.2172 -0.8423 -0.8939
 7369TIP3    H243599   3.447   4.126  15.169 -2.2169  0.9836  0.4225
 7370TIP3   OH243600   4.055   0.367   4.524 -0.6202 -0.4511  0.3898
 7370TIP3    H143601   3.981   0.317   4.488  0.4254 -1.5584 -0.3131
 7370TIP3    H243602   4.078   0.320   4.604  0.9060 -1.6769 -0.7098
 7371TIP3   OH243603   3.717   4.330  15.566 -0.1156 -0.2767  0.4486
 7371TIP3    H143604   3.722   4.263  15.498  0.2251 -0.2239  0.4211
 7371TIP3    H243605   3.769   4.403  15.533  0.2075 -0.3218  0.8436
 7372TIP3   OH243606   1.126   4.824  17.108 -0.1499  0.0718  0.0204
 7372TIP3    H143607   1.094   4.742  17.072 -1.3792  0.2403  0.6928
 7372TIP3    H243608   1.111   4.817  17.202  0.1682  0.8746  0.1428
 7373TIP3   OH243609   5.100   1.122   2.421 -0.4463  0.0384  0.2442
 7373TIP3    H143610   5.130   1.056   2.484 -0.9900 -0.5665 -0.1247
 7373TIP3    H243611   5.171   1.187   2.419 -1.0479  0.8704  2.5864
 7374TIP3   OH243612   5.836   0.774   4.571  0.5972  0.1722  0.1081
 7374TIP3    H143613   5.808   0.694   4.617  1.4844  0.6759  1.5854
 7374TIP3    H243614   5.762   0.833   4.578  1.6002  1.2369  3.3657
 7375TIP3   OH243615   3.801   5.026  11.411 -0.0857  0.1296 -0.6925
 7375TIP3    H143616   3.863   5.097  11.397  0.9081  0.1728  3.0801
 7375TIP3    H243617   3.718   5.070  11.430 -0.1643  0.1771 -1.1296
 7376TIP3   OH243618   0.893   6.447   1.864  0.0657  0.0386  0.1676
 7376TIP3    H143619   0.862   6.522   1.914  0.2154  0.5686 -0.5239
 7376TIP3    H243620   0.845   6.373   1.900 -0.7511  0.5982  0.2488
 7377TIP3   OH243621   4.208   6.591   1.552  0.0992  0.0242  0.0849
 7377TIP3    H143622   4.205   6.549   1.638  0.6568 -1.5322 -0.6136
 7377TIP3    H243623   4.132   6.556   1.505  2.5624 -3.3554 -1.8051
 7378TIP3   OH243624   1.947   2.147  13.755  0.1461  0.2536  0.5172
 7378TIP3    H143625   1.905   2.195  13.684  1.7448  2.5317  1.0107
 7378TIP3    H243626   1.951   2.057  13.724 -0.4013  0.9384 -1.6900
 7379TIP3   OH243627   0.499   0.624  11.258 -0.5278 -0.1083 -0.0431
 7379TIP3    H143628   0.583   0.668  11.269 -0.4347 -0.3898  0.3963
 7379TIP3    H243629   0.435   0.695  11.255 -0.2185  0.1449 -1.0507
 7380TIP3   OH243630   5.371   1.780   2.444 -0.2447  0.2908 -0.1135
 7380TIP3    H143631   5.359   1.784   2.349 -1.5286 -2.4847 -0.1478
 7380TIP3    H243632   5.289   1.813   2.481 -0.1058  0.4931  0.0166
 7381TIP3   OH243633   1.914   5.449  12.863 -0.5219 -0.2255  0.1916
 7381TIP3    H143634   1.876   5.361  12.861  1.3508 -1.1548  1.7790
 7381TIP3    H243635   1.849   5.503  12.907 -1.4667 -0.9200 -0.3100
 7382TIP3   OH243636   1.353   4.411   3.284  0.3091  0.4625  0.5133
 7382TIP3    H143637   1.426   4.381   3.339 -0.3896 -1.6053  0.4258
 7382TIP3    H243638   1.279   4.357   3.313 -0.3596  0.1469 -1.6449
 7383TIP3   OH243639   0.604   2.132  13.429  0.2710 -0.0466  0.3105
 7383TIP3    H143640   0.578   2.167  13.514 -0.6153 -2.6007  1.2113
 7383TIP3    H243641   0.521   2.109  13.386  0.7122  0.9504 -1.1683
 7384TIP3   OH243642   2.546   5.204  14.265  0.0800  0.1921 -0.0072
 7384TIP3    H143643   2.462   5.187  14.307 -0.5855  0.8297 -1.0589
 7384TIP3    H243644   2.595   5.256  14.330 -0.2772 -0.2674  0.6462
 7385TIP3   OH243645   2.078   4.675   1.258 -0.6326  0.3026  0.4518
 7385TIP3    H143646   2.118   4.651   1.174 -2.8013 -1.6792 -0.1145
 7385TIP3    H243647   2.142   4.645   1.323 -0.6137 -1.7769 -0.4388
 7386TIP3   OH243648   6.793   1.313  10.726  0.0822 -0.4033  0.2057
 7386TIP3    H143649   6.818   1.226  10.693 -0.0767 -0.6366  0.6861
 7386TIP3    H243650   6.745   1.353  10.654  2.1203  0.2049 -0.8939
 7387TIP3   OH243651   5.656   6.413  12.576 -0.0567  0.4175  0.2376
 7387TIP3    H143652   5.583   6.473  12.560  0.2170  0.5643 -0.4855
 7387TIP3    H243653   5.735   6.464  12.557  0.2565  0.3287  1.2261
 7388TIP3   OH243654   4.288   2.947   6.732  0.2684  0.1145  0.7411
 7388TIP3    H143655   4.244   2.865   6.755 -0.7494  0.4261 -0.0579
 7388TIP3    H243656   4.268   2.960   6.640 -0.2984  1.7173  1.0694
 7389TIP3   OH243657   5.487   3.244  13.253 -0.6934  0.5727 -0.1605
 7389TIP3    H143658   5.397   3.211  13.255 -0.4642 -0.0657 -0.0355
 7389TIP3    H243659   5.482   3.329  13.297 -1.5196  1.3207 -1.6273
 7390TIP3   OH243660   4.557   6.559   0.870 -0.2931  0.2667  0.0463
 7390TIP3    H143661   4.583   6.525   0.956  1.4186  0.6024 -0.3024
 7390TIP3    H243662   4.466   6.587   0.882 -0.0944  0.2994  1.7508
 7391TIP3   OH243663   2.963   0.172  13.510 -0.5231  0.9539  0.0346
 7391TIP3    H143664   2.932   0.126  13.588 -1.2696 -0.9937 -1.3249
 7391TIP3    H243665   2.995   0.102  13.453  0.4486  2.3774 -1.2152
 7392TIP3   OH243666   6.032   3.190   2.905  0.0435  0.1350 -0.1803
 7392TIP3    H143667   6.003   3.231   2.823 -0.4516  2.0662  0.9066
 7392TIP3    H243668   5.965   3.125   2.924 -1.2226  1.4413 -0.0309
 7393TIP3   OH243669   5.970   4.898  14.711  0.4953 -0.3455 -0.3231
 7393TIP3    H143670   6.000   4.959  14.779  0.2196 -1.8008  1.1745
 7393TIP3    H243671   6.005   4.813  14.738 -0.4929 -1.1379 -1.4415
 7394TIP3   OH243672   1.753   6.674   1.889  0.3454  0.1712  0.6369
 7394TIP3    H143673   1.832   6.623   1.876  1.2763  0.6312  3.6675
 7394TIP3    H243674   1.772   6.759   1.850 -0.0646 -0.7396 -1.7110
 7395TIP3   OH243675   2.363   1.319   1.309  0.7632 -0.0663  0.2323
 7395TIP3    H143676   2.309   1.356   1.379  1.3646  0.8366  0.2316
 7395TIP3    H243677   2.446   1.297   1.352  1.2505  0.7865 -0.2455
 7396TIP3   OH243678   3.872   4.084  16.503  0.5382 -0.2742  0.4690
 7396TIP3    H143679   3.898   4.011  16.559  1.7042 -1.3987 -1.4495
 7396TIP3    H243680   3.857   4.157  16.564  1.9599 -1.3663  2.2138
 7397TIP3   OH243681   2.249   0.421  14.707  0.0355 -0.2526  0.0354
 7397TIP3    H143682   2.244   0.326  14.697  1.1507 -0.2737 -0.5616
 7397TIP3    H243683   2.160   0.452  14.692 -0.6173 -1.2989  1.5253
 7398TIP3   OH243684   4.256   4.493   3.634  0.1212 -0.2519 -0.0655
 7398TIP3    H143685   4.314   4.568   3.620  0.1284  0.1424  1.7968
 7398TIP3    H243686   4.177   4.530   3.673 -0.1378 -1.1375  0.2814
 7399TIP3   OH243687   2.425   1.598  12.473 -0.3961  0.2459 -0.7078
 7399TIP3    H143688   2.425   1.606  12.377 -2.1128  0.8762 -0.6712
 7399TIP3    H243689   2.340   1.561  12.494  0.1728 -0.3791  0.5564
 7400TIP3   OH243690   4.815   3.376   0.184 -0.0418 -0.3015  0.0926
 7400TIP3    H143691   4.799   3.470   0.190 -1.2928 -0.5222  0.4298
 7400TIP3    H243692   4.793   3.354   0.093  0.2608 -0.2834  0.0107
 7401TIP3   OH243693   5.258   0.582  14.115 -0.3633  0.2948  0.1088
 7401TIP3    H143694   5.217   0.579  14.029  1.2310 -0.8775 -0.6776
 7401TIP3    H243695   5.230   0.501  14.158  1.3984 -0.7789 -0.6352
 7402TIP3   OH243696   6.484   5.983   0.872  0.0131 -0.8075  0.7310
 7402TIP3    H143697   6.547   5.957   0.939  1.3120 -2.6610 -1.0948
 7402TIP3    H243698   6.485   5.911   0.809 -2.4412  0.0640 -0.4284
 7403TIP3   OH243699   3.680   5.258  16.272  0.6004  0.9332  0.5762
 7403TIP3    H143700   3.633   5.242  16.353 -0.0523  1.2233  0.2623
 7403TIP3    H243701   3.634   5.206  16.206  1.8810 -0.3020  0.6057
 7404TIP3   OH243702   3.812   3.596   3.496 -0.5024 -0.1769 -0.5443
 7404TIP3    H143703   3.846   3.645   3.570  4.0126 -1.1503 -1.6772
 7404TIP3    H243704   3.779   3.514   3.534 -1.0021  0.5309  0.6021
 7405TIP3   OH243705   6.131   3.581  16.931 -0.4726 -0.0740 -0.0581
 7405TIP3    H143706   6.129   3.520  17.005  1.6602  1.6261  1.5257
 7405TIP3    H243707   6.128   3.668  16.972  1.0091  0.9202 -1.9400
 7406TIP3   OH243708   0.900   1.433  11.178  0.1043  0.2294 -0.2158
 7406TIP3    H143709   0.848   1.429  11.098  1.6059 -0.8813 -1.1732
 7406TIP3    H243710   0.988   1.409  11.152  1.3781  2.8813  1.2029
 7407TIP3   OH243711   4.855   1.557  14.195  0.3909 -0.0350 -0.6818
 7407TIP3    H143712   4.898   1.639  14.171 -1.2791  0.7232 -1.1624
 7407TIP3    H243713   4.785   1.546  14.130  1.4964 -2.6388 -1.5822
 7408TIP3   OH243714   0.079   2.705   0.873  0.1716  0.4272  0.3043
 7408TIP3    H143715   0.096   2.639   0.806  0.3633  0.3710  0.4062
 7408TIP3    H243716   0.151   2.766   0.866  0.2223  0.3908  0.4944
 7409TIP3   OH243717   2.242   0.450  12.687 -0.3503  0.7141 -0.4636
 7409TIP3    H143718   2.251   0.434  12.781  1.1730  1.1240 -0.5144
 7409TIP3    H243719   2.232   0.363  12.648 -0.3340  0.4984  0.0150
 7410TIP3   OH243720   0.967   2.760  15.274 -0.8085  0.8100  0.1591
 7410TIP3    H143721   0.915   2.680  15.264 -0.2698  0.5177 -0.3783
 7410TIP3    H243722   0.921   2.810  15.341 -0.5689 -0.4295  1.2835
 7411TIP3   OH243723   1.274   1.706   0.425 -0.3644  0.3214  1.0658
 7411TIP3    H143724   1.296   1.624   0.469 -0.6579 -0.8020 -0.7718
 7411TIP3    H243725   1.222   1.679   0.349  0.7115  2.0857 -0.3844
 7412TIP3   OH243726   2.363   5.505  11.771 -0.4302 -0.5978 -0.4009
 7412TIP3    H143727   2.339   5.533  11.683  0.9633  0.0433 -0.5959
 7412TIP3    H243728   2.456   5.526  11.779 -0.5912 -0.3893  1.3198
 7413TIP3   OH243729   1.029   4.920  15.356  0.0702 -0.4657 -0.6593
 7413TIP3    H143730   0.992   4.832  15.353 -1.9688  0.3639 -2.8640
 7413TIP3    H243731   1.051   4.940  15.264 -0.5059  1.7009 -0.3730
 7414TIP3   OH243732   3.364   1.863  13.772 -0.4748 -0.1268 -0.1972
 7414TIP3    H143733   3.311   1.888  13.848 -2.1381  2.1297 -1.9510
 7414TIP3    H243734   3.453   1.889  13.796 -1.0134  0.8514  0.8737
 7415TIP3   OH243735   4.327   0.049   0.998 -0.3027  0.7339  0.0103
 7415TIP3    H143736   4.316  -0.043   1.022  2.2752 -0.1159 -1.6804
 7415TIP3    H243737   4.296   0.098   1.074 -2.4164 -1.4553  0.6941
 7416TIP3   OH243738   3.676   2.070   0.851 -0.3182 -0.0365  0.2604
 7416TIP3    H143739   3.587   2.065   0.817  0.2145 -1.5883 -1.0289
 7416TIP3    H243740   3.699   2.163   0.846 -1.3182  0.1629 -0.8644
 7417TIP3   OH243741   1.917   4.095  14.355  0.1644 -0.6290 -0.3369
 7417TIP3    H143742   1.975   4.089  14.431  0.4012 -0.4846 -0.5066
 7417TIP3    H243743   1.830   4.074  14.390  0.3726 -1.2238 -0.1532
 7418TIP3   OH243744   4.443   3.510  13.983  0.4391  0.1183  0.0121
 7418TIP3    H143745   4.425   3.417  13.995 -0.3239  0.3385  0.6030
 7418TIP3    H243746   4.505   3.512  13.910  2.3735 -1.0208  1.4974
 7419TIP3   OH243747   6.222   1.331   4.808 -0.0125 -0.2906  0.0943
 7419TIP3    H143748   6.250   1.344   4.718  0.7967  0.7513  0.4646
 7419TIP3    H243749   6.292   1.281   4.849 -0.7929 -1.5393 -0.0616
 7420TIP3   OH243750   3.977   4.526   4.963 -0.1029 -0.2387 -0.6865
 7420TIP3    H143751   3.956   4.546   5.055  0.9596  2.2449 -0.8876
 7420TIP3    H243752   4.052   4.467   4.968  2.6110  2.9430  0.2510
 7421TIP3   OH243753   1.088   1.057  12.601  0.2747  0.3420  0.2177
 7421TIP3    H143754   1.095   1.037  12.508 -0.0690  0.9904  0.0474
 7421TIP3    H243755   1.034   0.987  12.637 -1.7685  1.4524 -0.5497
 7422TIP3   OH243756   2.450   4.482   0.214  0.4182 -0.0718 -0.1392
 7422TIP3    H143757   2.525   4.460   0.270 -0.9527 -2.0146  1.0322
 7422TIP3    H243758   2.375   4.481   0.273 -0.9501 -1.1061 -1.8161
 7423TIP3   OH243759   5.553   1.096  10.674 -0.2996 -0.4229  0.2060
 7423TIP3    H143760   5.534   1.013  10.717 -2.3521  0.9413  2.1911
 7423TIP3    H243761   5.503   1.092  10.592 -0.3088 -1.1894  0.2413
 7424TIP3   OH243762   3.349   6.270  14.223 -0.2502  0.3779  0.1912
 7424TIP3    H143763   3.443   6.285  14.233  0.1316 -1.4293 -0.2788
 7424TIP3    H243764   3.317   6.348  14.177  0.3155  2.6597  3.3672
 7425TIP3   OH243765   2.474   0.808  16.788 -0.3629  0.2602  0.0903
 7425TIP3    H143766   2.570   0.803  16.786 -0.3423  0.2568 -1.9292
 7425TIP3    H243767   2.447   0.723  16.820  0.3570 -1.5715 -3.5415
 7426TIP3   OH243768   2.179   5.721  11.583  0.2058 -0.0484 -0.2670
 7426TIP3    H143769   2.265   5.746  11.617  1.2061 -0.6578 -2.2315
 7426TIP3    H243770   2.118   5.776  11.631  1.6960  0.5651  1.0224
 7427TIP3   OH243771   3.864   4.368  11.962 -0.5791  0.1920 -0.4062
 7427TIP3    H143772   3.892   4.379  11.872 -0.9976  0.5737 -0.4958
 7427TIP3    H243773   3.944   4.349  12.011  0.0546  2.4148 -0.4595
 7428TIP3   OH243774   1.079   1.401   1.076  0.2540 -0.0097 -0.6366
 7428TIP3    H143775   1.062   1.322   1.025  0.9442  1.0079 -2.5351
 7428TIP3    H243776   1.047   1.473   1.021 -0.8058  1.0293  1.2464
 7429TIP3   OH243777   2.249   3.235  11.382 -0.3742  0.3104 -0.1092
 7429TIP3    H143778   2.233   3.303  11.447  1.1478 -0.8247  1.5415
 7429TIP3    H243779   2.313   3.273  11.322 -0.1420  0.6032  0.3213
 7430TIP3   OH243780   1.206   0.807  16.154  0.1184  0.0724  0.0707
 7430TIP3    H143781   1.121   0.768  16.170  0.2641 -1.4221 -2.2819
 7430TIP3    H243782   1.186   0.892  16.114 -0.2474  0.1458  0.4020
 7431TIP3   OH243783   3.806   0.257   5.083  0.3146  0.6156  0.2122
 7431TIP3    H143784   3.805   0.185   5.021  0.0754  0.3262  0.5521
 7431TIP3    H243785   3.715   0.285   5.088  0.6602  2.2666 -1.4460
 7432TIP3   OH243786   0.622   1.947  12.751 -0.5696 -0.0622  0.0532
 7432TIP3    H143787   0.591   2.004  12.822 -1.4538 -2.4983  1.7350
 7432TIP3    H243788   0.547   1.938  12.692 -0.6093  0.0606  0.0848
 7433TIP3   OH243789   0.249   1.593  12.579  0.3407 -0.0405  0.0364
 7433TIP3    H143790   0.223   1.652  12.508 -0.8138 -0.4191  0.1084
 7433TIP3    H243791   0.331   1.554  12.550  0.0897  0.1188 -0.9050
 7434TIP3   OH243792   4.059   2.859   2.841 -0.1554  0.2023 -0.6243
 7434TIP3    H143793   3.971   2.893   2.820  0.1843  1.1861 -0.5239
 7434TIP3    H243794   4.068   2.874   2.935 -0.3104 -0.9451 -0.4200
 7435TIP3   OH243795   3.840   0.217   4.353  0.7296  0.3244  0.4341
 7435TIP3    H143796   3.781   0.272   4.404 -0.3442  0.0529 -0.4715
 7435TIP3    H243797   3.863   0.270   4.276  1.2429  0.2256  0.5153
 7436TIP3   OH243798   5.198   2.299   1.301  0.4295  0.0578  0.2554
 7436TIP3    H143799   5.220   2.289   1.393  0.4015  0.6289  0.3320
 7436TIP3    H243800   5.135   2.230   1.283  0.4054 -0.0296  0.6769
 7437TIP3   OH243801   5.795   5.312  13.243 -0.3185 -0.4092 -0.2737
 7437TIP3    H143802   5.845   5.346  13.317  0.2410 -0.9054 -0.4264
 7437TIP3    H243803   5.839   5.347  13.166  1.2187 -2.7019 -0.5059
 7438TIP3   OH243804   2.270   1.359  13.935 -0.1052 -0.1536  0.0657
 7438TIP3    H143805   2.250   1.369  14.028  2.1992 -0.1907  0.6314
 7438TIP3    H243806   2.240   1.271  13.913  0.5195 -0.6414  1.1280
 7439TIP3   OH243807   5.126   0.005  14.139  0.2024 -0.2446 -0.5458
 7439TIP3    H143808   5.082  -0.071  14.175 -1.6457 -0.2965 -2.7010
 7439TIP3    H243809   5.113   0.074  14.204 -1.0528 -0.8876 -0.0998
 7440TIP3   OH243810   5.775   5.757  15.897 -0.6913 -0.4354 -0.3330
 7440TIP3    H143811   5.722   5.682  15.871 -0.7620 -0.6875  0.5064
 7440TIP3    H243812   5.752   5.826  15.834 -0.0579 -1.3319 -1.5870
 7441TIP3   OH243813   2.467   3.324   0.125 -0.3636 -0.0754 -0.1542
 7441TIP3    H143814   2.561   3.338   0.136  0.0407 -1.9294 -0.9285
 7441TIP3    H243815   2.460   3.258   0.057 -2.2161 -0.4465  0.3322
 7442TIP3   OH243816   5.210   5.709  11.408  0.1719  0.4893 -0.9385
 7442TIP3    H143817   5.177   5.770  11.343 -2.5269  0.9671  0.7170
 7442TIP3    H243818   5.153   5.633  11.402 -0.4748  0.7496  1.1248
 7443TIP3   OH243819   2.012   3.365   3.077 -0.1395 -0.0440 -0.2871
 7443TIP3    H143820   1.942   3.342   3.138  0.0518  0.4160  0.1182
 7443TIP3    H243821   2.024   3.288   3.022 -1.1252 -0.0436 -0.5110
 7444TIP3   OH243822   4.901   1.010  10.868 -0.0051  1.3413 -0.4156
 7444TIP3    H143823   4.962   1.074  10.903  0.2803  1.0394 -0.3544
 7444TIP3    H243824   4.824   1.015  10.925  0.7067  0.3948  0.6725
 7445TIP3   OH243825   2.626   3.702  12.739 -0.2717  0.1714  0.4000
 7445TIP3    H143826   2.717   3.730  12.742  0.6624 -2.5537  0.7846
 7445TIP3    H243827   2.591   3.724  12.825  0.3607  0.2493  0.6419
 7446TIP3   OH243828   6.527   2.658  12.854  0.0162  0.1201 -0.4418
 7446TIP3    H143829   6.446   2.611  12.835  0.2278 -1.0875  1.3299
 7446TIP3    H243830   6.581   2.645  12.777 -1.2461  0.4752 -1.4222
 7447TIP3   OH243831   2.538   1.278   5.494  0.1863 -0.2153 -0.1537
 7447TIP3    H143832   2.561   1.245   5.581  0.4643  0.3991  0.0141
 7447TIP3    H243833   2.522   1.200   5.442  0.0570 -0.5943  0.4409
 7448TIP3   OH243834   0.524   1.722   1.412  0.0730  0.0639 -0.1192
 7448TIP3    H143835   0.603   1.703   1.462 -0.2927 -1.1120  0.0557
 7448TIP3    H243836   0.479   1.789   1.463  1.5645  1.7219 -0.8970
 7449TIP3   OH243837   5.849   0.036   4.940  0.1358  0.2056  0.4329
 7449TIP3    H143838   5.758   0.039   4.910 -0.1888 -3.4213  0.6083
 7449TIP3    H243839   5.900   0.070   4.867 -1.1773 -0.8979 -1.0647
 7450TIP3   OH243840   5.311   1.925   3.170 -0.4891  0.0222 -0.3873
 7450TIP3    H143841   5.255   1.989   3.126  0.7225  1.4416  0.0240
 7450TIP3    H243842   5.270   1.840   3.153 -2.7397  0.9859 -0.0782
 7451TIP3   OH243843   6.258   6.056   1.729 -0.0206 -0.1957 -0.3775
 7451TIP3    H143844   6.214   6.108   1.662 -1.4771 -0.4168  0.3634
 7451TIP3    H243845   6.187   6.021   1.782  1.1045  0.5186  1.7104
 7452TIP3   OH243846   1.122   5.607  12.845 -0.4304  0.3887 -0.0043
 7452TIP3    H143847   1.076   5.587  12.927  2.2259  1.3832  1.8391
 7452TIP3    H243848   1.108   5.529  12.791 -0.5649 -1.2024  2.1776
 7453TIP3   OH243849   3.456   1.974  13.275  0.0784  0.5637  0.0614
 7453TIP3    H143850   3.365   2.004  13.277 -0.1038  0.0054  0.2959
 7453TIP3    H243851   3.467   1.936  13.188 -0.7285 -1.8180  0.9360
 7454TIP3   OH243852   0.110   4.776  13.803 -0.7989  0.4176  0.2840
 7454TIP3    H143853   0.143   4.687  13.814 -0.2146  0.5036 -0.6579
 7454TIP3    H243854   0.025   4.776  13.848  0.3906  0.1670  2.6775
 7455TIP3   OH243855   1.492   4.236  14.139  0.0639 -0.1407  1.1045
 7455TIP3    H143856   1.514   4.144  14.121  0.9532 -0.1352  2.0573
 7455TIP3    H243857   1.569   4.285  14.110 -0.6316  0.3786  0.0791
 7456TIP3   OH243858   5.929   5.870  13.738  0.7498 -1.0671  0.0898
 7456TIP3    H143859   5.961   5.881  13.649  0.9513 -0.1736  0.2559
 7456TIP3    H243860   5.984   5.928  13.791  0.6167 -1.5633  0.7938
 7457TIP3   OH243861   0.407   3.220  16.829  0.2927  0.0900  0.0490
 7457TIP3    H143862   0.502   3.223  16.823  0.3728  0.5372  1.2323
 7457TIP3    H243863   0.384   3.128  16.815  0.6989  0.2987 -2.3646
 7458TIP3   OH243864   5.042   2.786  15.745 -0.7589 -0.0083 -0.3254
 7458TIP3    H143865   5.076   2.796  15.834  0.7104 -1.8147 -0.6082
 7458TIP3    H243866   4.957   2.743  15.756 -0.0736 -1.2948  0.2064
 7459TIP3   OH243867   2.947   2.341   3.776 -0.0122  0.8486 -0.2227
 7459TIP3    H143868   2.931   2.247   3.782 -2.1892  1.2673  2.4528
 7459TIP3    H243869   3.018   2.349   3.713  0.1186 -2.5584 -0.6911
 7460TIP3   OH243870   2.449   2.793   2.781 -0.1852 -0.2269 -0.2201
 7460TIP3    H143871   2.440   2.738   2.702  2.3739 -1.0929 -0.0139
 7460TIP3    H243872   2.399   2.747   2.848 -1.3864 -0.1341 -1.0343
 7461TIP3   OH243873   0.526   5.340   4.719 -0.0420 -0.0972  0.3875
 7461TIP3    H143874   0.435   5.315   4.735 -0.2799  0.4521 -0.0475
 7461TIP3    H243875   0.523   5.436   4.714  0.2937 -0.1427 -1.1797
 7462TIP3   OH243876   4.590   0.170  14.746  0.1163 -0.5783 -0.0290
 7462TIP3    H143877   4.617   0.255  14.781  0.4596  0.4409 -2.5344
 7462TIP3    H243878   4.668   0.116  14.754  1.1475  0.5449 -1.8139
 7463TIP3   OH243879   2.542   6.368  15.086  0.5118 -0.4143  0.2366
 7463TIP3    H143880   2.636   6.351  15.094  0.8767  0.6505 -1.3407
 7463TIP3    H243881   2.501   6.299  15.137  2.1546 -0.9167  0.9398
 7464TIP3   OH243882   0.163   5.515  15.611 -0.1303 -0.1084 -0.2482
 7464TIP3    H143883   0.106   5.583  15.577  1.7753  0.8939 -1.5948
 7464TIP3    H243884   0.190   5.547  15.697 -0.3796  0.1363 -0.2598
 7465TIP3   OH243885   4.581   0.112  10.957  0.3607  0.2666  0.1928
 7465TIP3    H143886   4.650   0.170  10.990  0.2397  0.7285 -0.3506
 7465TIP3    H243887   4.621   0.065  10.885 -0.3583  1.7954 -1.2748
 7466TIP3   OH243888   5.149   1.013   1.260 -0.1832 -0.4157  0.0858
 7466TIP3    H143889   5.061   0.980   1.239  0.2637 -1.4168 -0.3022
 7466TIP3    H243890   5.203   0.986   1.186  0.6778 -0.7840  0.8241
 7467TIP3   OH243891   2.037   3.969   3.068 -0.4166  0.1026 -0.1541
 7467TIP3    H143892   2.103   3.960   3.137  0.0520 -0.6848 -0.6885
 7467TIP3    H243893   1.986   4.046   3.093  0.4975  0.5233  0.4418
 7468TIP3   OH243894   2.789   6.029  15.401  0.3826 -0.5563 -0.1394
 7468TIP3    H143895   2.871   5.982  15.411  0.1196 -1.3593 -1.5108
 7468TIP3    H243896   2.721   5.962  15.414 -0.0275 -0.1873 -0.3234
 7469TIP3   OH243897   2.986   5.457   1.408  0.0790 -0.1048 -0.3046
 7469TIP3    H143898   2.911   5.507   1.377  0.6037  0.8861 -0.0344
 7469TIP3    H243899   2.949   5.377   1.444 -0.7655 -0.0258 -0.9631
 7470TIP3   OH243900   1.177   4.412   0.577  0.1683  0.1270  0.2333
 7470TIP3    H143901   1.127   4.493   0.569 -1.0510 -0.5872  0.4443
 7470TIP3    H243902   1.118   4.351   0.621  1.3289 -0.6595  0.7690
 7471TIP3   OH243903   2.641   0.138  11.403  0.2871  0.1883  0.2806
 7471TIP3    H143904   2.577   0.111  11.469  0.7226  0.9024  1.0161
 7471TIP3    H243905   2.621   0.230  11.387  0.3604  0.0902 -0.3955
 7472TIP3   OH243906   1.473   4.603  14.840 -0.2365  0.1449  0.0720
 7472TIP3    H143907   1.461   4.665  14.912 -0.3278 -0.1237  0.2884
 7472TIP3    H243908   1.387   4.597  14.799 -0.1312  0.4694 -0.2004
 7473TIP3   OH243909   2.616   4.347  12.574 -0.0906 -0.1736  0.3566
 7473TIP3    H143910   2.600   4.438  12.547  0.0328 -0.5320 -0.9830
 7473TIP3    H243911   2.534   4.320  12.617  0.6403  1.2681  2.9178
 7474TIP3   OH243912   6.193   5.972  10.731  0.2679 -0.4509  0.6913
 7474TIP3    H143913   6.209   5.986  10.638 -0.4733 -0.7190  0.5200
 7474TIP3    H243914   6.249   5.898  10.754  1.0559  0.1182  0.6515
 7475TIP3   OH243915   6.387   4.536  12.867  0.3956 -0.6890 -0.2545
 7475TIP3    H143916   6.336   4.455  12.869 -0.2658 -0.2968 -0.9513
 7475TIP3    H243917   6.458   4.521  12.930  0.7482 -2.1126 -0.9446
 7476TIP3   OH243918   1.374   0.870  15.113 -0.3037 -0.0410 -0.3467
 7476TIP3    H143919   1.461   0.863  15.073 -0.1549  1.4161 -0.3015
 7476TIP3    H243920   1.316   0.824  15.052  0.1892  0.6727 -1.3863
 7477TIP3   OH243921   0.590   3.389   0.197 -1.0475  0.5291 -0.6498
 7477TIP3    H143922   0.598   3.365   0.105  1.4190  1.2309 -0.6744
 7477TIP3    H243923   0.529   3.463   0.198 -1.1050  0.5019 -1.6903
 7478TIP3   OH243924   4.397   6.238  15.957  0.0702  0.5271 -0.0243
 7478TIP3    H143925   4.385   6.331  15.936 -0.7839  0.3857 -0.1715
 7478TIP3    H243926   4.473   6.212  15.905  0.1845  1.0903 -0.1484
 7479TIP3   OH243927   4.258   5.102   2.679  0.1163 -0.5929  0.5965
 7479TIP3    H143928   4.192   5.043   2.716  1.7174 -2.2310  0.9866
 7479TIP3    H243929   4.285   5.157   2.751 -0.3441 -0.3598  0.5955
 7480TIP3   OH243930   2.920   0.906   2.441 -0.1619  0.3018  0.2205
 7480TIP3    H143931   2.862   0.852   2.495  0.0567  0.0347  0.1844
 7480TIP3    H243932   3.000   0.914   2.492  0.3640 -0.6559 -0.4260
 7481TIP3   OH243933   1.898   4.178   4.157  0.7247 -0.1840 -0.2093
 7481TIP3    H143934   1.896   4.164   4.251  0.0367  1.0434 -0.0197
 7481TIP3    H243935   1.836   4.114   4.121  0.8964 -0.5669  0.1762
 7482TIP3   OH243936   1.590   0.892  14.865 -0.1851  0.1299 -0.0905
 7482TIP3    H143937   1.601   0.985  14.844  0.9679  0.0601  0.1747
 7482TIP3    H243938   1.617   0.846  14.785  0.7103 -0.0153  0.2851
 7483TIP3   OH243939   0.722   0.197   0.036  0.0558  0.3219 -0.6341
 7483TIP3    H143940   0.645   0.248   0.062  0.4865  0.4626  0.3737
 7483TIP3    H243941   0.776   0.259  -0.013 -0.1873  0.3817 -0.8321
 7484TIP3   OH243942   6.625   0.080   1.062 -0.4677  0.3088 -0.3646
 7484TIP3    H143943   6.681   0.069   1.138  0.6953 -1.7737 -1.4467
 7484TIP3    H243944   6.673   0.140   1.005  0.5499 -1.1373 -1.0996
 7485TIP3   OH243945   6.097   6.188   2.254  0.5691  0.0183  0.4850
 7485TIP3    H143946   6.007   6.192   2.287 -0.0421 -1.4670 -0.8720
 7485TIP3    H243947   6.147   6.152   2.327 -0.1121  0.0278  0.9710
 7486TIP3   OH243948   0.992   0.223  13.245  0.3742 -0.2056 -0.1397
 7486TIP3    H143949   0.907   0.265  13.256  0.9355  1.2591 -1.0860
 7486TIP3    H243950   1.051   0.274  13.300  0.8125 -0.6748 -0.1651
 7487TIP3   OH243951   6.476   3.013   5.028 -0.2554 -0.3150  0.2938
 7487TIP3    H143952   6.450   3.016   4.936  1.2683 -2.6242 -0.2832
 7487TIP3    H243953   6.532   3.090   5.040 -0.1216 -0.2277 -0.8184
 7488TIP3   OH243954   5.751   0.845   3.961 -0.7698  0.5196  0.3150
 7488TIP3    H143955   5.700   0.765   3.977 -0.6054  0.5440  0.9792
 7488TIP3    H243956   5.692   0.916   3.987 -0.1553  0.5199  1.7859
 7489TIP3   OH243957   3.578   3.908  12.331  0.2928 -0.5266 -0.4413
 7489TIP3    H143958   3.526   3.843  12.378  0.8252 -2.0929 -1.9175
 7489TIP3    H243959   3.652   3.859  12.295  1.4007  1.1396 -0.5785
 7490TIP3   OH243960   1.051   5.414   0.245  0.1703  0.0077 -0.0288
 7490TIP3    H143961   1.002   5.332   0.234 -0.4451  0.5021 -1.3441
 7490TIP3    H243962   1.012   5.455   0.322 -2.1041  0.7352 -1.4611
 7491TIP3   OH243963   1.036   6.568  14.622 -0.3183  0.3362  0.2187
 7491TIP3    H143964   1.009   6.485  14.581 -3.3671  0.5182  1.5823
 7491TIP3    H243965   0.982   6.634  14.579 -0.8452  1.0290  1.8658
 7492TIP3   OH243966   6.638   5.246   2.155 -0.2671 -0.1401  0.0299
 7492TIP3    H143967   6.728   5.218   2.137 -0.6387 -0.6982 -1.0648
 7492TIP3    H243968   6.645   5.339   2.177  0.5461 -0.1247 -0.2731
 7493TIP3   OH243969   5.597   3.249   5.456  0.0884  0.5495  0.3904
 7493TIP3    H143970   5.519   3.304   5.459 -0.6460 -0.3668 -0.5624
 7493TIP3    H243971   5.641   3.275   5.375  2.1986  2.8100  2.1183
 7494TIP3   OH243972   3.115   3.830  13.996  0.0439 -1.1048  0.6321
 7494TIP3    H143973   3.021   3.845  13.983  0.1498 -0.1814  0.9086
 7494TIP3    H243974   3.119   3.764  14.066 -0.4016 -1.7366  0.0795
 7495TIP3   OH243975   3.669   3.967  16.296  0.0051 -0.4402  0.7689
 7495TIP3    H143976   3.583   4.008  16.307 -0.6784 -1.6185 -0.0251
 7495TIP3    H243977   3.727   4.017  16.354 -1.0862  0.7289  0.8836
 7496TIP3   OH243978   5.193   2.072  13.361  0.2390 -0.0444  0.0243
 7496TIP3    H143979   5.130   2.086  13.291  0.6210  0.1413 -0.2831
 7496TIP3    H243980   5.254   2.146  13.354  2.4244 -1.8764 -1.7550
 7497TIP3   OH243981   3.382   5.700   4.641  0.1787  0.4246  0.0933
 7497TIP3    H143982   3.360   5.655   4.560  1.2593  1.9305 -1.0851
 7497TIP3    H243983   3.477   5.691   4.649  0.1333  0.6150  0.9933
 7498TIP3   OH243984   3.607   2.308  13.348 -0.4035 -0.1257  0.1824
 7498TIP3    H143985   3.687   2.335  13.394 -0.3673  1.4483 -0.7205
 7498TIP3    H243986   3.539   2.366  13.383 -0.7304 -0.1174 -0.4583
 7499TIP3   OH243987   1.883   5.736   2.836 -0.5999  0.3922 -0.1422
 7499TIP3    H143988   1.885   5.823   2.876  1.7068  0.1608  0.4178
 7499TIP3    H243989   1.887   5.676   2.911 -0.4379 -0.1409 -0.5742
 7500TIP3   OH243990   1.842   3.020  17.034 -0.3507 -0.4260 -0.6340
 7500TIP3    H143991   1.755   3.056  17.015  0.6892  1.2136 -2.6940
 7500TIP3    H243992   1.884   3.088  17.087 -0.8464 -2.0126  1.9968
 7501TIP3   OH243993   0.526   6.209  12.392  0.4056  0.1456  0.4459
 7501TIP3    H143994   0.479   6.289  12.368  1.8839  0.6092 -1.1760
 7501TIP3    H243995   0.461   6.156  12.438 -1.8664  0.5557 -1.9860
 7502TIP3   OH243996   0.021   1.872  11.842  0.7485 -0.2286  0.0151
 7502TIP3    H143997   0.093   1.820  11.878  0.9479  0.1395  0.1544
 7502TIP3    H243998   0.016   1.949  11.900  1.8546  0.9879 -1.4244
 7503TIP3   OH243999   3.777   4.620   3.899  0.4206 -0.2439  0.0103
 7503TIP3    H144000   3.750   4.696   3.950 -0.1835 -1.4911  1.6211
 7503TIP3    H244001   3.872   4.616   3.910  0.4921  0.3755 -0.2798
 7504TIP3   OH244002   3.493   5.496  11.190  0.4600 -0.0562 -0.5668
 7504TIP3    H144003   3.577   5.527  11.158  0.1278  1.1598 -0.3115
 7504TIP3    H244004   3.502   5.497  11.286 -0.0917  0.8171 -0.5181
 7505TIP3   OH244005   3.563   5.332  16.604  0.0547 -0.4684 -0.4556
 7505TIP3    H144006   3.563   5.294  16.692  1.5323 -2.2720 -1.1597
 7505TIP3    H244007   3.504   5.275  16.555 -1.2137  0.8674 -0.5603
 7506TIP3   OH244008   3.742   6.082   1.119 -0.2250 -0.5006  0.2822
 7506TIP3    H144009   3.751   6.082   1.023 -2.6368  0.2154  0.0159
 7506TIP3    H244010   3.754   5.990   1.144  0.5191 -0.6787 -0.6770
 7507TIP3   OH244011   4.499   6.272   5.387  0.4353 -0.0587  0.4197
 7507TIP3    H144012   4.522   6.216   5.461  0.5700 -0.5608  0.0047
 7507TIP3    H244013   4.404   6.285   5.395  0.5040  0.1777  0.8741
 7508TIP3   OH244014   2.889   3.208   5.367  0.5244 -0.0455 -0.0919
 7508TIP3    H144015   2.837   3.172   5.439 -0.6285 -0.4826 -1.1140
 7508TIP3    H244016   2.849   3.293   5.348  0.8088  0.0577 -0.2311
 7509TIP3   OH244017   4.114   4.082   6.268  0.1566  0.3367  0.5542
 7509TIP3    H144018   4.112   4.164   6.318 -0.8163  0.2864  0.6091
 7509TIP3    H244019   4.160   4.021   6.326  0.5473  0.7328  0.6716
 7510TIP3   OH244020   2.563   4.235   2.077  0.1852  0.5069 -0.3075
 7510TIP3    H144021   2.513   4.316   2.079 -0.2061  0.2732 -0.7550
 7510TIP3    H244022   2.510   4.172   2.127  1.4933  1.0863  1.9889
 7511TIP3   OH244023   3.793   0.924   0.054 -0.1771 -0.1851 -0.1248
 7511TIP3    H144024   3.860   0.929   0.122 -0.4918 -2.0880  0.3840
 7511TIP3    H244025   3.760   1.014   0.047  2.4984  0.8698 -0.5328
 7512TIP3   OH244026   6.184   1.838  15.496 -0.1100  0.8535 -0.6310
 7512TIP3    H144027   6.252   1.773  15.479 -0.4380  0.9642 -2.5463
 7512TIP3    H244028   6.209   1.914  15.443 -0.2694  1.9531  0.7915
 7513TIP3   OH244029   5.340   3.131  11.736  0.3111 -0.5030  0.2937
 7513TIP3    H144030   5.355   3.151  11.643  0.8792 -0.3541  0.4111
 7513TIP3    H244031   5.252   3.163  11.753  1.4064  2.7233  0.6676
 7514TIP3   OH244032   4.410   0.578   3.218 -0.7113 -0.1834  0.1141
 7514TIP3    H144033   4.444   0.499   3.176 -1.6082 -0.1401 -0.7269
 7514TIP3    H244034   4.331   0.549   3.262 -0.6949  0.1211  0.3460
 7515TIP3   OH244035   4.217   5.456  14.175 -0.3537  0.5920  0.0360
 7515TIP3    H144036   4.131   5.479  14.138 -0.2286  1.3068  0.1724
 7515TIP3    H244037   4.197   5.405  14.253 -0.6332 -0.2247 -0.5535
 7516TIP3   OH244038   1.194   5.822   3.030  0.0300  0.2371 -0.1298
 7516TIP3    H144039   1.247   5.773   3.093 -1.1330 -0.8419  0.0579
 7516TIP3    H244040   1.108   5.828   3.070  0.2238  2.8932  0.0435
 7517TIP3   OH244041   3.319   4.118  12.722  0.1404  0.2163  0.5881
 7517TIP3    H144042   3.273   4.199  12.747 -1.2892 -0.2500 -0.3864
 7517TIP3    H244043   3.294   4.054  12.788 -1.6345 -0.3452 -0.5389
 7518TIP3   OH244044   6.763   4.629   4.948  0.0945  0.4983  0.3557
 7518TIP3    H144045   6.715   4.695   4.997  0.5992  0.1205  1.3983
 7518TIP3    H244046   6.704   4.603   4.878 -1.9568 -1.1525  2.5283
 7519TIP3   OH244047   1.644   1.275   0.856 -0.1123 -0.6066  0.0340
 7519TIP3    H144048   1.665   1.195   0.903  0.5646 -0.1874  0.4684
 7519TIP3    H244049   1.610   1.245   0.771  1.8797 -1.3628 -0.5569
 7520TIP3   OH244050   3.867   6.824   4.526  0.2879  0.3348  0.2650
 7520TIP3    H144051   3.963   6.822   4.533  0.3083  1.1436  0.2681
 7520TIP3    H244052   3.849   6.885   4.455 -0.2319  0.1466  0.2290
 7521TIP3   OH244053   1.654   6.198   2.139  0.6060 -0.0353  0.0608
 7521TIP3    H144054   1.574   6.250   2.130  1.1447  0.9022  0.6013
 7521TIP3    H244055   1.725   6.259   2.120  1.2024 -0.8846 -0.4986
 7522TIP3   OH244056   0.043   3.145  15.662 -0.3263 -0.1930 -0.1830
 7522TIP3    H144057   0.074   3.124  15.750 -0.5673  0.5700  0.0882
 7522TIP3    H244058   0.005   3.063  15.630 -0.7705 -0.3177  0.6496
 7523TIP3   OH244059   6.619   2.003  14.460 -0.2214  0.1706 -0.1123
 7523TIP3    H144060   6.647   1.985  14.371  1.9452 -0.9437  0.7247
 7523TIP3    H244061   6.530   1.967  14.464 -0.0727 -0.4527 -1.6028
 7524TIP3   OH244062   0.583   6.615   2.864 -0.4532 -0.3276  0.5229
 7524TIP3    H144063   0.585   6.622   2.959 -1.0816 -0.2871  0.5398
 7524TIP3    H244064   0.673   6.631   2.836 -0.5368  1.1012  1.0075
 7525TIP3   OH244065   1.291   0.354   1.586 -0.1596  0.0537 -0.3812
 7525TIP3    H144066   1.327   0.268   1.603 -0.7066 -0.0921  0.0743
 7525TIP3    H244067   1.365   0.414   1.599  0.0765 -0.2912 -0.1057
 7526TIP3   OH244068   1.390   3.194  17.177 -0.4531 -0.3416 -0.5927
 7526TIP3    H144069   1.471   3.197  17.127 -0.1662  1.1447 -0.0733
 7526TIP3    H244070   1.409   3.134  17.250  0.0873 -0.2055 -0.6207
 7527TIP3   OH244071   6.199   3.392  13.473 -0.3837  0.5708 -0.2475
 7527TIP3    H144072   6.266   3.410  13.406 -1.2057  1.5529 -0.8492
 7527TIP3    H244073   6.239   3.421  13.555  0.6379 -0.6432 -0.3022
 7528TIP3   OH244074   0.633   6.736   3.091 -0.4939  0.2371  0.3847
 7528TIP3    H144075   0.676   6.813   3.053  0.1079  0.1136  0.7976
 7528TIP3    H244076   0.672   6.728   3.179 -2.2926  0.8865  1.3003
 7529TIP3   OH244077   4.548   4.136   5.685  0.4839 -0.3246 -0.3441
 7529TIP3    H144078   4.461   4.148   5.648  1.4802  0.4421 -2.6198
 7529TIP3    H244079   4.536   4.150   5.779 -1.4931  1.8663 -0.8263
 7530TIP3   OH244080   6.651   6.721  16.070  0.2286 -0.5278  0.0216
 7530TIP3    H144081   6.633   6.645  16.015 -0.4187 -0.4217  0.0885
 7530TIP3    H244082   6.666   6.685  16.157  0.3089 -0.6103 -0.0267
 7531TIP3   OH244083   0.780   0.336   1.823 -0.1117  0.0599  0.0565
 7531TIP3    H144084   0.705   0.365   1.772 -0.2380  0.1862  0.3112
 7531TIP3    H244085   0.855   0.376   1.780 -0.3553  1.5132  0.9043
 7532TIP3   OH244086   1.788   2.003   2.165 -0.4783  0.1865 -0.1095
 7532TIP3    H144087   1.825   1.923   2.128 -0.8390  0.1479 -0.4019
 7532TIP3    H244088   1.844   2.073   2.133  0.9935 -0.0910  1.6904
 7533TIP3   OH244089   5.814   1.868  12.843  0.0267  0.9500 -0.7325
 7533TIP3    H144090   5.800   1.932  12.773  2.0195  1.2585 -0.9063
 7533TIP3    H244091   5.872   1.803  12.805 -0.0181  0.3506  0.2021
 7534TIP3   OH244092   6.376   1.744  10.896  0.4033 -0.3989 -0.2143
 7534TIP3    H144093   6.321   1.819  10.874  0.5651 -0.4773 -0.8916
 7534TIP3    H244094   6.447   1.746  10.832  0.0647 -1.5053 -0.6455
 7535TIP3   OH244095   2.422   6.451  16.375 -0.0217  0.3459  0.8428
 7535TIP3    H144096   2.385   6.365  16.395 -2.4858  0.6651 -1.7055
 7535TIP3    H244097   2.501   6.433  16.324 -0.0932 -0.4081  0.9923
 7536TIP3   OH244098   5.115   4.026   3.709 -0.0298  0.3902  0.3119
 7536TIP3    H144099   5.209   4.038   3.723  0.1426  0.7799 -1.0551
 7536TIP3    H244100   5.109   3.955   3.645 -0.7631 -1.0428  1.9034
 7537TIP3   OH244101   4.571   0.462  12.972  0.4171  0.7455 -0.3046
 7537TIP3    H144102   4.544   0.470  13.064 -3.5112 -2.4844 -0.8959
 7537TIP3    H244103   4.635   0.390  12.972  0.2224  0.5724 -0.1447
 7538TIP3   OH244104   2.297   4.024   5.950 -0.6092  0.2490  0.0427
 7538TIP3    H144105   2.277   4.047   5.859 -0.4209 -0.8426 -0.2916
 7538TIP3    H244106   2.384   3.984   5.946 -0.1379  1.1482  0.8719
 7539TIP3   OH244107   4.218   3.521   0.997  0.0693 -0.6445 -0.1469
 7539TIP3    H144108   4.180   3.578   0.931 -0.2906 -0.5405  0.1472
 7539TIP3    H244109   4.181   3.434   0.978 -1.3804 -0.3038  0.9379
 7540TIP3   OH244110   5.927   5.129   4.588  0.5765 -0.1550  0.5283
 7540TIP3    H144111   5.965   5.059   4.642  0.4623 -0.1038  0.6735
 7540TIP3    H244112   5.884   5.082   4.516  1.6973 -0.1844 -0.1487
 7541TIP3   OH244113   0.524   2.582   2.780  0.0145  0.0969 -0.3725
 7541TIP3    H144114   0.604   2.608   2.827 -0.7226 -0.3369  1.2118
 7541TIP3    H244115   0.552   2.508   2.726  0.9747  0.8187 -0.8855
 7542TIP3   OH244116   0.484   3.049  14.939 -0.9129  0.1884 -0.0078
 7542TIP3    H144117   0.519   3.031  15.027 -0.5293 -0.3205 -0.2583
 7542TIP3    H244118   0.478   2.963  14.898 -0.2051  0.5104 -0.8088
 7543TIP3   OH244119   2.053   4.744   4.843  0.2874  0.2836  0.8571
 7543TIP3    H144120   2.104   4.688   4.902  0.5631  0.5674  0.8935
 7543TIP3    H244121   2.061   4.831   4.880 -2.4631 -0.0264  2.3944
 7544TIP3   OH244122   3.363   3.013  11.590  0.2815 -0.4451  0.3269
 7544TIP3    H144123   3.450   3.034  11.625 -0.4469  0.1351  1.9026
 7544TIP3    H244124   3.366   3.043  11.499  1.5648  0.0301  0.5029
 7545TIP3   OH244125   3.388   1.239   2.593 -0.8682  0.6408 -0.0517
 7545TIP3    H144126   3.377   1.327   2.629 -1.7844  0.6259 -0.2566
 7545TIP3    H244127   3.424   1.188   2.666  0.3500  1.3349 -0.1482
 7546TIP3   OH244128   6.424   3.013  11.961 -0.6492 -0.5429 -0.0961
 7546TIP3    H144129   6.517   2.993  11.967 -0.2531  0.9277 -0.8843
 7546TIP3    H244130   6.394   2.966  11.883 -0.5104 -0.8085  0.0119
 7547TIP3   OH244131   5.593   3.081   2.500 -0.1579  0.1689 -0.2506
 7547TIP3    H144132   5.502   3.107   2.488 -0.3085  0.4072  1.2361
 7547TIP3    H244133   5.604   3.073   2.595  0.6109 -2.5513 -0.4780
 7548TIP3   OH244134   2.866   1.723   0.467 -0.0828  0.1597 -1.0324
 7548TIP3    H144135   2.954   1.725   0.431 -0.2820  0.7660 -1.5152
 7548TIP3    H244136   2.830   1.809   0.446 -1.4951 -0.7660 -2.6809
 7549TIP3   OH244137   3.828   5.225   2.604  0.5352  0.5858  0.6825
 7549TIP3    H144138   3.793   5.284   2.671 -2.2701 -1.6609  1.3789
 7549TIP3    H244139   3.771   5.238   2.528 -1.5686 -2.5846  1.5617
 7550TIP3   OH244140   2.794   0.864  16.779 -0.0302 -0.5043 -0.3033
 7550TIP3    H144141   2.777   0.849  16.686  0.1603 -1.7471 -0.1499
 7550TIP3    H244142   2.812   0.958  16.785  1.4340 -0.6516 -1.7643
 7551TIP3   OH244143   3.886   1.826   3.201  0.0716 -0.0335  0.1071
 7551TIP3    H144144   3.832   1.811   3.278 -0.2254 -1.6301 -0.3734
 7551TIP3    H244145   3.830   1.803   3.127  0.7633  0.2179 -0.5098
 7552TIP3   OH244146   6.717   2.460   1.327  0.4347 -0.1920  0.5546
 7552TIP3    H144147   6.761   2.530   1.278  0.3828 -0.9478 -0.6304
 7552TIP3    H244148   6.777   2.385   1.319  0.8907 -0.0751  2.5206
 7553TIP3   OH244149   2.861   5.567  16.014 -0.0731 -0.3462 -0.2815
 7553TIP3    H144150   2.891   5.559  15.923 -0.2958  0.8401 -0.4696
 7553TIP3    H244151   2.915   5.637  16.051  0.3035 -1.1005  0.6399
 7554TIP3   OH244152   4.109   0.588  12.629 -0.4925  0.2457  0.2245
 7554TIP3    H144153   4.069   0.503  12.609  1.0161 -0.0550 -1.6956
 7554TIP3    H244154   4.136   0.580  12.721 -2.0229 -0.6267  0.6450
 7555TIP3   OH244155   0.430   1.963   1.994  0.0760  0.4627 -0.3979
 7555TIP3    H144156   0.525   1.977   2.001 -0.2641  2.9564  0.5006
 7555TIP3    H244157   0.406   2.008   1.913 -0.5708  1.7094  0.4508
 7556TIP3   OH244158   4.035   6.267   2.562 -0.1988  0.5761  0.2582
 7556TIP3    H144159   4.016   6.227   2.647 -0.9944  0.7700  0.1798
 7556TIP3    H244160   4.003   6.203   2.498 -0.1633  0.7043  0.1134
 7557TIP3   OH244161   0.926   4.295  13.429  0.0294  0.0873  0.5054
 7557TIP3    H144162   0.840   4.316  13.463  0.0660 -1.3617  1.5654
 7557TIP3    H244163   0.914   4.293  13.334 -0.7307  1.3427  0.5433
 7558TIP3   OH244164   1.892   5.271  15.525 -0.3174  0.7050  0.2912
 7558TIP3    H144165   1.882   5.272  15.620  0.4117  1.0038  0.3745
 7558TIP3    H244166   1.975   5.227  15.511  0.6559  2.5350 -0.0771
 7559TIP3   OH244167   6.599   2.021  12.451 -0.7002  0.9518  0.3745
 7559TIP3    H144168   6.660   1.978  12.511 -1.7607  1.1141  1.6106
 7559TIP3    H244169   6.535   1.953  12.429  0.8042  0.2561 -2.3087
 7560TIP3   OH244170   5.102   3.311  14.337 -0.3553  0.1157  0.2072
 7560TIP3    H144171   5.018   3.280  14.370 -0.4468 -0.0703 -0.1931
 7560TIP3    H244172   5.082   3.350  14.252 -0.2304  1.2365  0.6816
 7561TIP3   OH244173   2.447   6.251   0.373 -0.0264 -0.3060 -0.0244
 7561TIP3    H144174   2.412   6.302   0.446  0.4985 -0.9789  0.7103
 7561TIP3    H244175   2.419   6.299   0.295 -2.4822 -0.7127  0.4969
 7562TIP3   OH244176   4.683   6.457  14.344 -0.1236 -0.3592  0.1085
 7562TIP3    H144177   4.655   6.424  14.259  0.2492 -0.0502 -0.1335
 7562TIP3    H244178   4.615   6.427  14.405 -1.4872  1.1414 -0.6038
 7563TIP3   OH244179   5.202   1.245   2.991  0.2637  0.1442 -0.4510
 7563TIP3    H144180   5.110   1.272   2.987  0.1426  0.0881  1.2078
 7563TIP3    H244181   5.239   1.298   3.061  1.3884 -0.1616 -0.7981
 7564TIP3   OH244182   3.397   5.003  16.995 -0.3167 -0.2151  0.5618
 7564TIP3    H144183   3.358   4.927  17.037 -1.9077  0.9132  1.2277
 7564TIP3    H244184   3.383   5.075  17.056  2.7500  0.3589  0.7952
 7565TIP3   OH244185   3.218   5.911   0.092  0.1636 -0.0925  0.3621
 7565TIP3    H144186   3.276   5.844   0.127 -0.3828  0.1027  1.6827
 7565TIP3    H244187   3.277   5.974   0.050  0.8203 -0.4439  0.7421
 7566TIP3   OH244188   5.890   4.764   0.760  0.7836  0.4840 -0.1230
 7566TIP3    H144189   5.977   4.733   0.785  0.1180 -2.1427 -0.7651
 7566TIP3    H244190   5.830   4.713   0.814 -0.4298  0.3812 -1.5075
 7567TIP3   OH244191   1.501   5.093  14.394  0.4458 -0.0303  0.0016
 7567TIP3    H144192   1.519   5.134  14.309 -1.5285  0.3483 -0.2856
 7567TIP3    H244193   1.436   5.150  14.434 -0.6846 -1.6589  0.5839
 7568TIP3   OH244194   1.609   1.862  11.040  0.6806 -0.2525 -0.3841
 7568TIP3    H144195   1.588   1.814  11.120  0.3452  0.6137  0.0592
 7568TIP3    H244196   1.655   1.941  11.070 -1.1327  1.0474 -0.8810
 7569TIP3   OH244197   2.587   5.181  13.644  0.0612  0.0016 -0.2748
 7569TIP3    H144198   2.549   5.210  13.561  2.1010  1.3445 -0.8053
 7569TIP3    H244199   2.679   5.204  13.638  0.7325 -1.9056  1.5011
 7570TIP3   OH244200   5.382   0.960  12.152  0.0266  0.5924  0.3703
 7570TIP3    H144201   5.478   0.954  12.156  0.0018  0.6877  1.9628
 7570TIP3    H244202   5.360   0.932  12.064  1.5229  0.4705  0.0014
 7571TIP3   OH244203   1.398   0.391   6.057 -0.0627  0.5924 -0.0660
 7571TIP3    H144204   1.432   0.433   5.979  1.4541  0.9266  0.7405
 7571TIP3    H244205   1.476   0.358   6.103 -0.8825  0.6724  1.4540
 7572TIP3   OH244206   3.031   6.296  11.704 -0.3262  0.3695 -0.4311
 7572TIP3    H144207   3.012   6.298  11.610 -1.2825 -2.0948 -0.3701
 7572TIP3    H244208   3.035   6.203  11.725  1.5630  0.8715  1.6814
 7573TIP3   OH244209   2.357   4.726  14.668 -0.3466 -0.2898 -0.0495
 7573TIP3    H144210   2.429   4.701  14.725 -0.8039  0.6470  0.9727
 7573TIP3    H244211   2.278   4.698  14.715 -0.7671  1.1825  0.1844
 7574TIP3   OH244212   1.849   3.415  11.722 -0.9809  0.5623  0.0813
 7574TIP3    H144213   1.840   3.331  11.679 -2.2994  0.5128  0.3987
 7574TIP3    H244214   1.943   3.432  11.724 -0.6209 -1.3325  0.8381
 7575TIP3   OH244215   1.890   4.305   1.227 -0.1109 -0.3302 -0.0507
 7575TIP3    H144216   1.819   4.365   1.207 -0.2769 -0.1074  1.1306
 7575TIP3    H244217   1.847   4.226   1.259  0.1443  0.0737  1.3940
 7576TIP3   OH244218   0.791   2.195   4.741  0.1040 -0.1471  0.2273
 7576TIP3    H144219   0.869   2.159   4.700  0.9062  1.6315  0.0813
 7576TIP3    H244220   0.737   2.226   4.668  0.5390  1.0610  0.3897
 7577TIP3   OH244221   1.125   2.928   2.839  0.1682 -0.3110 -0.1667
 7577TIP3    H144222   1.090   2.848   2.800 -0.8637  0.2765 -0.4808
 7577TIP3    H244223   1.052   2.962   2.892  1.4536 -1.0098  2.2127
 7578TIP3   OH244224   0.409   1.841   3.314  0.2035  0.4779  0.2447
 7578TIP3    H144225   0.433   1.821   3.224 -0.5332  0.0023  0.1414
 7578TIP3    H244226   0.463   1.916   3.338  0.0655  0.9108 -0.7511
 7579TIP3   OH244227   5.482   6.625  12.581  0.4346 -0.1407 -0.6585
 7579TIP3    H144228   5.493   6.711  12.541 -1.2959  1.3044  1.6719
 7579TIP3    H244229   5.389   6.621  12.603  0.9129 -1.6047  1.3882
 7580TIP3   OH244230   6.774   5.606   6.454  0.0589 -0.4901 -0.4844
 7580TIP3    H144231   6.744   5.551   6.381  0.4447 -0.2975 -0.7981
 7580TIP3    H244232   6.869   5.592   6.455 -0.0407 -1.1999  0.5714
 7581TIP3   OH244233   4.772   5.915  15.470  0.6213 -0.3333  0.3897
 7581TIP3    H144234   4.816   5.855  15.410 -2.0450 -3.6203  1.4187
 7581TIP3    H244235   4.833   5.924  15.544  1.2512 -1.5358  0.0432
 7582TIP3   OH244236   5.550   1.115   4.210  0.3140  0.3326  0.2914
 7582TIP3    H144237   5.504   1.199   4.211  0.7170  0.5557  0.3997
 7582TIP3    H244238   5.626   1.129   4.267  0.3937 -0.1004  0.2944
 7583TIP3   OH244239   5.659   0.091  15.723 -0.5296 -0.2826 -0.9744
 7583TIP3    H144240   5.671   0.051  15.809  0.3775  2.5217  0.3447
 7583TIP3    H244241   5.588   0.042  15.682  0.5752 -3.1955  0.3628
 7584TIP3   OH244242   4.060   3.168   1.300 -0.3054 -0.1731  0.2739
 7584TIP3    H144243   4.054   3.088   1.246  1.8903 -0.5964  0.5470
 7584TIP3    H244244   4.154   3.183   1.309 -0.6662  1.6067  1.5094
 7585TIP3   OH244245   4.768   5.644  12.261  0.7940 -0.7001  0.1941
 7585TIP3    H144246   4.856   5.660  12.296  0.6379 -0.1015  0.3149
 7585TIP3    H244247   4.720   5.725  12.278  0.1492 -1.1061  0.3231
 7586TIP3   OH244248   6.436   1.345   3.746 -0.2241 -0.3393 -0.2612
 7586TIP3    H144249   6.407   1.411   3.683  1.3484  0.0050 -0.6610
 7586TIP3    H244250   6.529   1.331   3.726 -0.0915 -1.4155  0.9374
 7587TIP3   OH244251   4.105   4.231  15.474  0.0269  0.1875 -1.1628
 7587TIP3    H144252   4.066   4.284  15.405  1.2909  0.6359 -1.5650
 7587TIP3    H244253   4.178   4.284  15.507 -0.8540  0.1939  0.8850
 7588TIP3   OH244254   2.420   1.848  13.169 -0.2400 -0.0545  0.4291
 7588TIP3    H144255   2.430   1.753  13.161  0.5076 -0.0343  0.9805
 7588TIP3    H244256   2.435   1.881  13.081  1.6180 -0.3012  0.6086
 7589TIP3   OH244257   4.175   4.593   2.222 -0.1542 -0.5703 -0.0646
 7589TIP3    H144258   4.098   4.553   2.180  1.2198 -0.9391 -2.3814
 7589TIP3    H244259   4.250   4.559   2.174  1.3610  1.4284  0.7118
 7590TIP3   OH244260   0.541   1.076   5.600  0.0474 -0.4655 -0.5851
 7590TIP3    H144261   0.483   1.044   5.531  1.5208 -1.1271 -1.5728
 7590TIP3    H244262   0.626   1.038   5.579  0.2964 -1.8805  2.3921
 7591TIP3   OH244263   1.844   2.345   1.487 -0.6843 -0.0134 -0.1487
 7591TIP3    H144264   1.919   2.302   1.528 -0.3271  0.5523 -0.2027
 7591TIP3    H244265   1.871   2.358   1.396 -0.6418  0.6608 -0.0439
 7592TIP3   OH244266   3.417   5.903   1.239 -0.1075  0.2997  0.3632
 7592TIP3    H144267   3.323   5.893   1.226 -0.2636 -1.2467  2.2799
 7592TIP3    H244268   3.430   5.998   1.248 -1.7700  0.4369  1.7789
 7593TIP3   OH244269   0.063   2.094  12.008 -0.2592  0.4548  0.3914
 7593TIP3    H144270   0.156   2.111  12.001 -0.3595  0.7638 -0.2443
 7593TIP3    H244271   0.042   2.110  12.100  0.5038 -0.6289  0.7708
 7594TIP3   OH244272   2.301   1.253  15.899 -0.3436  1.2557 -0.0003
 7594TIP3    H144273   2.353   1.265  15.819  0.0649  1.0191  0.2267
 7594TIP3    H244274   2.355   1.197  15.955 -2.5017 -2.4287 -1.3102
 7595TIP3   OH244275   5.239   2.848   5.239 -0.4328 -0.2384 -0.3441
 7595TIP3    H144276   5.262   2.934   5.274 -2.4910  0.1942  0.0949
 7595TIP3    H244277   5.150   2.832   5.271 -0.3238 -2.2767 -0.9158
 7596TIP3   OH244278   2.839   4.573   0.870  0.2070 -0.2411  0.5718
 7596TIP3    H144279   2.862   4.483   0.849 -2.2689 -0.7316 -0.5315
 7596TIP3    H244280   2.775   4.597   0.802  2.0183  2.9667 -0.2105
 7597TIP3   OH244281   4.559   2.363  12.908  0.0944 -0.2026 -0.1860
 7597TIP3    H144282   4.519   2.311  12.839  2.6935 -1.0522 -1.1816
 7597TIP3    H244283   4.630   2.410  12.865  0.7618  0.5297  1.5938
 7598TIP3   OH244284   2.961   5.869  14.325 -0.1999 -0.7377 -0.2266
 7598TIP3    H144285   3.007   5.804  14.377  0.8643 -0.2229 -0.5005
 7598TIP3    H244286   2.870   5.865  14.356 -0.0365 -1.9423  0.1456
 7599TIP3   OH244287   6.309   6.145  12.867  0.0850  0.5016  0.5508
 7599TIP3    H144288   6.395   6.150  12.827  0.5568  2.2523  1.6534
 7599TIP3    H244289   6.269   6.231  12.850 -1.0236  0.0788  0.9207
 7600TIP3   OH244290   0.528   5.926   5.454  0.7176 -0.2358  0.1706
 7600TIP3    H144291   0.498   5.893   5.539 -1.0815 -2.0135 -1.0453
 7600TIP3    H244292   0.471   6.000   5.435  0.4247 -0.4747  0.0968
 7601TIP3   OH244293   5.341   2.171   2.863 -1.1343 -0.2736 -0.5753
 7601TIP3    H144294   5.262   2.117   2.870 -2.1928  1.0650 -1.7100
 7601TIP3    H244295   5.381   2.144   2.780 -1.9992  1.0335 -1.4628
 7602TIP3   OH244296   5.351   6.560  13.617  0.3316 -0.0650  1.2604
 7602TIP3    H144297   5.419   6.612  13.661 -0.1452  0.8040  1.0001
 7602TIP3    H244298   5.269   6.592  13.655 -0.0918  0.6716 -0.2120
 7603TIP3   OH244299   0.298   6.076  11.443  0.2039  0.4913  0.3062
 7603TIP3    H144300   0.334   6.110  11.524  1.2122  0.7894 -0.2518
 7603TIP3    H244301   0.373   6.037  11.398 -0.4547 -0.2104 -0.2095
 7604TIP3   OH244302   2.576   0.122   1.158 -0.1956 -0.6540  0.0504
 7604TIP3    H144303   2.620   0.142   1.075  0.1909 -1.3573  0.0793
 7604TIP3    H244304   2.627   0.050   1.196 -0.0232  0.0435  1.1817
 7605TIP3   OH244305   0.496   3.564   4.999  0.1615  0.2653 -0.4727
 7605TIP3    H144306   0.505   3.469   4.990 -1.4763 -0.1831  1.8490
 7605TIP3    H244307   0.436   3.589   4.928  1.6879 -0.1443 -1.9812
 7606TIP3   OH244308   2.669   4.808  13.020  0.2813  0.0072  0.2719
 7606TIP3    H144309   2.587   4.856  13.024 -0.2291 -0.4676 -2.5979
 7606TIP3    H244310   2.645   4.718  13.040 -0.2285 -0.3864 -1.8762
 7607TIP3   OH244311   3.082   2.671  12.974  0.6113  0.2435  0.3798
 7607TIP3    H144312   3.099   2.594  12.919  0.8835  0.4224  0.2079
 7607TIP3    H244313   3.130   2.654  13.055 -0.2773 -0.2891  0.7960
 7608TIP3   OH244314   0.628   2.918  14.358 -0.0122  0.3132  0.7016
 7608TIP3    H144315   0.544   2.958  14.334 -0.3777  0.9734  2.8584
 7608TIP3    H244316   0.647   2.858  14.286 -1.7493  1.0080 -0.4052
 7609TIP3   OH244317   3.131   2.093  12.453 -0.7822  0.5172  0.3345
 7609TIP3    H144318   3.100   2.079  12.364 -1.6586 -1.1473  0.8567
 7609TIP3    H244319   3.202   2.029  12.464 -1.2905  0.0705  1.1021
 7610TIP3   OH244320   3.166   4.540  17.079 -0.8494  0.5890 -0.2378
 7610TIP3    H144321   3.163   4.461  17.132  0.7626 -0.3130 -1.3858
 7610TIP3    H244322   3.098   4.528  17.013 -0.3436 -0.0484 -0.6530
 7611TIP3   OH244323   2.637   5.638  11.013  0.2003 -0.4968 -0.5528
 7611TIP3    H144324   2.558   5.684  10.985  1.7124  2.1978 -0.6412
 7611TIP3    H244325   2.635   5.556  10.963 -2.4000 -0.4616 -0.6660
 7612TIP3   OH244326   3.103   6.383  12.751 -0.0641  0.5061  0.2879
 7612TIP3    H144327   3.156   6.402  12.674 -1.4173  0.3485 -0.7127
 7612TIP3    H244328   3.099   6.287  12.754 -1.5922  0.5154 -0.5988
 7613TIP3   OH244329   0.998   2.096  11.479 -0.0893  0.5214  0.2472
 7613TIP3    H144330   1.092   2.084  11.470  0.0601  2.3763 -1.5191
 7613TIP3    H244331   0.988   2.153  11.555  0.0419 -0.9876  1.4428
 7614TIP3   OH244332   6.429   6.258  16.449  0.3455 -0.4784  0.7128
 7614TIP3    H144333   6.399   6.337  16.404  0.0081 -1.7297 -1.3668
 7614TIP3    H244334   6.369   6.250  16.524  0.1283  0.9728  0.7285
 7615TIP3   OH244335   0.004   3.798  14.019  0.2005  0.0386 -0.0239
 7615TIP3    H144336  -0.050   3.783  13.942 -0.2971 -0.2917  0.3827
 7615TIP3    H244337   0.045   3.714  14.036  1.8711  0.5824 -1.0766
 7616TIP3   OH244338   2.461   5.788  14.388 -0.8101  0.2459 -0.0492
 7616TIP3    H144339   2.386   5.740  14.423 -0.1815 -0.0447  0.9518
 7616TIP3    H244340   2.466   5.761  14.296 -0.9355 -1.0305  0.2974
 7617TIP3   OH244341   4.130   6.374  14.116 -0.2537 -0.2120  0.3709
 7617TIP3    H144342   4.168   6.454  14.080 -1.0787 -0.0454 -0.1747
 7617TIP3    H244343   4.076   6.404  14.189  2.4835 -0.6833  2.7128
 7618TIP3   OH244344   1.609   5.211  15.250 -0.2160  0.3310 -0.6575
 7618TIP3    H144345   1.518   5.230  15.227  0.1945 -0.2186 -2.9118
 7618TIP3    H244346   1.658   5.220  15.168  1.3974 -1.7089  0.0005
 7619TIP3   OH244347   1.510   3.713   0.016  0.2296 -0.1214  0.4213
 7619TIP3    H144348   1.524   3.758  -0.067 -1.2287 -1.3321 -0.5079
 7619TIP3    H244349   1.421   3.680   0.012  0.9866 -2.4999  1.3580
 7620TIP3   OH244350   0.827   3.127   5.453 -0.0562  0.7308 -0.0317
 7620TIP3    H144351   0.847   3.135   5.547  0.5223 -0.5533 -0.0086
 7620TIP3    H244352   0.912   3.138   5.410  0.0543 -0.6735 -0.2352
 7621TIP3   OH244353   6.508   3.998   2.846 -0.6800  0.4562 -0.0386
 7621TIP3    H144354   6.560   4.077   2.862  0.6184 -0.4154  0.2740
 7621TIP3    H244355   6.427   4.029   2.806 -0.1643  1.9294  0.0224
 7622TIP3   OH244356   3.525   6.401   0.821  0.5663 -0.4042  0.0228
 7622TIP3    H144357   3.470   6.324   0.805 -0.7655  0.8759 -2.2358
 7622TIP3    H244358   3.571   6.415   0.738  1.6143  0.6130  0.7427
 7623TIP3   OH244359   3.000   4.814   1.218 -0.1983 -0.4951 -0.4616
 7623TIP3    H144360   3.093   4.836   1.212 -0.1169 -0.5409  0.5061
 7623TIP3    H244361   2.956   4.877   1.161  0.3428  0.0666 -0.2634
 7624TIP3   OH244362   6.425   1.715  12.931  0.6590  0.4265  0.4629
 7624TIP3    H144363   6.358   1.740  12.994  0.6121  1.0990  0.1482
 7624TIP3    H244364   6.463   1.635  12.968  0.9974  1.0921  1.6273
 7625TIP3   OH244365   6.103   1.168   3.639  0.1841 -0.2520  0.3602
 7625TIP3    H144366   6.029   1.147   3.583  0.0925 -2.1471  1.1061
 7625TIP3    H244367   6.172   1.197   3.578 -1.1854  1.7754 -0.3152
 7626TIP3   OH244368   3.224   1.400  16.590 -0.4305 -0.1975 -0.3184
 7626TIP3    H144369   3.309   1.443  16.597 -0.0068 -0.8800 -1.1513
 7626TIP3    H244370   3.207   1.396  16.496 -1.5568  0.2542 -0.1523
 7627TIP3   OH244371   0.861   5.079   3.377  0.0797  0.2637 -0.0070
 7627TIP3    H144372   0.955   5.098   3.382  0.2736 -0.9343  2.4775
 7627TIP3    H244373   0.826   5.111   3.460 -1.4917 -0.4061 -0.3832
 7628TIP3   OH244374   6.260   4.050   2.238  0.1065 -0.0740  0.5095
 7628TIP3    H144375   6.194   4.118   2.245  0.0626 -0.2093  1.6261
 7628TIP3    H244376   6.307   4.070   2.157 -1.6782 -0.3369 -0.6354
 7629TIP3   OH244377   2.231   6.813  16.148 -0.2044  0.1594  0.3451
 7629TIP3    H144378   2.242   6.772  16.063  1.1019 -0.5956  0.8505
 7629TIP3    H244379   2.167   6.757  16.193  0.8304 -0.8029  0.6717
 7630TIP3   OH244380   5.573   5.253  13.383  0.7994  0.3317  0.1799
 7630TIP3    H144381   5.571   5.177  13.440  0.6861  1.2319  1.4178
 7630TIP3    H244382   5.650   5.241  13.328  1.0751 -0.4178  0.7238
 7631TIP3   OH244383   3.689   5.617  13.875 -0.4342  0.3809  0.2347
 7631TIP3    H144384   3.636   5.621  13.955  1.2854 -0.3437  1.4796
 7631TIP3    H244385   3.691   5.707  13.843  0.1061  1.0172  1.9197
 7632TIP3   OH244386   1.305   6.069  14.860 -0.2921 -0.4090 -0.6136
 7632TIP3    H144387   1.340   6.040  14.944 -0.5222 -1.7542 -0.9578
 7632TIP3    H244388   1.246   6.141  14.882  0.9606  0.4181  0.1850
 7633TIP3   OH244389   0.287   4.020   2.136 -0.5355 -0.2821  0.3325
 7633TIP3    H144390   0.255   4.096   2.185 -0.1637 -0.4573  0.8615
 7633TIP3    H244391   0.219   4.003   2.071 -0.6986  0.4021  0.3152
 7634TIP3   OH244392   5.070   3.163  16.209  0.1823  0.5986 -0.3555
 7634TIP3    H144393   5.062   3.240  16.264  2.4683  1.9986 -1.8089
 7634TIP3    H244394   5.031   3.189  16.126 -0.2194 -0.3002 -0.4577
 7635TIP3   OH244395   2.029   4.790  13.617  0.1369  0.0133  0.2909
 7635TIP3    H144396   2.066   4.864  13.570 -0.5441 -0.7763 -1.5576
 7635TIP3    H244397   2.045   4.811  13.709  1.1421  1.8040 -0.2316
 7636TIP3   OH244398   0.343   4.690   1.843 -0.3639 -0.0997 -0.9429
 7636TIP3    H144399   0.259   4.649   1.822  0.4980 -1.6369 -1.5142
 7636TIP3    H244400   0.331   4.782   1.819 -2.0176 -0.1908 -0.6038
 7637TIP3   OH244401   0.704   0.536  17.118 -0.1037  0.5766 -0.4724
 7637TIP3    H144402   0.681   0.562  17.207  0.2849  0.5022 -0.3501
 7637TIP3    H244403   0.632   0.480  17.090  1.2685 -2.1310  0.9814
 7638TIP3   OH244404   2.881   3.730   1.536  0.1404 -0.0890  0.2656
 7638TIP3    H144405   2.901   3.814   1.578 -1.9717  1.4000 -1.4292
 7638TIP3    H244406   2.927   3.734   1.453  0.0724 -0.6363  0.2018
 7639TIP3   OH244407   2.492   2.222   3.412  0.5840 -0.3670 -0.0320
 7639TIP3    H144408   2.585   2.242   3.409  0.5116 -0.0999 -1.5460
 7639TIP3    H244409   2.454   2.287   3.471  1.0087  1.1155 -1.3332
 7640TIP3   OH244410   3.510   1.942  16.728 -0.0861 -0.6110 -0.9902
 7640TIP3    H144411   3.534   1.913  16.815 -1.1524  1.8057  0.2027
 7640TIP3    H244412   3.576   1.905  16.670  1.0701 -1.6510  0.9382
 7641TIP3   OH244413   1.279   5.489  14.505 -0.0930  0.4918 -0.4963
 7641TIP3    H144414   1.317   5.524  14.425  0.0282  0.0849 -0.6150
 7641TIP3    H244415   1.233   5.564  14.544  2.1218  1.4265  0.4646
 7642TIP3   OH244416   0.198   5.656  13.820 -0.1078 -0.1551  0.1238
 7642TIP3    H144417   0.237   5.724  13.766 -0.5020  0.6867  0.8818
 7642TIP3    H244418   0.239   5.575  13.789  0.8895  0.4923 -0.3101
 7643TIP3   OH244419   2.194   0.377  12.961 -0.4434  0.1124  0.5069
 7643TIP3    H144420   2.107   0.339  12.947 -0.1026 -0.3875 -0.3724
 7643TIP3    H244421   2.229   0.329  13.037 -0.0315 -1.3668 -0.5669
 7644TIP3   OH244422   2.449   1.639   4.789  0.1898 -0.0091  0.2651
 7644TIP3    H144423   2.476   1.651   4.880 -0.2014 -0.9459  0.5190
 7644TIP3    H244424   2.519   1.680   4.738  0.8805 -0.2763  0.9667
 7645TIP3   OH244425   4.579   6.095  13.851  0.7073  0.2837 -0.4079
 7645TIP3    H144426   4.625   6.031  13.906 -1.5344 -0.5051  0.6563
 7645TIP3    H244427   4.501   6.118  13.901  0.9940  3.2475 -1.1809
 7646TIP3   OH244428   2.415   3.248   2.764  0.4833  0.3019  0.1377
 7646TIP3    H144429   2.390   3.170   2.814  0.9269  0.9546  1.4086
 7646TIP3    H244430   2.372   3.320   2.809  0.5543  0.8689 -0.6828
 7647TIP3   OH244431   6.316   6.278  12.124  0.6154 -0.7992 -0.1710
 7647TIP3    H144432   6.241   6.256  12.069  0.0048 -0.6887  0.5951
 7647TIP3    H244433   6.312   6.373  12.134  0.8102 -0.8015 -0.0625
 7648TIP3   OH244434   1.402   0.668   1.202 -0.3532 -0.4754  0.4380
 7648TIP3    H144435   1.327   0.702   1.154 -0.1615 -1.1244 -0.3476
 7648TIP3    H244436   1.368   0.591   1.248 -0.4012 -0.1845  0.8963
 7649TIP3   OH244437   5.840   5.536   3.525  0.1248  0.0693 -0.1490
 7649TIP3    H144438   5.780   5.500   3.589  0.4570 -0.4822 -0.1450
 7649TIP3    H244439   5.887   5.461   3.490  0.2123  0.4030 -0.7701
 7650TIP3   OH244440   5.442   2.891   4.144 -0.5040  0.4668  0.4598
 7650TIP3    H144441   5.374   2.943   4.104 -0.5300 -0.0684 -0.2052
 7650TIP3    H244442   5.432   2.804   4.106  0.7164  0.4445  0.1364
 7651TIP3   OH244443   6.398   0.833   0.090 -0.1690 -0.5985  0.0565
 7651TIP3    H144444   6.304   0.832   0.072 -0.2718 -1.8858  0.5606
 7651TIP3    H244445   6.437   0.794   0.012 -0.3213 -2.7954  1.0142
 7652TIP3   OH244446   6.445   0.929   3.983 -0.6326  0.1292  0.1395
 7652TIP3    H144447   6.399   0.911   3.902  0.9509  0.1543 -0.8054
 7652TIP3    H244448   6.434   1.023   3.997  0.1450  0.3657 -0.7484
 7653TIP3   OH244449   4.505   2.439   2.522 -0.1819 -0.6768 -0.4796
 7653TIP3    H144450   4.458   2.390   2.590  0.6818  0.1489  0.7566
 7653TIP3    H244451   4.441   2.500   2.487 -0.6514 -1.1439 -0.4500
 7654TIP3   OH244452   4.097   2.275   0.691  0.7315  0.2207 -0.2484
 7654TIP3    H144453   4.053   2.307   0.611  1.3106  0.7958 -0.3473
 7654TIP3    H244454   4.061   2.330   0.761  0.2413 -0.2684 -0.1085
 7655TIP3   OH244455   1.364   0.817   3.532 -0.3654  0.2551 -0.6834
 7655TIP3    H144456   1.413   0.748   3.575 -2.0658  0.0182  0.9765
 7655TIP3    H244457   1.323   0.774   3.457 -1.6648 -0.6376  0.5132
 7656TIP3   OH244458   6.731   5.879  13.270 -0.1541 -0.2575  0.0861
 7656TIP3    H144459   6.681   5.877  13.352  0.5222 -0.7774  0.4963
 7656TIP3    H244460   6.710   5.795  13.228  2.4755 -1.7821  1.5723
 7657TIP3   OH244461   0.802   1.197   3.607  0.1667  0.6593  0.5828
 7657TIP3    H144462   0.893   1.218   3.630  0.7534 -0.9259 -0.1559
 7657TIP3    H244463   0.773   1.139   3.678 -0.1960  0.9904  0.7047
 7658TIP3   OH244464   2.095   3.528  11.029 -0.4952 -0.3003  0.8276
 7658TIP3    H144465   2.152   3.592  10.986 -1.2827  0.4563  0.8641
 7658TIP3    H244466   2.080   3.461  10.963  0.9171 -0.8267  1.0215
 7659TIP3   OH244467   1.296   2.144  15.952 -0.2466 -0.4699 -0.2466
 7659TIP3    H144468   1.230   2.198  15.908 -0.4983 -0.2377  0.4007
 7659TIP3    H244469   1.283   2.162  16.045  1.0853 -0.0072 -0.1265
 7660TIP3   OH244470   2.539   6.131  15.964  0.4246  0.1039  0.6805
 7660TIP3    H144471   2.626   6.162  15.987  0.3682 -1.1889  2.8670
 7660TIP3    H244472   2.547   6.100  15.874  1.6164  2.0682  0.0617
 7661TIP3   OH244473   5.082   4.872  11.005 -0.7542  0.2303 -0.3014
 7661TIP3    H144474   4.987   4.855  11.008 -0.7610  0.1221 -1.0421
 7661TIP3    H244475   5.100   4.890  10.913 -0.6323  3.6152  0.2644
 7662TIP3   OH244476   1.038   2.097  11.993 -0.2996  0.6677 -0.5699
 7662TIP3    H144477   0.998   2.167  12.045 -1.2518  0.5103 -1.0628
 7662TIP3    H244478   0.980   2.022  12.006  0.3996  0.1348 -0.5019
 7663TIP3   OH244479   1.619   0.600  14.320 -0.0745 -0.7570 -0.5506
 7663TIP3    H144480   1.549   0.583  14.257  0.1738 -2.5339 -0.3932
 7663TIP3    H244481   1.683   0.653  14.272  0.9573 -3.4934 -2.4532
 7664TIP3   OH244482   0.649   1.530   5.337  0.0201 -0.7037  0.3348
 7664TIP3    H144483   0.696   1.525   5.420  0.8977 -0.0015 -0.1068
 7664TIP3    H244484   0.557   1.543   5.362  0.5038  1.5085  1.2228
 7665TIP3   OH244485   0.814   5.315  11.639 -0.3495  0.6466  0.2189
 7665TIP3    H144486   0.896   5.357  11.666  1.4413 -1.6103 -1.3009
 7665TIP3    H244487   0.790   5.360  11.558  0.9012 -0.3665 -0.7587
 7666TIP3   OH244488   6.747   0.045   4.334  0.2022 -0.1913 -0.4027
 7666TIP3    H144489   6.765  -0.047   4.318 -2.6917 -1.1540  1.1099
 7666TIP3    H244490   6.703   0.046   4.419 -0.7140  2.4569 -0.8166
 7667TIP3   OH244491   5.602   5.961  10.806 -0.1752 -0.3587  0.7282
 7667TIP3    H144492   5.626   6.053  10.813 -1.0291 -0.2145  2.0397
 7667TIP3    H244493   5.554   5.942  10.887 -0.8499 -1.7054  0.0459
 7668TIP3   OH244494   1.293   2.989  11.015 -0.3618  0.3966 -0.4816
 7668TIP3    H144495   1.385   2.970  11.029 -0.5287 -0.5496 -0.5969
 7668TIP3    H244496   1.292   3.075  10.974  0.4729  0.3458 -0.6222
 7669TIP3   OH244497   1.571   0.696   2.710 -0.0099  0.0065  0.0477
 7669TIP3    H144498   1.477   0.683   2.720  0.0099 -0.3264 -0.1748
 7669TIP3    H244499   1.609   0.655   2.787  0.1003 -1.9662 -0.9901
 7670TIP3   OH244500   6.326   0.878   1.832 -0.6894  0.0311  0.5289
 7670TIP3    H144501   6.342   0.960   1.785 -1.3744  1.2379  2.3155
 7670TIP3    H244502   6.236   0.856   1.810 -1.6066  1.5213  2.5157
 7671TIP3   OH244503   1.106   4.215  14.869  0.0302  0.1663 -0.0201
 7671TIP3    H144504   1.191   4.246  14.901  0.4060 -1.2335  0.4181
 7671TIP3    H244505   1.058   4.190  14.948  0.0564 -1.0891 -0.3790
 7672TIP3   OH244506   3.403   2.411   6.352  0.2893  0.1959 -0.4050
 7672TIP3    H144507   3.493   2.429   6.327  0.7436  1.1982  1.6780
 7672TIP3    H244508   3.359   2.496   6.349  0.3831  0.3953  1.9575
 7673TIP3   OH244509   6.075   2.961   5.563  0.0337  0.0565  0.2209
 7673TIP3    H144510   6.148   2.908   5.532 -1.0170 -1.9139  0.9449
 7673TIP3    H244511   5.999   2.928   5.514 -0.5725  1.3400  0.2497
 7674TIP3   OH244512   4.156   4.398  16.484  0.1048 -0.8124  0.5719
 7674TIP3    H144513   4.168   4.483  16.442  0.1985 -0.5363  1.1526
 7674TIP3    H244514   4.242   4.356  16.480  0.7221  0.1442  2.4909
 7675TIP3   OH244515   2.923   6.681  11.144  0.5810 -0.3099 -0.4121
 7675TIP3    H144516   2.990   6.737  11.104  0.9203 -1.6175 -1.7665
 7675TIP3    H244517   2.844   6.697  11.093  0.2589  0.0741  0.1938
 7676TIP3   OH244518   0.703   2.822   1.778 -0.1764 -0.1794  0.1367
 7676TIP3    H144519   0.729   2.731   1.790  1.6760  0.3871  0.5864
 7676TIP3    H244520   0.735   2.844   1.690 -0.8182  0.0039 -0.0619
 7677TIP3   OH244521   0.008   4.701  14.458 -0.2021 -0.4297  0.1398
 7677TIP3    H144522   0.102   4.689  14.466 -0.2745 -0.9898  0.2215
 7677TIP3    H244523  -0.006   4.718  14.364 -0.0965 -1.1475 -0.0125
 7678TIP3   OH244524   5.516   5.771   5.462 -0.0175 -0.1926  0.2224
 7678TIP3    H144525   5.435   5.730   5.491 -1.0052  0.9719 -0.7835
 7678TIP3    H244526   5.494   5.813   5.378  1.9393 -0.9064 -0.7277
 7679TIP3   OH244527   3.469   0.896   4.166 -0.4620 -0.2967 -0.3961
 7679TIP3    H144528   3.463   0.991   4.169 -2.6042 -0.3506 -1.0161
 7679TIP3    H244529   3.380   0.866   4.183  0.2976 -2.2366  0.5023
 7680TIP3   OH244530   2.841   6.608  15.635 -0.3168 -0.6115 -0.0458
 7680TIP3    H144531   2.931   6.579  15.619 -0.2850 -0.4340 -0.1972
 7680TIP3    H244532   2.832   6.688  15.582 -0.1698  0.0747  0.9294
 7681TIP3   OH244533   0.408   5.984   2.105  0.2415 -0.4677  0.3029
 7681TIP3    H144534   0.484   6.038   2.080 -0.6728  0.6711 -0.1332
 7681TIP3    H244535   0.420   5.969   2.199  1.3079 -0.8149  0.1288
 7682TIP3   OH244536   2.113   4.657  11.049  0.1783 -0.2604 -0.9610
 7682TIP3    H144537   2.086   4.608  10.971 -0.3307  1.2829 -1.7964
 7682TIP3    H244538   2.205   4.633  11.061 -0.1518 -1.7170 -1.0858
 7683TIP3   OH244539   2.900   1.368   4.067  0.4181  0.2701  0.2877
 7683TIP3    H144540   2.830   1.429   4.045 -0.6526 -0.7819  0.7061
 7683TIP3    H244541   2.897   1.361   4.163 -0.7353 -1.8619  0.1443
 7684TIP3   OH244542   1.896   6.610   1.020  0.3801  0.3938  0.5174
 7684TIP3    H144543   1.966   6.605   1.085  1.1452  1.8534 -0.1425
 7684TIP3    H244544   1.933   6.664   0.950 -0.6143 -0.6899 -0.8848
 7685TIP3   OH244545   2.551   0.133  14.688 -0.2251 -0.2074  0.3136
 7685TIP3    H144546   2.498   0.072  14.637  1.5590 -1.7489  0.1990
 7685TIP3    H244547   2.641   0.114  14.661  0.6628 -0.0090  2.9236
 7686TIP3   OH244548   5.451   6.045   2.451  0.8333  0.2310  0.5242
 7686TIP3    H144549   5.501   6.051   2.371 -2.7367 -1.4861 -2.1444
 7686TIP3    H244550   5.421   6.134   2.468  0.7261  0.4595 -0.7592
 7687TIP3   OH244551   4.499   6.209   6.406 -0.3288 -0.2161  0.4894
 7687TIP3    H144552   4.525   6.297   6.435 -1.0827 -0.0742  0.7389
 7687TIP3    H244553   4.556   6.150   6.456  1.2388  0.1501 -0.7628
 7688TIP3   OH244554   2.478   2.404  13.251 -0.0431  0.0800  0.5515
 7688TIP3    H144555   2.451   2.488  13.213  0.1189  0.1312  0.5452
 7688TIP3    H244556   2.564   2.387  13.212  0.6431  0.6892  1.7161
 7689TIP3   OH244557   0.175   3.980  15.626  0.4145 -0.0414  0.2741
 7689TIP3    H144558   0.269   3.985  15.642  0.4205  0.2844  0.1439
 7689TIP3    H244559   0.136   3.965  15.713  0.3677  2.6634  0.8331
 7690TIP3   OH244560   5.435   2.586  15.352  0.3667  0.1215  0.1854
 7690TIP3    H144561   5.391   2.633  15.424  2.1770  0.7529  0.9394
 7690TIP3    H244562   5.380   2.603  15.276 -1.1078  0.2160  1.2280
 7691TIP3   OH244563   0.657   3.308  16.486 -0.2428 -0.1698 -0.1348
 7691TIP3    H144564   0.573   3.348  16.508  0.2333 -0.5323  2.7330
 7691TIP3    H244565   0.710   3.379  16.452 -1.1903  0.4111 -0.4237
 7692TIP3   OH244566   2.162   3.475   4.439  0.0279  0.0375 -0.0149
 7692TIP3    H144567   2.100   3.488   4.511 -0.2055 -0.0649 -0.1954
 7692TIP3    H244568   2.248   3.480   4.480 -0.1127 -0.5894  0.3694
 7693TIP3   OH244569   1.509   2.194  14.297  0.0778 -0.1619 -0.4770
 7693TIP3    H144570   1.569   2.269  14.298 -0.9027  0.6473  0.8962
 7693TIP3    H244571   1.563   2.120  14.326  0.4070  0.5901  0.9312
 7694TIP3   OH244572   5.833   1.516   6.072 -0.0694 -0.2169 -0.0041
 7694TIP3    H144573   5.790   1.460   6.136  1.1401 -0.9212  0.2172
 7694TIP3    H244574   5.925   1.489   6.073 -0.1599 -1.0447 -2.8464
 7695TIP3   OH244575   6.167   6.556  15.288  0.0085  0.1220  0.5327
 7695TIP3    H144576   6.224   6.591  15.356 -0.5618  2.3961 -0.0935
 7695TIP3    H244577   6.079   6.586  15.312  0.1829  4.5299 -3.1059
 7696TIP3   OH244578   5.940   1.191   1.776  0.4087 -0.7042  0.8340
 7696TIP3    H144579   5.959   1.247   1.701  1.7052 -0.5544  1.2514
 7696TIP3    H244580   5.855   1.152   1.756  0.0330  0.4787 -0.0150
 7697TIP3   OH244581   0.547   5.210  13.461 -0.2915 -0.0126 -0.2322
 7697TIP3    H144582   0.538   5.270  13.388 -0.2391  0.2842  0.0053
 7697TIP3    H244583   0.543   5.123  13.421  1.7788  0.1307 -0.8779
 7698TIP3   OH244584   1.874   3.757  13.745 -0.5748  0.2012 -0.1482
 7698TIP3    H144585   1.843   3.798  13.665  1.5323  1.5865 -0.3253
 7698TIP3    H244586   1.963   3.729  13.726 -0.4687 -0.6040  1.3262
 7699TIP3   OH244587   5.452   2.310   2.567 -0.0263  0.4211 -0.1962
 7699TIP3    H144588   5.389   2.274   2.504 -0.1231  2.1806 -1.1680
 7699TIP3    H244589   5.499   2.233   2.599 -1.2407 -0.7233 -1.0120
 7700TIP3   OH244590   6.732   3.598   5.326  0.3796 -0.0261 -0.0044
 7700TIP3    H144591   6.702   3.688   5.317  0.6263 -0.0221 -0.7709
 7700TIP3    H244592   6.827   3.604   5.327  0.4461 -0.4083 -1.6162
 7701TIP3   OH244593   5.481   2.965  16.904 -0.3150  1.0369 -0.2715
 7701TIP3    H144594   5.418   2.894  16.914 -0.4765  1.2088 -0.0712
 7701TIP3    H244595   5.511   2.984  16.993 -1.6399  2.4654 -0.0864
 7702TIP3   OH244596   5.648   4.117  13.899  0.0327 -0.1851 -0.2152
 7702TIP3    H144597   5.687   4.182  13.957 -0.9369  1.2206 -1.0844
 7702TIP3    H244598   5.570   4.087  13.945 -0.1723  0.1589 -0.3391
 7703TIP3   OH244599   5.039   6.684  13.657 -0.0851  0.1079  0.3181
 7703TIP3    H144600   4.961   6.631  13.639 -0.8814  1.3371 -0.0360
 7703TIP3    H244601   5.079   6.643  13.733 -0.6981 -0.9559  0.0924
 7704TIP3   OH244602   3.209   3.149  13.374 -0.3149  0.3666  0.2020
 7704TIP3    H144603   3.161   3.071  13.347 -0.6994 -0.4029  2.8288
 7704TIP3    H244604   3.283   3.154  13.312 -0.5629 -1.7613 -0.3555
 7705TIP3   OH244605   6.522   4.188  14.116  0.2290 -0.2834 -0.3766
 7705TIP3    H144606   6.514   4.244  14.192  1.8789 -0.8440  0.2544
 7705TIP3    H244607   6.593   4.127  14.137 -0.3547 -1.5143 -1.7079
 7706TIP3   OH244608   5.062   3.799  13.250  0.7816 -0.1268  0.3555
 7706TIP3    H144609   5.134   3.828  13.194  0.1676  1.9594  0.5750
 7706TIP3    H244610   5.102   3.739  13.313  2.6945  2.1911  1.4733
 7707TIP3   OH244611   4.230   0.813  13.080  0.0434 -0.6466 -0.0982
 7707TIP3    H144612   4.305   0.821  13.139  0.5870  0.3205 -0.9000
 7707TIP3    H244613   4.157   0.794  13.138  0.4800  0.7072  0.9642
 7708TIP3   OH244614   0.206   6.521  16.870 -0.2296 -0.2382  0.2682
 7708TIP3    H144615   0.139   6.489  16.931  0.5010 -0.6613  0.8681
 7708TIP3    H244616   0.167   6.598  16.829 -1.5450 -1.1800 -0.2937
 7709TIP3   OH244617   1.462   0.732  13.305 -0.6574 -0.7985  0.2678
 7709TIP3    H144618   1.540   0.785  13.290 -2.1220  1.3666 -0.1309
 7709TIP3    H244619   1.412   0.740  13.224 -2.5021  0.0769  1.4288
 7710TIP3   OH244620   3.327   6.203  11.589  0.2159  0.4403 -0.5769
 7710TIP3    H144621   3.403   6.253  11.622 -0.2338 -0.0720  1.3954
 7710TIP3    H244622   3.251   6.246  11.629 -0.5649  0.8638 -2.4209
 7711TIP3   OH244623   1.669   1.410   0.016 -0.7898  0.3379  0.7591
 7711TIP3    H144624   1.763   1.407  -0.000 -0.8928 -0.0431  0.2308
 7711TIP3    H244625   1.648   1.324   0.052 -1.4878 -0.8036 -2.1765
 7712TIP3   OH244626   3.473   2.353   3.716 -0.4604 -0.1150  0.2668
 7712TIP3    H144627   3.550   2.409   3.702 -0.7972  1.0597  2.5258
 7712TIP3    H244628   3.399   2.409   3.693 -0.7038 -0.8783 -0.8675
 7713TIP3   OH244629   3.389   3.249  16.036 -0.0144 -0.0112 -0.2092
 7713TIP3    H144630   3.462   3.281  15.982 -1.0039  2.1617 -0.3571
 7713TIP3    H244631   3.421   3.256  16.126  0.4791 -0.5244 -0.3365
 7714TIP3   OH244632   0.584   3.006  13.529 -0.6334  0.0457  0.1428
 7714TIP3    H144633   0.607   3.071  13.463  1.2759  0.2640  0.9442
 7714TIP3    H244634   0.498   3.032  13.560 -0.5464  1.3137 -0.6032
 7715TIP3   OH244635   1.323   3.364   0.386 -0.0565 -0.0451  0.1768
 7715TIP3    H144636   1.259   3.389   0.319 -0.1334  0.4927  0.4479
 7715TIP3    H244637   1.311   3.269   0.395  1.2400 -0.4600 -1.8905
 7716TIP3   OH244638   5.966   4.827  16.483  0.0038 -0.0939  0.4787
 7716TIP3    H144639   6.053   4.816  16.446 -0.1021  1.3683 -0.2844
 7716TIP3    H244640   5.912   4.764  16.436  0.0073  1.2789 -1.4828
 7717TIP3   OH244641   0.013   5.701  16.564 -0.0582  0.2518 -0.3369
 7717TIP3    H144642  -0.036   5.631  16.606  0.7940 -0.4796 -0.5208
 7717TIP3    H244643  -0.017   5.701  16.473 -0.9552  0.9679 -0.0553
 7718TIP3   OH244644   1.870   3.689   6.584 -0.3675  0.0168 -0.0826
 7718TIP3    H144645   1.814   3.677   6.508 -0.1916  0.2610 -0.2525
 7718TIP3    H244646   1.914   3.604   6.595  1.2215  0.5879 -1.5661
 7719TIP3   OH244647   0.471   6.408  10.653  0.0245 -0.5072 -0.5919
 7719TIP3    H144648   0.522   6.460  10.715  0.5720 -0.9035 -0.7061
 7719TIP3    H244649   0.490   6.317  10.676  0.5381 -0.6632 -1.5776
 7720TIP3   OH244650   2.687   4.060  15.884 -0.2631 -0.5072 -0.3049
 7720TIP3    H144651   2.681   4.115  15.806  0.4901 -0.3832 -0.2805
 7720TIP3    H244652   2.751   3.993  15.862  0.4473 -0.0856  0.4403
 7721TIP3   OH244653   5.776   3.278  10.443  0.1976 -0.1541 -0.2060
 7721TIP3    H144654   5.829   3.204  10.472 -1.0248 -1.3730 -0.9761
 7721TIP3    H244655   5.769   3.267  10.349 -0.8384  0.3623 -0.2032
 7722TIP3   OH244656   4.062   1.287  13.671 -0.2065  0.5680  0.6262
 7722TIP3    H144657   4.098   1.309  13.585 -3.5077 -0.7390 -1.2636
 7722TIP3    H244658   4.068   1.191  13.675 -0.0292  0.6114  1.9461
 7723TIP3   OH244659   2.601   1.361   4.608  1.2544  0.1703 -0.1293
 7723TIP3    H144660   2.547   1.368   4.687  0.8668 -0.3646 -0.3391
 7723TIP3    H244661   2.623   1.452   4.585 -0.4548  0.4932 -0.6408
 7724TIP3   OH244662   1.482   2.801   4.680 -0.0687  0.3062 -0.6363
 7724TIP3    H144663   1.563   2.777   4.634  0.1138  1.4204 -0.9395
 7724TIP3    H244664   1.491   2.763   4.767 -0.2192 -1.4711 -1.3506
 7725TIP3   OH244665   4.029   4.324  12.176  0.2448 -0.4879 -0.2487
 7725TIP3    H144666   4.101   4.269  12.205  3.3983  3.1462 -0.3997
 7725TIP3    H244667   4.025   4.394  12.241 -1.5134  0.7315 -1.5723
 7726TIP3   OH244668   3.857   5.906   4.747 -0.3459 -0.2059  0.0706
 7726TIP3    H144669   3.912   5.837   4.710  0.8547 -0.0574  1.5035
 7726TIP3    H244670   3.881   5.910   4.839 -2.8047 -0.1587  0.7865
 7727TIP3   OH244671   2.111   4.994   2.880 -0.3422 -0.3513  0.0264
 7727TIP3    H144672   2.088   5.079   2.842  1.4869  0.2790  0.2065
 7727TIP3    H244673   2.033   4.967   2.927 -1.9108 -0.0871 -2.2826
 7728TIP3   OH244674   1.599   3.899   2.242 -0.0344  0.3170  0.1111
 7728TIP3    H144675   1.591   3.855   2.157 -0.2135  3.5657 -1.7449
 7728TIP3    H244676   1.513   3.889   2.282  0.0284 -1.2042 -0.0631
 7729TIP3   OH244677   0.267   4.110   4.630  0.3441 -0.5372  0.3835
 7729TIP3    H144678   0.305   4.196   4.650 -2.2963  0.8655 -0.0738
 7729TIP3    H244679   0.176   4.117   4.661  0.5382 -3.9073  2.1722
 7730TIP3   OH244680   5.593   6.196   1.217 -0.1217  0.3231  0.2414
 7730TIP3    H144681   5.584   6.275   1.163  0.6272  0.1483 -0.1576
 7730TIP3    H244682   5.566   6.223   1.305  1.4872  1.4140  0.4288
 7731TIP3   OH244683   0.009   0.835  14.351 -0.6541  0.0720 -0.2342
 7731TIP3    H144684  -0.042   0.916  14.359 -1.9016 -0.7942  1.1405
 7731TIP3    H244685   0.022   0.807  14.442  0.3844 -0.9054 -0.6646
 7732TIP3   OH244686   4.515   2.469   1.550  0.0594 -0.4139 -0.6852
 7732TIP3    H144687   4.609   2.486   1.544  0.1224 -0.2391  0.5679
 7732TIP3    H244688   4.509   2.388   1.601 -0.4868  0.2688  0.3740
 7733TIP3   OH244689   5.043   4.287  15.339 -0.7372 -0.8885 -0.0786
 7733TIP3    H144690   5.043   4.238  15.421 -0.9192 -0.7734 -0.0086
 7733TIP3    H244691   5.079   4.226  15.274 -1.7075 -1.3944 -0.1542
 7734TIP3   OH244692   5.934   5.243  11.641 -0.7861 -0.3103 -1.0479
 7734TIP3    H144693   5.976   5.209  11.720 -0.6789  1.4603 -0.3135
 7734TIP3    H244694   5.995   5.220  11.570  0.2614  0.0918 -0.3116
 7735TIP3   OH244695   2.255   2.973  13.772 -0.2176 -0.2262 -0.0512
 7735TIP3    H144696   2.192   2.980  13.700 -1.0175 -2.3082  0.3740
 7735TIP3    H244697   2.235   3.047  13.829 -1.4520 -0.1438 -0.5601
 7736TIP3   OH244698   3.181   1.971  10.744  0.4373  0.1492 -0.4742
 7736TIP3    H144699   3.087   1.956  10.743  0.3616  0.5204  0.4312
 7736TIP3    H244700   3.208   1.950  10.834  1.4935 -1.6119 -1.1411
 7737TIP3   OH244701   3.353   5.271  10.781  0.2820  0.1686  0.4218
 7737TIP3    H144702   3.429   5.219  10.807 -0.5626  0.1875  3.2172
 7737TIP3    H244703   3.391   5.348  10.739  1.9347  0.7998  2.8749
 7738TIP3   OH244704   1.925   6.280   4.660 -0.8356 -0.0865  0.1283
 7738TIP3    H144705   1.918   6.251   4.569 -0.7318 -0.0167  0.0970
 7738TIP3    H244706   1.959   6.205   4.708  0.4871  0.3096 -0.1446
 7739TIP3   OH244707   0.532   1.494  12.538  0.1859 -0.5473 -0.5306
 7739TIP3    H144708   0.573   1.462  12.618  2.4353  1.5215 -0.7268
 7739TIP3    H244709   0.506   1.415  12.491  2.1240 -1.9424  0.6127
 7740TIP3   OH244710   0.452   2.630   4.444 -0.0146  0.2718 -0.9798
 7740TIP3    H144711   0.501   2.549   4.455 -1.3373 -0.9089 -3.0174
 7740TIP3    H244712   0.408   2.643   4.528 -0.3775 -1.5631 -0.8334
 7741TIP3   OH244713   3.325   1.616   3.493 -0.3443 -0.2761 -0.6250
 7741TIP3    H144714   3.297   1.667   3.418  1.4059  0.5139 -0.7983
 7741TIP3    H244715   3.400   1.565   3.461 -0.9003 -1.5550  0.0368
 7742TIP3   OH244716   2.207   5.565   5.126 -0.4686  0.9030 -0.1526
 7742TIP3    H144717   2.168   5.619   5.195 -0.2934  0.0783  0.6229
 7742TIP3    H244718   2.301   5.582   5.132 -0.5104  1.2823 -0.5878
 7743TIP3   OH244719   2.297   2.178   4.271  0.7781  0.5187 -0.3682
 7743TIP3    H144720   2.205   2.167   4.250  0.5370  2.7760 -0.7985
 7743TIP3    H244721   2.339   2.194   4.186  1.5965 -0.6280 -0.1952
 7744TIP3   OH244722   3.442   3.301  16.805 -0.0813  0.1907  0.4682
 7744TIP3    H144723   3.399   3.382  16.831  1.4000  0.9954  0.5312
 7744TIP3    H244724   3.394   3.232  16.851 -0.8399  1.1063  1.0772
 7745TIP3   OH244725   3.145   1.275   0.570 -0.0990 -0.0479  0.1160
 7745TIP3    H144726   3.235   1.291   0.598 -0.3671  0.1877  0.8826
 7745TIP3    H244727   3.125   1.347   0.510 -0.2125  0.6616  0.9897
 7746TIP3   OH244728   0.110   6.040   4.711  0.3271 -0.3552 -0.2584
 7746TIP3    H144729   0.124   5.946   4.725  2.0633 -0.2486 -0.9492
 7746TIP3    H244730   0.087   6.047   4.619 -0.4387 -0.1561 -0.0528
 7747TIP3   OH244731   2.177   2.737   5.965 -0.4323 -1.1070  0.8135
 7747TIP3    H144732   2.190   2.812   6.024  2.9736  0.9854 -2.1499
 7747TIP3    H244733   2.198   2.661   6.019 -0.1706  0.3972  2.9930
 7748TIP3   OH244734   0.635   4.871  12.672  0.0734  0.0202  0.4221
 7748TIP3    H144735   0.639   4.880  12.767  1.5555 -2.9306  0.7642
 7748TIP3    H244736   0.688   4.793  12.653  0.1783  0.7303 -2.8776
 7749TIP3   OH244737   4.748   2.431  14.741 -0.3087  0.2631  0.5576
 7749TIP3    H144738   4.737   2.348  14.695 -1.9453  1.7864 -1.9574
 7749TIP3    H244739   4.694   2.493  14.694 -1.5620  2.1857  4.1414
 7750TIP3   OH244740   3.624   2.366   5.451  0.5060 -0.4922 -0.1312
 7750TIP3    H144741   3.572   2.306   5.505 -0.8748 -0.8085 -1.7425
 7750TIP3    H244742   3.574   2.448   5.450  0.8473 -0.2810 -0.4155
 7751TIP3   OH244743   5.972   2.370  17.069 -0.0401 -0.4909 -0.2683
 7751TIP3    H144744   6.066   2.356  17.055  0.1429  0.5970 -0.1826
 7751TIP3    H244745   5.932   2.350  16.984  0.3656 -0.1387 -0.5449
 7752TIP3   OH244746   1.411   1.836   5.896  0.3392  0.2047  0.3778
 7752TIP3    H144747   1.467   1.851   5.819 -0.2125  0.4599  0.0216
 7752TIP3    H244748   1.441   1.900   5.960 -0.3690  1.2137 -0.2623
 7753TIP3   OH244749   5.063   6.524  13.864 -0.2995 -0.3686  0.0971
 7753TIP3    H144750   5.133   6.578  13.900 -1.4797  1.5558 -0.2795
 7753TIP3    H244751   5.038   6.466  13.935  1.6391 -1.0953  0.2301
 7754TIP3   OH244752   5.576   5.099   3.659  0.3368  0.0691  0.5170
 7754TIP3    H144753   5.529   5.086   3.742 -0.4161  0.2325  0.1200
 7754TIP3    H244754   5.604   5.191   3.661 -2.9254  1.2342 -1.0129
 7755TIP3   OH244755   6.366   1.240  13.448  0.3573  0.3904 -0.3932
 7755TIP3    H144756   6.324   1.305  13.391 -0.9336 -0.9312 -1.0089
 7755TIP3    H244757   6.393   1.170  13.389  2.7051  0.7839  0.1137
 7756TIP3   OH244758   6.722   1.542   4.451 -0.2757 -0.2625 -0.3493
 7756TIP3    H144759   6.744   1.614   4.510 -1.3673  0.9686 -1.3925
 7756TIP3    H244760   6.760   1.465   4.493 -0.8960  0.5722  1.9226
 7757TIP3   OH244761   3.355   0.204   4.738  0.5285 -0.1565  0.1321
 7757TIP3    H144762   3.300   0.236   4.666 -0.2739  0.0748  0.8443
 7757TIP3    H244763   3.442   0.195   4.698  0.2764  0.7495 -0.6615
 7758TIP3   OH244764   5.961   0.746   0.795 -0.2967 -0.5260 -0.2464
 7758TIP3    H144765   5.908   0.707   0.865 -0.5212 -0.2311 -0.2458
 7758TIP3    H244766   5.937   0.839   0.797  2.4530  0.2807  1.8105
 7759TIP3   OH244767   6.074   0.710  15.615 -0.0615  0.0868 -0.4028
 7759TIP3    H144768   6.166   0.697  15.634 -0.6517 -0.9154  2.1633
 7759TIP3    H244769   6.028   0.654  15.677 -2.4189  0.7438 -1.4294
 7760TIP3   OH244770   2.582   0.109   4.951 -0.6185 -0.0508  0.2308
 7760TIP3    H144771   2.571   0.172   4.880 -1.2929 -0.4232 -0.0019
 7760TIP3    H244772   2.676   0.110   4.970 -0.4410  0.0919 -0.6263
 7761TIP3   OH244773   6.262   5.052  12.481 -0.6098  0.3794  0.4251
 7761TIP3    H144774   6.250   4.967  12.439 -1.5808 -0.0426  1.4894
 7761TIP3    H244775   6.204   5.111  12.432 -0.0130  0.4158 -0.2500
 7762TIP3   OH244776   1.446   5.934  14.339  0.2781 -0.4205  0.0676
 7762TIP3    H144777   1.494   5.880  14.401  0.1853  0.6321  1.0968
 7762TIP3    H244778   1.509   6.001  14.312 -0.0482 -0.1388 -0.0026
 7763TIP3   OH244779   6.657   5.652  14.137 -0.0117  0.2025  0.1866
 7763TIP3    H144780   6.651   5.684  14.047  0.6469  1.3569  0.5414
 7763TIP3    H244781   6.593   5.704  14.185  0.0448 -0.0199  0.5010
 7764TIP3   OH244782   2.238   3.724  14.907  0.7552  0.3470 -0.0895
 7764TIP3    H144783   2.312   3.721  14.846  0.6385  1.2944 -0.2998
 7764TIP3    H244784   2.212   3.816  14.908  0.0754  0.1571  0.5850
 7765TIP3   OH244785   1.097   6.374  13.252 -0.4789 -0.0043 -0.3179
 7765TIP3    H144786   1.153   6.304  13.286  0.9987 -0.0552 -2.5761
 7765TIP3    H244787   1.157   6.446  13.235 -0.7784 -0.3535 -3.6646
 7766TIP3   OH244788   3.879   2.244  16.462  0.5188 -0.3355  0.5108
 7766TIP3    H144789   3.823   2.169  16.442  1.9544 -1.6926  1.3780
 7766TIP3    H244790   3.898   2.236  16.556 -0.7601  2.1784  1.0771
 7767TIP3   OH244791   4.953   5.964  15.680 -0.3124  0.3304  0.4882
 7767TIP3    H144792   4.936   5.934  15.769 -0.4931  0.0545  0.3634
 7767TIP3    H244793   5.043   5.939  15.662 -0.2044  0.5914  0.6781
 7768TIP3   OH244794   5.352   5.314   5.595  0.1761 -0.0991 -0.3396
 7768TIP3    H144795   5.321   5.225   5.612 -0.1953  0.0251 -0.3612
 7768TIP3    H244796   5.416   5.331   5.664 -0.0611 -0.2301 -0.0828
 7769TIP3   OH244797   3.172   2.602  10.494  0.5886  0.0351 -0.5873
 7769TIP3    H144798   3.255   2.598  10.540  0.2399  0.7872  0.1376
 7769TIP3    H244799   3.152   2.510  10.472  0.0437 -0.6132  2.1307
 7770TIP3   OH244800   3.399   6.806  11.704 -0.1495  0.2540  0.2637
 7770TIP3    H144801   3.460   6.875  11.732  0.0302 -0.6838  2.3167
 7770TIP3    H244802   3.452   6.748  11.649  1.4080 -1.4542  3.3175
 7771TIP3   OH244803   3.549   1.121   5.591  0.2820 -0.2561 -0.1492
 7771TIP3    H144804   3.458   1.151   5.592  0.5095  0.4782  1.4603
 7771TIP3    H244805   3.596   1.189   5.544  0.0802 -0.4115 -0.5837
 7772TIP3   OH244806   4.697   3.612  14.756 -0.1555  0.5644  0.1889
 7772TIP3    H144807   4.759   3.652  14.817 -1.1698  1.5923  0.5798
 7772TIP3    H244808   4.665   3.686  14.704  1.2161 -0.3555 -2.1148
 7773TIP3   OH244809   3.938   6.819   3.430  0.4351  0.2562 -0.0204
 7773TIP3    H144810   3.929   6.800   3.337 -2.1764  1.1744 -0.0258
 7773TIP3    H244811   3.854   6.792   3.468  0.5637  2.0069  1.6627
 7774TIP3   OH244812   0.980   0.045  13.456 -0.0472 -0.4329  0.5935
 7774TIP3    H144813   0.917   0.055  13.527  0.0995 -1.7079  0.9234
 7774TIP3    H244814   0.958   0.115  13.395 -2.2340 -1.2277  0.3763
 7775TIP3   OH244815   4.985   5.971   2.879 -0.4835 -0.1521 -0.2922
 7775TIP3    H144816   5.029   6.053   2.902 -1.2506  0.0750  0.4509
 7775TIP3    H244817   5.049   5.903   2.899 -0.3959  0.1801  0.6131
 7776TIP3   OH244818   2.429   4.853  17.023 -0.1684  0.4758  0.2115
 7776TIP3    H144819   2.502   4.897  16.978 -0.2596  0.1842 -0.2310
 7776TIP3    H244820   2.444   4.760  17.006 -1.9258  0.5038 -1.9138
 7777TIP3   OH244821   0.286   5.777   3.809  0.3590 -0.1504 -0.5655
 7777TIP3    H144822   0.273   5.699   3.863 -1.4572 -1.3034 -2.4912
 7777TIP3    H244823   0.201   5.793   3.769  0.1226  4.0462  1.1767
 7778TIP3   OH244824   3.269   0.812   1.750 -0.4448 -0.1155  0.4688
 7778TIP3    H144825   3.209   0.844   1.818 -0.2065 -0.7334  0.9874
 7778TIP3    H244826   3.310   0.891   1.715 -1.8820  0.3452 -0.2116
 7779TIP3   OH244827   5.216   4.053   2.931 -0.3384 -0.6593  0.0647
 7779TIP3    H144828   5.191   4.018   2.845 -0.2527 -0.9274  0.1484
 7779TIP3    H244829   5.281   4.120   2.910 -1.1645  0.0893 -0.1566
 7780TIP3   OH244830   1.210   0.660  16.783 -0.4419  0.3653 -0.4964
 7780TIP3    H144831   1.268   0.733  16.805 -2.4227  2.2342 -1.0584
 7780TIP3    H244832   1.230   0.593  16.848  0.5295  1.9452  0.9272
 7781TIP3   OH244833   4.632   0.418  12.459 -0.1838 -0.6522  0.3131
 7781TIP3    H144834   4.595   0.400  12.545 -0.9796  0.0765  0.1274
 7781TIP3    H244835   4.658   0.510  12.462 -0.8194 -0.4402 -0.4434
 7782TIP3   OH244836   1.429   0.133   0.703  0.2830  0.8081 -0.7080
 7782TIP3    H144837   1.359   0.176   0.752 -0.1565  1.6912 -2.0565
 7782TIP3    H244838   1.499   0.197   0.700  1.9061 -0.6474  2.0400
 7783TIP3   OH244839   6.649   0.679  11.603 -0.1482  0.3812 -0.8993
 7783TIP3    H144840   6.726   0.709  11.652 -0.4313 -0.3289 -0.0001
 7783TIP3    H244841   6.645   0.737  11.527  0.6794  1.0831 -0.4214
 7784TIP3   OH244842   6.638   1.807   4.279 -0.0382  0.0301  0.0720
 7784TIP3    H144843   6.674   1.726   4.315  0.3798  0.4133  0.5355
 7784TIP3    H244844   6.698   1.832   4.210  0.3076  0.3869  0.4921
 7785TIP3   OH244845   5.452   2.948   4.574 -0.2239 -0.1793 -0.1526
 7785TIP3    H144846   5.435   2.995   4.492  0.4131 -0.1088 -0.2463
 7785TIP3    H244847   5.457   2.856   4.548 -1.8399 -0.3705  0.0833
 7786TIP3   OH244848   5.783   0.737   1.183 -0.0584 -0.0213 -0.4700
 7786TIP3    H144849   5.837   0.681   1.128  0.0862  0.4569 -0.8229
 7786TIP3    H244850   5.698   0.738   1.140  0.2285  0.8649 -1.0641
 7787TIP3   OH244851   4.499   6.672  13.446 -0.2038  0.0805  0.3180
 7787TIP3    H144852   4.485   6.681  13.540 -0.8234 -1.0265  0.3459
 7787TIP3    H244853   4.494   6.578  13.429 -1.1742  0.3238 -0.9778
 7788TIP3   OH244854   5.258   0.154  15.878  0.0974  0.3111 -0.1613
 7788TIP3    H144855   5.167   0.163  15.850 -0.2832  2.2607  1.4482
 7788TIP3    H244856   5.305   0.219  15.826  1.0522 -2.0514 -2.4816
 7789TIP3   OH244857   2.926   0.122  15.684 -0.0978 -0.4117  0.7835
 7789TIP3    H144858   2.839   0.161  15.670  0.6639  0.9520 -0.3545
 7789TIP3    H244859   2.938   0.064  15.609  0.8647  1.1478 -0.3447
 7790TIP3   OH244860   4.873   2.164  15.061  0.8431  0.3698 -0.0015
 7790TIP3    H144861   4.851   2.128  14.976 -0.3345  0.9208  0.0500
 7790TIP3    H244862   4.867   2.089  15.121  1.2786  0.0677 -0.3252
 7791TIP3   OH244863   2.622   5.625   2.365  0.7971 -0.2988  0.4677
 7791TIP3    H144864   2.571   5.700   2.335  2.0265  0.3684 -0.0281
 7791TIP3    H244865   2.639   5.642   2.458  2.5026  0.9231 -0.0266
 7792TIP3   OH244866   4.507   5.714   4.651 -0.1330  0.5051  0.1060
 7792TIP3    H144867   4.423   5.694   4.692  0.5679  1.4312  2.1426
 7792TIP3    H244868   4.545   5.629   4.631 -0.4552 -0.0202  1.6023
 7793TIP3   OH244869   1.362   6.478  16.943  0.6014 -0.1449  0.6135
 7793TIP3    H144870   1.278   6.501  16.982 -0.1695 -2.0679  0.1638
 7793TIP3    H244871   1.385   6.394  16.982 -0.2375 -2.2121 -2.9235
 7794TIP3   OH244872   2.375   5.585  11.225  0.4363  0.4404  0.0842
 7794TIP3    H144873   2.342   5.519  11.163  2.9670  0.0981 -1.0425
 7794TIP3    H244874   2.296   5.626  11.260 -1.2071 -1.9852 -0.4701
 7795TIP3   OH244875   6.231   4.910  10.747 -0.1738 -0.2412  0.2189
 7795TIP3    H144876   6.266   4.889  10.661  0.1991 -0.6465  0.4630
 7795TIP3    H244877   6.296   4.968  10.786 -0.1854 -0.3169  0.3516
 7796TIP3   OH244878   3.962   0.184   4.725  0.3795  0.1352  0.0970
 7796TIP3    H144879   4.004   0.112   4.677 -0.6700 -0.5562  0.1736
 7796TIP3    H244880   3.880   0.146   4.757  0.0035  1.2545  0.4957
 7797TIP3   OH244881   0.373   5.469   1.798  0.1103  0.2620  0.4592
 7797TIP3    H144882   0.358   5.513   1.882  0.2815  2.3514 -0.5259
 7797TIP3    H244883   0.426   5.532   1.748  0.4341 -1.1465 -1.0333
 7798TIP3   OH244884   4.966   4.718  13.962 -0.0403  0.0845  0.2049
 7798TIP3    H144885   4.884   4.763  13.982  0.3821  0.5820  0.8523
 7798TIP3    H244886   5.032   4.766  14.012  0.7367  0.0668 -0.7795
 7799TIP3   OH244887   5.471   1.148   6.085 -0.4044  0.1084 -0.2357
 7799TIP3    H144888   5.381   1.179   6.085 -0.1911  0.7464 -0.4503
 7799TIP3    H244889   5.479   1.098   6.166 -0.6848  0.8433  0.2601
 7800TIP3   OH244890   0.147   0.686  15.044 -0.2539  0.0721 -0.3082
 7800TIP3    H144891   0.170   0.620  15.109  0.8295  2.2524  1.6551
 7800TIP3    H244892   0.054   0.703  15.058 -1.1141 -2.3839 -2.2397
 7801TIP3   OH244893   5.502   1.307   2.564 -0.1686  0.2564 -0.2495
 7801TIP3    H144894   5.554   1.227   2.563 -2.8385 -1.6022 -1.1847
 7801TIP3    H244895   5.439   1.294   2.635 -1.9063  0.5822 -1.6692
 7802TIP3   OH244896   3.067   6.024  11.773 -0.2069 -0.0170 -0.2763
 7802TIP3    H144897   3.000   5.977  11.724 -0.2994 -0.9081  0.6712
 7802TIP3    H244898   3.144   5.968  11.769 -0.3010 -0.2483  0.8231
 7803TIP3   OH244899   2.202   0.456   3.303 -0.3826 -0.5382 -0.2036
 7803TIP3    H144900   2.241   0.520   3.243 -1.3090  1.2444  0.9965
 7803TIP3    H244901   2.263   0.452   3.377 -2.2296  2.2484  1.6743
 7804TIP3   OH244902   2.489   5.713  13.684  0.3040 -0.6451  0.0988
 7804TIP3    H144903   2.411   5.681  13.640  0.2741 -0.0183 -0.3085
 7804TIP3    H244904   2.504   5.801  13.648  2.2109 -1.4179 -1.1474
 7805TIP3   OH244905   1.149   0.466  14.882  0.0174  0.7013 -0.1797
 7805TIP3    H144906   1.148   0.413  14.962  0.2120  1.6256  0.4537
 7805TIP3    H244907   1.149   0.403  14.811 -1.0108 -0.1533  0.5415
 7806TIP3   OH244908   3.046   6.261  15.637 -0.1986 -0.0147  0.3609
 7806TIP3    H144909   3.008   6.240  15.723  0.7866 -0.9829  0.5803
 7806TIP3    H244910   3.085   6.347  15.648 -1.6805  0.6967  0.3297
 7807TIP3   OH244911   5.444   6.119   0.316 -0.3259 -0.7209 -0.3102
 7807TIP3    H144912   5.405   6.046   0.363 -0.5639 -0.7386 -0.5311
 7807TIP3    H244913   5.535   6.121   0.344 -0.2935 -1.1639 -0.3819
 7808TIP3   OH244914   5.303   0.253  11.374 -0.1912  0.3722  0.2419
 7808TIP3    H144915   5.259   0.177  11.337  2.4462  0.3937 -3.4016
 7808TIP3    H244916   5.346   0.220  11.453 -3.7369 -0.3742  2.0381
 7809TIP3   OH244917   3.062   6.055   5.573 -0.7346  0.0862  0.0407
 7809TIP3    H144918   3.053   6.111   5.651 -1.5208 -1.5200  1.1577
 7809TIP3    H244919   3.106   6.111   5.509 -3.1040  2.6063  0.4224
 7810TIP3   OH244920   2.655   0.906  12.495 -0.1737  0.2866  0.2925
 7810TIP3    H144921   2.618   0.837  12.440  1.8907 -1.0992  0.5285
 7810TIP3    H244922   2.742   0.922  12.458  1.4793 -0.9836  3.2109
 7811TIP3   OH244923   2.943   5.555  13.409  0.2395  0.0073  0.1340
 7811TIP3    H144924   2.874   5.622  13.404  1.1054  0.8460 -1.1820
 7811TIP3    H244925   2.939   5.523  13.499 -1.2848  0.6537  0.3302
 7812TIP3   OH244926   5.968   6.375   3.558 -0.0992  0.0440 -1.0446
 7812TIP3    H144927   6.063   6.367   3.557 -0.1193 -0.8326  0.3515
 7812TIP3    H244928   5.939   6.329   3.480  0.5558 -1.3583 -0.5019
 7813TIP3   OH244929   3.015   1.973  16.329  0.3328  0.1046  0.6103
 7813TIP3    H144930   2.998   1.905  16.264  1.5572  1.1777 -0.9316
 7813TIP3    H244931   2.985   1.936  16.412 -1.0042 -1.4528 -0.5038
 7814TIP3   OH244932   0.044   5.497  10.650 -0.2474 -0.5039  0.7218
 7814TIP3    H144933   0.095   5.489  10.569 -1.4809  0.5042 -0.2082
 7814TIP3    H244934  -0.003   5.580  10.640 -2.5984 -1.7006  1.1711
 7815TIP3   OH244935   1.545   5.364  13.644  0.2906 -0.6140 -0.2503
 7815TIP3    H144936   1.593   5.435  13.601  0.4278 -0.3089  0.3951
 7815TIP3    H244937   1.466   5.406  13.679  0.3850 -0.7733  0.1561
 7816TIP3   OH244938   4.191   2.304   4.781  0.1179 -0.4036  0.3832
 7816TIP3    H144939   4.136   2.314   4.704 -1.1168 -0.2482  1.2642
 7816TIP3    H244940   4.250   2.379   4.779  0.9184 -1.0189 -1.0226
 7817TIP3   OH244941   1.948   3.989   2.799  0.1010  0.0722 -0.1295
 7817TIP3    H144942   2.011   3.981   2.871 -1.5906 -2.3799  1.2346
 7817TIP3    H244943   2.003   4.000   2.721  2.1333 -0.1804  1.1710
 7818TIP3   OH244944   2.508   1.937   0.226  0.3050  0.1511 -0.0929
 7818TIP3    H144945   2.472   1.911   0.141  0.4612 -1.1559  0.2303
 7818TIP3    H244946   2.474   1.872   0.288  0.2820  1.0235  0.8373
 7819TIP3   OH244947   3.119   0.447   4.704 -0.2071  0.5900  0.5347
 7819TIP3    H144948   3.160   0.385   4.644 -2.5709  0.6847 -1.3382
 7819TIP3    H244949   3.185   0.514   4.719  1.0732 -0.3988 -0.5189
 7820TIP3   OH244950   4.419   0.029   3.057  0.4327  0.1301  0.0738
 7820TIP3    H144951   4.362  -0.012   2.992  0.3850  0.6411 -0.2136
 7820TIP3    H244952   4.464  -0.045   3.099  0.3022 -0.2193 -0.3872
 7821TIP3   OH244953   1.551   3.447   3.372  0.0470  0.1488 -0.0501
 7821TIP3    H144954   1.491   3.387   3.417 -2.4111  0.1038 -3.0491
 7821TIP3    H244955   1.617   3.390   3.333  1.2924  0.0681  1.9996
 7822TIP3   OH244956   3.011   0.051  10.956 -0.2194 -0.2223 -0.0644
 7822TIP3    H144957   2.955   0.003  10.895 -0.5646  1.1789 -0.8996
 7822TIP3    H244958   3.079   0.090  10.900  0.6188 -0.5200  0.7169
 7823TIP3   OH244959   0.848   3.868   3.363 -0.1924  0.6836  0.1115
 7823TIP3    H144960   0.919   3.805   3.349  0.4885  1.4744 -0.0498
 7823TIP3    H244961   0.774   3.814   3.391  0.0182 -0.3348 -1.1655
 7824TIP3   OH244962   6.146   3.552   5.165  0.0482  0.5806 -0.3743
 7824TIP3    H144963   6.147   3.461   5.136 -0.3651  0.3803  0.2212
 7824TIP3    H244964   6.055   3.580   5.154 -0.3630  0.1867  1.6317
 7825TIP3   OH244965   4.698   5.411  11.207 -0.1039 -0.6338 -0.3054
 7825TIP3    H144966   4.758   5.349  11.165  0.3379 -0.3812 -0.0515
 7825TIP3    H244967   4.660   5.460  11.134  1.2932  0.3779 -0.3897
 7826TIP3   OH244968   6.319   5.173   2.115  0.2474 -0.1929  0.2684
 7826TIP3    H144969   6.362   5.101   2.161  1.0330 -0.0700 -0.2573
 7826TIP3    H244970   6.230   5.173   2.149  0.4066 -1.0328  0.7132
 7827TIP3   OH244971   1.641   0.423  15.926  0.8711 -0.1388 -0.2075
 7827TIP3    H144972   1.563   0.445  15.874  0.9149 -0.4010 -0.3836
 7827TIP3    H244973   1.621   0.338  15.964  0.6996  0.2054  0.4830
 7828TIP3   OH244974   2.677   3.424   5.669  0.1805 -0.4199  0.1838
 7828TIP3    H144975   2.680   3.337   5.631  1.7352  0.1346 -1.0744
 7828TIP3    H244976   2.679   3.409   5.764 -0.5348 -1.7576  0.0028
 7829TIP3   OH244977   0.462   0.782   0.428  0.1128  0.4910 -0.1507
 7829TIP3    H144978   0.534   0.845   0.426  0.6227 -0.0673 -0.0124
 7829TIP3    H244979   0.404   0.812   0.498  0.4859  0.6631  0.0844
 7830TIP3   OH244980   0.609   3.060  15.768  0.7212 -0.2826  0.5059
 7830TIP3    H144981   0.642   3.051  15.858  0.5901  0.6312  0.6520
 7830TIP3    H244982   0.536   3.121  15.776  0.3746 -0.6133 -0.1478
 7831TIP3   OH244983   2.902   5.132  16.803  0.0237 -0.2360  0.1234
 7831TIP3    H144984   2.874   5.183  16.726 -4.4248 -2.2358  0.1294
 7831TIP3    H244985   2.900   5.194  16.875 -0.9349  0.5555 -0.5599
 7832TIP3   OH244986   3.670   0.742   5.971 -0.0577 -0.4581 -0.2618
 7832TIP3    H144987   3.625   0.658   5.965  0.4217 -0.7360 -0.0133
 7832TIP3    H244988   3.599   0.806   5.980 -0.3987 -1.0974  2.5747
 7833TIP3   OH244989   6.559   0.459   4.915  0.0245 -0.2603 -0.0145
 7833TIP3    H144990   6.468   0.485   4.932 -0.0202 -1.2621  1.4008
 7833TIP3    H244991   6.573   0.483   4.823 -2.1424 -1.4353 -0.7297
 7834TIP3   OH244992   3.297   4.346  11.840  0.0654 -0.5603 -0.0960
 7834TIP3    H144993   3.319   4.362  11.748  1.5934 -1.7771  0.0243
 7834TIP3    H244994   3.367   4.388  11.889 -0.3150 -0.6125  0.5026
 7835TIP3   OH244995   5.297   5.425  15.884 -0.6671 -0.1171  0.3102
 7835TIP3    H144996   5.286   5.500  15.943 -1.0279 -0.5300  0.7827
 7835TIP3    H244997   5.323   5.463  15.801 -1.0258  0.5470  0.4945
 7836TIP3   OH244998   0.938   5.411  13.972  0.0645  0.4030 -0.7973
 7836TIP3    H144999   0.944   5.421  13.877  1.7952 -2.0070 -1.0228
 7836TIP3    H245000   0.999   5.476  14.008 -0.2020  0.9566 -1.3349
 7837TIP3   OH245001   0.889   0.187  11.392  0.1615 -0.0888  0.0641
 7837TIP3    H145002   0.807   0.234  11.379 -0.3838 -1.3225 -1.3393
 7837TIP3    H245003   0.955   0.255  11.403 -0.8917  0.9445  0.1193
 7838TIP3   OH245004   3.407   6.719   3.552  0.2465 -0.4276  0.6370
 7838TIP3    H145005   3.371   6.689   3.468 -0.8379  0.3312  0.8128
 7838TIP3    H245006   3.411   6.640   3.606 -0.7723 -0.6118  0.4617
 7839TIP3   OH245007   0.174   2.647   1.636 -0.9181 -0.1684 -0.0463
 7839TIP3    H145008   0.090   2.631   1.678 -1.3425 -2.2821 -1.5486
 7839TIP3    H245009   0.171   2.597   1.555  1.2347  0.8954 -0.8823
 7840TIP3   OH245010   3.403   0.158  13.115  0.6059 -0.1009 -0.1967
 7840TIP3    H145011   3.324   0.212  13.101 -0.3657 -1.3130  0.3911
 7840TIP3    H245012   3.419   0.117  13.030 -1.0582 -1.9408  0.2872
 7841TIP3   OH245013   4.206   2.477  14.085  0.1520  0.5038  0.0976
 7841TIP3    H145014   4.163   2.394  14.067 -0.6840  0.9723 -0.1244
 7841TIP3    H245015   4.146   2.524  14.143  0.5687  0.9894  0.1493
 7842TIP3   OH245016   4.761   1.781   0.085 -0.2144 -0.2357 -0.0821
 7842TIP3    H145017   4.779   1.843   0.014  1.6198  0.3489  0.8236
 7842TIP3    H245018   4.820   1.707   0.067  0.1542 -0.1496  0.7127
 7843TIP3   OH245019   4.525   2.939  16.624 -0.1410 -0.4895  0.4770
 7843TIP3    H145020   4.449   2.947  16.567 -0.0955  0.3230  0.5214
 7843TIP3    H245021   4.578   3.016  16.605  0.2837 -0.6391  1.0162
 7844TIP3   OH245022   5.856   0.371  11.395 -0.7140  0.1990 -0.1178
 7844TIP3    H145023   5.874   0.462  11.418 -0.6525  0.8725 -2.5561
 7844TIP3    H245024   5.760   0.365  11.395 -0.7210 -0.3218  1.9536
 7845TIP3   OH245025   5.981   1.660   2.806  0.3975  0.0203 -0.0926
 7845TIP3    H145026   5.927   1.668   2.885 -2.0056 -1.4254 -1.4627
 7845TIP3    H245027   5.944   1.723   2.745  1.1913 -0.0184 -0.6247
 7846TIP3   OH245028   3.690   0.320  16.082 -0.0713  0.2131  0.6085
 7846TIP3    H145029   3.736   0.245  16.044 -0.0150  0.1695  0.7633
 7846TIP3    H245030   3.605   0.285  16.108 -0.8032  0.6339 -1.0770
 7847TIP3   OH245031   1.020   4.584  11.105 -0.6335  0.4422  0.3526
 7847TIP3    H145032   1.006   4.545  11.019 -0.2554 -0.0556  0.5124
 7847TIP3    H245033   0.990   4.518  11.167 -3.2513  1.7238  0.6042
 7848TIP3   OH245034   2.693   5.182   5.794 -0.0003  0.4639  0.1522
 7848TIP3    H145035   2.655   5.238   5.861  1.6806  1.2330  0.5234
 7848TIP3    H245036   2.726   5.106   5.841 -1.0680 -0.2211 -0.1711
 7849TIP3   OH245037   0.351   1.271   4.010  0.0635 -0.2319  0.7762
 7849TIP3    H145038   0.437   1.290   4.047  1.3875 -0.4781 -1.9484
 7849TIP3    H245039   0.336   1.340   3.946 -1.5767 -0.4480  0.8829
 7850TIP3   OH245040   0.089   5.716   5.082  0.0659 -0.2380 -0.0676
 7850TIP3    H145041   0.091   5.683   5.172 -0.9633  0.1671  0.1074
 7850TIP3    H245042   0.083   5.637   5.028 -0.7104 -0.4159  0.2784
 7851TIP3   OH245043   1.311   3.960   2.839  0.3142  0.2202 -0.7023
 7851TIP3    H145044   1.319   3.865   2.831 -2.6265 -0.0013 -1.9232
 7851TIP3    H245045   1.349   3.979   2.925 -2.0658 -2.5375  1.1476
 7852TIP3   OH245046   4.356   0.064  14.386  0.0769 -0.0413 -0.3573
 7852TIP3    H145047   4.394  -0.023  14.373 -1.2425 -0.7677  0.4640
 7852TIP3    H245048   4.356   0.104  14.299  1.7394 -0.3969 -0.5560
 7853TIP3   OH245049   0.631   6.258  13.987 -0.0389 -0.0513  0.2078
 7853TIP3    H145050   0.575   6.272  13.911 -1.0217  0.6442  1.0220
 7853TIP3    H245051   0.583   6.194  14.040  0.6636 -0.5768  0.2214
 7854TIP3   OH245052   2.079   2.368   5.327  0.1447  0.5395 -0.0296
 7854TIP3    H145053   2.004   2.410   5.285  0.0349 -0.0526 -0.4445
 7854TIP3    H245054   2.111   2.433   5.389 -0.8838  0.6942  0.3633
 7855TIP3   OH245055   6.184   4.273   1.491 -0.4674  0.1834  0.2427
 7855TIP3    H145056   6.174   4.365   1.469 -0.3457  0.1645  0.1078
 7855TIP3    H245057   6.264   4.246   1.446 -0.7207 -0.0904 -0.0440
 7856TIP3   OH245058   5.958   3.965   5.338  0.8966  0.1259  0.1161
 7856TIP3    H145059   5.936   3.876   5.309  0.8941  0.4627 -0.9714
 7856TIP3    H245060   5.885   3.992   5.392 -0.9340  0.8118 -2.5198
 7857TIP3   OH245061   4.263   4.888   5.450  0.1588  0.7033  0.5910
 7857TIP3    H145062   4.345   4.855   5.415  0.1811  0.5539  0.7842
 7857TIP3    H245063   4.286   4.973   5.490  0.1896  0.7336  0.5079
 7858TIP3   OH245064   4.825   2.907  14.963  0.5803  0.0228  0.8985
 7858TIP3    H145065   4.875   2.889  15.042  0.4905  1.1233  1.2201
 7858TIP3    H245066   4.883   2.961  14.909  0.3733 -0.1189  0.5263
 7859TIP3   OH245067   5.332   2.033   1.733  0.1562 -0.1137  0.4781
 7859TIP3    H145068   5.329   2.065   1.824 -0.4843 -2.4382  1.3426
 7859TIP3    H245069   5.399   1.965   1.734 -2.4493 -2.9116  0.2566
 7860TIP3   OH245070   5.046   0.252  14.606 -0.0506  0.6809  0.2914
 7860TIP3    H145071   5.127   0.248  14.656 -0.6862 -0.3333  1.2811
 7860TIP3    H245072   5.066   0.311  14.533  1.5885  0.4026  0.4733
 7861TIP3   OH245073   1.222   2.133   5.800 -0.3790  0.2713  0.3293
 7861TIP3    H145074   1.226   2.226   5.777  0.6374  0.2413  0.3296
 7861TIP3    H245075   1.263   2.128   5.886 -0.7445 -0.1301  0.4789
 7862TIP3   OH245076   4.218   3.907   3.527 -0.0767  0.0646 -0.1773
 7862TIP3    H145077   4.290   3.940   3.581 -0.7233  0.3289  0.5462
 7862TIP3    H245078   4.205   3.973   3.460  0.2484  0.0951 -0.2087
 7863TIP3   OH245079   5.016   5.641   2.072  0.1723  1.1061 -0.3941
 7863TIP3    H145080   4.947   5.584   2.036  0.6049  0.1722  0.2019
 7863TIP3    H245081   5.077   5.652   1.999  0.4942  0.1177 -0.2919
 7864TIP3   OH245082   4.299   5.546   4.244 -0.0797 -0.1969  0.1548
 7864TIP3    H145083   4.366   5.518   4.306  0.9194  2.1930  0.2573
 7864TIP3    H245084   4.338   5.531   4.158 -0.7505 -1.8029  0.0864
 7865TIP3   OH245085   5.248   3.106  13.260  0.1857 -0.1911 -0.5713
 7865TIP3    H145086   5.174   3.109  13.199  0.3340 -0.5104 -0.7672
 7865TIP3    H245087   5.294   3.025  13.238 -0.2112 -0.7221  0.5029
 7866TIP3   OH245088   4.726   6.641  15.954 -0.1676 -0.0045 -0.6067
 7866TIP3    H145089   4.740   6.702  16.026  0.2593  0.0050 -0.6926
 7866TIP3    H245090   4.784   6.672  15.885  1.3248 -1.4724 -0.0764
 7867TIP3   OH245091   4.242   2.695  13.669  0.1226 -0.0425  0.1498
 7867TIP3    H145092   4.203   2.692  13.757  1.3066 -1.5279  0.6555
 7867TIP3    H245093   4.313   2.632  13.672  0.3396  0.0523 -1.8304
 7868TIP3   OH245094   3.273   1.733  11.703  0.0256 -0.0972 -0.2481
 7868TIP3    H145095   3.214   1.806  11.687  0.5466  0.3799 -0.0438
 7868TIP3    H245096   3.270   1.719  11.798 -0.2144 -0.4672 -0.3071
 7869TIP3   OH245097   4.111   3.283   4.535  0.2962  0.0489 -0.7787
 7869TIP3    H145098   4.112   3.231   4.455  1.0261 -1.6412  0.2533
 7869TIP3    H245099   4.038   3.343   4.525  1.3658  1.0674 -3.4010
 7870TIP3   OH245100   3.621   5.752   1.423  0.1696 -0.3051  0.5609
 7870TIP3    H145101   3.592   5.799   1.345  1.2455  1.5378  1.1879
 7870TIP3    H245102   3.580   5.667   1.417 -1.2517  0.4379 -1.0732
 7871TIP3   OH245103   5.256   1.244  16.450  0.4435  0.8986  0.1121
 7871TIP3    H145104   5.263   1.253  16.545 -1.8168 -0.2428  0.4538
 7871TIP3    H245105   5.232   1.153  16.435  0.7773  1.0426 -1.5695
 7872TIP3   OH245106   0.844   1.782  11.878  0.0799 -0.2788  0.3658
 7872TIP3    H145107   0.888   1.818  11.801 -2.6868 -0.7998 -1.6074
 7872TIP3    H245108   0.818   1.859  11.928  1.0094  0.1120  0.2825
 7873TIP3   OH245109   0.697   0.035  15.697  0.5930  0.6246 -0.6731
 7873TIP3    H145110   0.694   0.127  15.723  0.2830  0.4897 -0.2201
 7873TIP3    H245111   0.752   0.034  15.618  0.8146  1.1592 -0.5304
 7874TIP3   OH245112   5.563   6.173  13.116  0.2290  0.6569  0.2948
 7874TIP3    H145113   5.635   6.235  13.103  1.0757 -0.5547 -1.0479
 7874TIP3    H245114   5.546   6.138  13.028 -1.6745  0.5453  0.6713
 7875TIP3   OH245115   3.096   4.495  15.589 -0.0448 -0.9060 -0.4046
 7875TIP3    H145116   3.010   4.508  15.549 -1.2174  0.5793  2.3101
 7875TIP3    H245117   3.155   4.550  15.537 -1.7035  1.8795  0.4437
 7876TIP3   OH245118   4.196   4.593  15.440  0.1178  0.0302 -0.2118
 7876TIP3    H145119   4.240   4.547  15.368  1.5510 -0.7089  1.0872
 7876TIP3    H245120   4.202   4.685  15.416 -1.1099 -0.2810 -1.9332
 7877TIP3   OH245121   2.086   0.102  13.503  0.0974 -0.0392  0.4559
 7877TIP3    H145122   2.001   0.072  13.535 -1.7308  2.5737 -1.5431
 7877TIP3    H245123   2.086   0.080  13.410  2.4301 -1.5005  0.7094
 7878TIP3   OH245124   1.143   4.424   4.053 -0.2025  0.1303  0.4177
 7878TIP3    H145125   1.126   4.343   4.004 -0.0053 -0.5533  1.4451
 7878TIP3    H245126   1.238   4.433   4.053 -0.0930 -0.6897  1.9035
 7879TIP3   OH245127   2.371   5.418   1.925 -0.5394  0.5869  0.4805
 7879TIP3    H145128   2.466   5.419   1.935 -0.1405 -2.1933 -1.7974
 7879TIP3    H245129   2.343   5.334   1.961 -1.8778  0.5889 -0.4748
 7880TIP3   OH245130   4.228   6.340   3.753  0.2274  0.2028  0.4745
 7880TIP3    H145131   4.134   6.324   3.761  0.1447 -0.5329 -1.5051
 7880TIP3    H245132   4.266   6.254   3.740  0.9431  0.6562 -0.5844
 7881TIP3   OH245133   4.621   3.572  13.755  0.3591 -0.3187  0.0266
 7881TIP3    H145134   4.662   3.657  13.742  0.9343 -0.6228 -0.1666
 7881TIP3    H245135   4.675   3.511  13.705 -0.5975 -0.6540 -0.6166
 7882TIP3   OH245136   5.602   3.555  16.512  0.8913  0.1164  0.4078
 7882TIP3    H145137   5.587   3.591  16.425  0.6028  0.2740  0.5167
 7882TIP3    H245138   5.596   3.460  16.501 -0.0015  0.1619  0.3984
 7883TIP3   OH245139   6.443   1.980   3.017 -0.0030 -0.2541 -0.2581
 7883TIP3    H145140   6.433   1.890   2.988  0.0426 -0.3441  0.0051
 7883TIP3    H245141   6.445   1.975   3.112 -1.0008  0.1243 -0.2031
 7884TIP3   OH245142   0.160   6.240  15.972 -0.1324 -0.4170  0.1465
 7884TIP3    H145143   0.106   6.300  16.023  0.9763  0.1972  0.6521
 7884TIP3    H245144   0.217   6.198  16.037  0.6055 -0.3701 -0.4543
 7885TIP3   OH245145   2.386   1.235  12.926 -0.1410  0.4631  0.1840
 7885TIP3    H145146   2.329   1.311  12.933 -1.6732 -0.5064 -0.9091
 7885TIP3    H245147   2.430   1.246  12.841 -0.3780  0.1442  0.0159
 7886TIP3   OH245148   1.615   4.704  13.305  0.0088  0.3975 -0.0470
 7886TIP3    H145149   1.574   4.667  13.384 -1.4058  1.9752  0.0082
 7886TIP3    H245150   1.551   4.767  13.272  1.2052  0.8430 -1.6463
 7887TIP3   OH245151   4.634   5.991   0.657  0.2043 -0.1225  0.5819
 7887TIP3    H145152   4.674   5.971   0.573  1.5451  0.5957  1.0260
 7887TIP3    H245153   4.684   6.065   0.691 -0.9497  0.2490  1.5727
 7888TIP3   OH245154   4.819   3.350   2.163  0.0408  0.2241  0.0594
 7888TIP3    H145155   4.726   3.330   2.178  0.8731 -3.6492  1.2715
 7888TIP3    H245156   4.851   3.378   2.248  0.0677  1.5298 -0.3532
 7889TIP3   OH245157   1.119   5.340  16.783 -0.1497 -0.0417  0.0129
 7889TIP3    H145158   1.107   5.433  16.801  0.9435  0.0717  0.2005
 7889TIP3    H245159   1.213   5.325  16.793 -0.4549 -1.4160  1.1455
 7890TIP3   OH245160   0.985   2.959  10.713  0.3637 -0.4726  0.3292
 7890TIP3    H145161   1.065   2.989  10.670  0.3765 -0.9811 -0.0002
 7890TIP3    H245162   1.014   2.899  10.781  0.2200 -1.3133 -0.3378
 7891TIP3   OH245163   6.122   2.450  14.172  0.2134 -0.3825 -0.2825
 7891TIP3    H145164   6.117   2.537  14.134 -0.2597  0.2079  1.0640
 7891TIP3    H245165   6.069   2.395  14.114  0.2830  0.2811 -0.9823
 7892TIP3   OH245166   3.252   4.636  12.523 -0.2022  0.4301  0.5274
 7892TIP3    H145167   3.178   4.695  12.538 -1.8660 -1.7769  1.6433
 7892TIP3    H245168   3.247   4.615  12.430 -1.9139 -0.7235  0.8208
 7893TIP3   OH245169   4.906   3.730  14.890 -0.5746 -0.6310 -0.2465
 7893TIP3    H145170   4.840   3.752  14.955 -0.2910  0.7390 -0.3705
 7893TIP3    H245171   4.989   3.735  14.938 -0.3609  0.4414 -0.6968
 7894TIP3   OH245172   2.603   6.332  14.688 -0.0908 -0.0292  0.0844
 7894TIP3    H145173   2.603   6.283  14.771 -1.8977 -0.9462 -0.4165
 7894TIP3    H245174   2.691   6.318  14.652  0.3731 -0.4883  1.3359
 7895TIP3   OH245175   1.552   1.046   1.672 -0.5489 -0.0859 -0.1104
 7895TIP3    H145176   1.573   1.070   1.581  0.5205 -1.2172 -0.1914
 7895TIP3    H245177   1.516   1.126   1.710 -3.2596 -0.1523 -2.1554
 7896TIP3   OH245178   2.756   4.383   2.531  0.1191  0.5762 -0.3025
 7896TIP3    H145179   2.849   4.391   2.510  0.0844  1.1049 -0.2469
 7896TIP3    H245180   2.749   4.409   2.623 -0.1681  1.1137 -0.4723
 7897TIP3   OH245181   1.734   4.007   3.654  0.0905  0.2453  0.4208
 7897TIP3    H145182   1.649   4.005   3.698  1.5477 -0.2877  3.5291
 7897TIP3    H245183   1.772   3.921   3.671  2.1244  1.2017  1.1918
 7898TIP3   OH245184   5.515   0.194  11.553 -0.1134 -1.1626 -0.1541
 7898TIP3    H145185   5.580   0.125  11.564 -3.0243 -4.0863  0.1066
 7898TIP3    H245186   5.458   0.185  11.629 -1.0561  1.0623 -0.5266
 7899TIP3   OH245187   3.562   6.633  17.166  0.1914 -0.5346  0.3626
 7899TIP3    H145188   3.588   6.550  17.128 -0.4733 -0.1204 -1.0657
 7899TIP3    H245189   3.468   6.639  17.151  0.0235 -0.0343  1.4829
 7900TIP3   OH245190   0.759   4.712   1.863  0.1314  0.1517  0.2901
 7900TIP3    H145191   0.700   4.772   1.816 -0.6008 -0.1087  0.8593
 7900TIP3    H245192   0.762   4.747   1.952  0.1657 -0.3177  0.4756
 7901TIP3   OH245193   1.332   0.956  12.705 -0.2806  0.5762 -0.6338
 7901TIP3    H145194   1.341   0.969  12.799  0.8571 -1.9415 -0.3171
 7901TIP3    H245195   1.275   1.027  12.676 -1.8916  0.5686  2.1969
 7902TIP3   OH245196   4.454   0.281   0.898 -0.2123 -0.0927 -0.6205
 7902TIP3    H145197   4.401   0.359   0.883 -1.1981 -0.0242  2.3741
 7902TIP3    H245198   4.395   0.208   0.879 -0.7082 -0.0205  0.5179
 7903TIP3   OH245199   2.821   3.710   1.856  0.2126 -0.5682 -0.3625
 7903TIP3    H145200   2.840   3.768   1.930  0.0354 -2.2784  1.0799
 7903TIP3    H245201   2.826   3.767   1.780  1.9058  0.9587  0.8034
 7904TIP3   OH245202   3.132   5.678  14.513  0.1333  0.1479 -0.3120
 7904TIP3    H145203   3.147   5.722  14.597  0.2181 -2.5922  1.2387
 7904TIP3    H245204   3.220   5.658  14.480  0.1330 -1.9730  0.8369
 7905TIP3   OH245205   2.871   0.083   4.969  0.3161  0.3563 -0.0811
 7905TIP3    H145206   2.900   0.119   4.885  1.0791  1.0374  0.4549
 7905TIP3    H245207   2.937   0.017   4.990 -0.3922 -0.4944 -0.4547
 7906TIP3   OH245208   5.777   0.498   2.635  0.0087  0.1431 -0.2298
 7906TIP3    H145209   5.711   0.474   2.699 -0.1615  0.2627 -0.3595
 7906TIP3    H245210   5.729   0.504   2.552  0.4434 -1.2893 -0.6170
 7907TIP3   OH245211   5.095   2.347  15.284  0.2226 -1.2917  0.1489
 7907TIP3    H145212   5.024   2.321  15.342  0.8216 -1.1551  0.9516
 7907TIP3    H245213   5.142   2.415  15.332 -0.0256 -0.2529 -1.0239
 7908TIP3   OH245214   3.238   5.648   5.130  0.6812 -0.6970 -0.0975
 7908TIP3    H145215   3.244   5.681   5.040  0.5995 -1.2585 -0.3136
 7908TIP3    H245216   3.153   5.678   5.161  1.4855  1.1133  0.4623
 7909TIP3   OH245217   0.647   4.025  15.094 -0.0078 -0.2205 -0.8202
 7909TIP3    H145218   0.561   3.982  15.104 -1.1733  2.1394 -0.0196
 7909TIP3    H245219   0.632   4.092  15.028  0.9113  0.9227  0.0933
 7910TIP3   OH245220   1.912   2.106   5.857  0.0209  0.3409 -0.7433
 7910TIP3    H145221   1.996   2.061   5.856 -0.2454 -0.4604  2.6077
 7910TIP3    H245222   1.849   2.041   5.826  0.2743 -0.0217 -0.5010
 7911TIP3   OH245223   1.672   5.748   4.562  0.7903 -0.2763 -0.0043
 7911TIP3    H145224   1.698   5.791   4.644 -1.8772  0.6602  0.4762
 7911TIP3    H245225   1.722   5.666   4.561  0.7377 -0.4449  2.7253
 7912TIP3   OH245226   2.007   1.875  10.303 -0.6109 -0.0091  0.2745
 7912TIP3    H145227   1.914   1.856  10.316 -0.7110 -0.2537 -0.7368
 7912TIP3    H245228   2.018   1.965  10.333 -1.2205  0.0985  0.1801
 7913TIP3   OH245229   3.644   1.328  15.621  0.2582  0.2247 -0.1150
 7913TIP3    H145230   3.582   1.397  15.595  1.6031  2.0144  1.1359
 7913TIP3    H245231   3.719   1.341  15.563  0.2407 -0.6748 -0.3444
 7914TIP3   OH245232   2.582   4.513   3.434  0.0481 -0.2606 -0.4795
 7914TIP3    H145233   2.579   4.469   3.348  0.3832  0.4956 -0.8909
 7914TIP3    H245234   2.590   4.606   3.412  1.3202 -0.1493  0.3788
 7915TIP3   OH245235   5.245   0.644  16.555 -0.7358  0.4211 -0.3641
 7915TIP3    H145236   5.259   0.560  16.599 -2.3691  0.2980  0.0021
 7915TIP3    H245237   5.326   0.693  16.570  0.1058 -0.9519 -0.2816
 7916TIP3   OH245238   3.006   1.218  12.591  0.1258  0.5153  0.2161
 7916TIP3    H145239   3.069   1.284  12.616 -0.2715  0.6879  0.7790
 7916TIP3    H245240   2.924   1.266  12.579  0.3254  0.4683 -1.5778
 7917TIP3   OH245241   4.714   2.232   4.469  0.2146  0.1809 -0.0636
 7917TIP3    H145242   4.745   2.320   4.450 -2.3239  1.2142  0.2645
 7917TIP3    H245243   4.692   2.232   4.562 -0.5654 -0.5272 -0.2251
 7918TIP3   OH245244   6.016   5.423  14.060 -0.5923  0.0058  0.0424
 7918TIP3    H145245   6.009   5.443  14.154 -1.2252  0.0616 -0.0152
 7918TIP3    H245246   6.054   5.335  14.057  0.4059  0.4079  0.3277
 7919TIP3   OH245247   5.623   6.325  12.827 -0.2868  0.3039 -0.0994
 7919TIP3    H145248   5.538   6.363  12.851 -1.0269 -0.6472 -1.1198
 7919TIP3    H245249   5.641   6.362  12.740  0.4481  0.6406  0.1885
 7920TIP3   OH245250   4.144   5.513   3.718 -0.5776 -0.1545  0.0312
 7920TIP3    H145251   4.075   5.487   3.657 -0.0845 -1.1006 -0.1381
 7920TIP3    H245252   4.187   5.587   3.675  0.2941 -1.3176 -1.2002
 7921TIP3   OH245253   2.539   6.179   5.445 -0.1556 -0.1524 -0.0562
 7921TIP3    H145254   2.606   6.226   5.495 -0.1765 -0.9034  0.7078
 7921TIP3    H245255   2.541   6.090   5.481  0.6735 -1.0789 -2.2393
 7922TIP3   OH245256   1.100   0.203   0.382 -0.7148 -0.2118  0.4799
 7922TIP3    H145257   1.043   0.277   0.361 -0.9682  0.6609  3.6566
 7922TIP3    H245258   1.111   0.157   0.299 -0.6014  3.3014 -1.6647
 7923TIP3   OH245259   0.053   6.607  14.770  0.2229  0.1736 -0.1475
 7923TIP3    H145260   0.014   6.522  14.794 -0.0996 -0.2459 -2.0128
 7923TIP3    H245261  -0.014   6.649  14.716  1.4434  0.4441 -1.4825
 7924TIP3   OH245262   5.518   6.662   2.390 -0.3416  0.2284 -0.0375
 7924TIP3    H145263   5.424   6.657   2.410 -0.0619 -0.6793  1.1786
 7924TIP3    H245264   5.528   6.610   2.310 -0.8071 -0.0861  0.1005
 7925TIP3   OH245265   6.617   4.556   5.972 -0.6313 -0.3417  0.5518
 7925TIP3    H145266   6.610   4.652   5.969  0.0141 -0.2940  0.4519
 7925TIP3    H245267   6.675   4.534   5.899  1.6972 -0.5451  2.3540
 7926TIP3   OH245268   5.294   5.340  11.822 -0.1648  0.2200  0.0061
 7926TIP3    H145269   5.234   5.327  11.747  0.2138  2.6539 -0.7940
 7926TIP3    H245270   5.381   5.330  11.784  0.0091  0.1736  0.4216
 7927TIP3   OH245271   0.920   5.323  13.154  0.6079  0.1436 -0.4191
 7927TIP3    H145272   1.001   5.333  13.204  0.8465 -0.7265 -0.5990
 7927TIP3    H245273   0.882   5.241  13.187  0.0838  0.2654 -0.7164
 7928TIP3   OH245274   5.527   0.272   3.811  0.1542 -0.3168  0.4015
 7928TIP3    H145275   5.552   0.360   3.782  1.9695 -0.7332  0.5518
 7928TIP3    H245276   5.610   0.226   3.821 -0.6851 -1.6518  1.6257
 7929TIP3   OH245277   6.164   1.636   0.752 -0.2152  0.4629  0.0322
 7929TIP3    H145278   6.219   1.714   0.745 -0.7897  0.9159  0.4483
 7929TIP3    H245279   6.222   1.563   0.729  1.5749  0.5275  3.6503
 7930TIP3   OH245280   1.744   3.897  11.422 -0.0070 -0.0729 -0.2676
 7930TIP3    H145281   1.837   3.916  11.413 -0.1970  1.4303  0.6473
 7930TIP3    H245282   1.729   3.823  11.363  1.3556  0.8863 -1.8947
 7931TIP3   OH245283   3.119   6.401  12.349 -0.2585  0.0312 -0.2376
 7931TIP3    H145284   3.165   6.330  12.395  0.3341 -0.2479 -1.2308
 7931TIP3    H245285   3.028   6.374  12.347 -0.1799 -0.2697  0.1873
 7932TIP3   OH245286   6.038   2.251   4.940  0.0348  0.5408 -0.4369
 7932TIP3    H145287   6.088   2.329   4.963  0.4021  0.0444  0.5428
 7932TIP3    H245288   6.072   2.183   4.999  1.1620 -0.8997 -2.5775
 7933TIP3   OH245289   5.590   2.397   3.705  0.1823 -0.2541  0.1677
 7933TIP3    H145290   5.616   2.355   3.622 -0.4863 -0.3170 -0.0157
 7933TIP3    H245291   5.654   2.467   3.717  0.2704 -0.2232 -0.4243
 7934TIP3   OH245292   3.978   3.461   5.986  0.6381 -0.1726 -0.0760
 7934TIP3    H145293   3.950   3.552   5.980  0.1513 -0.2174  1.1754
 7934TIP3    H245294   4.065   3.465   6.025  0.1335 -0.2754  1.1082
 7935TIP3   OH245295   2.370   0.029  10.508  0.2240  0.1521 -0.2847
 7935TIP3    H145296   2.355   0.115  10.469  2.8507  0.8274  0.0183
 7935TIP3    H245297   2.423  -0.018  10.444 -0.0217 -0.7599  0.1536
 7936TIP3   OH245298   5.105   6.079  16.529 -0.1606  0.3974 -0.2910
 7936TIP3    H145299   5.177   6.062  16.589  1.0846 -2.1140 -2.2957
 7936TIP3    H245300   5.028   6.043  16.573  0.2871  0.6539  0.7312
 7937TIP3   OH245301   6.684   6.598  16.317 -0.0983 -0.0192  0.0160
 7937TIP3    H145302   6.776   6.587  16.343 -0.3903  0.7924  1.5396
 7937TIP3    H245303   6.636   6.536  16.372 -0.5312  0.0587 -0.2699
 7938TIP3   OH245304   4.083   0.146  13.195  0.1290 -0.3730  0.3053
 7938TIP3    H145305   4.113   0.073  13.249  0.2354  0.0453  0.8194
 7938TIP3    H245306   3.991   0.158  13.219 -0.0389 -0.6663 -0.1609
 7939TIP3   OH245307   1.598   3.479   3.990  0.0332  0.1659  0.6720
 7939TIP3    H145308   1.551   3.412   3.941 -0.0396  1.8214 -1.6743
 7939TIP3    H245309   1.690   3.463   3.970 -0.0664  1.6177 -1.1716
 7940TIP3   OH245310   6.288   0.450  10.651 -0.4818 -0.0309  0.3245
 7940TIP3    H145311   6.362   0.435  10.591 -0.7664  0.7888 -0.2483
 7940TIP3    H245312   6.216   0.476  10.594 -1.3009 -1.0590  0.8560
 7941TIP3   OH245313   2.508   4.630  14.354 -0.5563  0.1956  0.0225
 7941TIP3    H145314   2.543   4.719  14.344 -0.6260  0.1668 -0.4962
 7941TIP3    H245315   2.486   4.603  14.265  0.7142 -0.8674  0.0213
 7942TIP3   OH245316   1.414   4.876   1.746  0.0157 -0.0246 -0.0092
 7942TIP3    H145317   1.414   4.830   1.830  0.5854  1.4670  0.8486
 7942TIP3    H245318   1.404   4.968   1.770 -0.9740  0.3344 -1.6595
 7943TIP3   OH245319   3.677   4.924   3.866  0.2041 -0.0222 -0.2335
 7943TIP3    H145320   3.769   4.914   3.841 -0.0312  0.4104 -1.3031
 7943TIP3    H245321   3.678   4.994   3.931  0.6999 -0.4302  0.2080
 7944TIP3   OH245322   4.591   6.581   5.567  0.2278 -0.0491 -0.1159
 7944TIP3    H145323   4.660   6.579   5.500  0.1256 -2.3233 -0.2420
 7944TIP3    H245324   4.611   6.507   5.624  0.3839  1.8725  2.5418
 7945TIP3   OH245325   5.318   3.468   1.244  0.4147 -0.0168  0.3076
 7945TIP3    H145326   5.411   3.491   1.254  0.5200 -0.6280  0.8266
 7945TIP3    H245327   5.312   3.435   1.154  0.3109  1.7210 -0.3576
 7946TIP3   OH245328   6.190   4.065   6.514 -0.1012  0.2313  0.1455
 7946TIP3    H145329   6.224   4.155   6.509  0.7513 -0.0695  0.3233
 7946TIP3    H245330   6.249   4.014   6.459 -0.2346 -0.3223  0.5108
 7947TIP3   OH245331   6.148   1.769   3.251  0.1108 -0.0923  0.3191
 7947TIP3    H145332   6.169   1.706   3.320  0.6852 -0.6123 -0.3277
 7947TIP3    H245333   6.183   1.852   3.283 -1.0645  0.0238  1.3949
 7948TIP3   OH245334   3.556   3.704   5.672 -0.4889 -0.2571  0.2143
 7948TIP3    H145335   3.526   3.732   5.759 -0.1276 -1.8812  0.8973
 7948TIP3    H245336   3.585   3.614   5.685  0.8938 -0.0681 -1.3085
 7949TIP3   OH245337   1.809   0.607  16.871  0.0894  0.3439 -0.0577
 7949TIP3    H145338   1.884   0.606  16.810  0.8393  3.8971  0.5951
 7949TIP3    H245339   1.839   0.556  16.946  1.0303 -0.0598 -0.6769
 7950TIP3   OH245340   3.836   1.745   5.440 -0.2163 -0.2535  0.5010
 7950TIP3    H145341   3.852   1.652   5.427 -1.2228 -0.2722 -0.8150
 7950TIP3    H245342   3.923   1.784   5.442  0.2072 -1.1950  0.8717
 7951TIP3   OH245343   2.764   1.391  11.777  0.2368 -0.5298 -0.1273
 7951TIP3    H145344   2.750   1.333  11.702 -1.3942 -0.5058  0.1170
 7951TIP3    H245345   2.769   1.331  11.852 -0.5958 -0.4239  0.0226
 7952TIP3   OH245346   4.595   5.847  12.241 -0.3498 -0.0736  0.1016
 7952TIP3    H145347   4.542   5.796  12.180 -0.9078 -0.4747  0.8993
 7952TIP3    H245348   4.601   5.934  12.201 -0.4883 -0.4013 -0.6432
 7953TIP3   OH245349   1.103   4.549   2.040 -0.1659 -0.0632 -0.6044
 7953TIP3    H145350   1.190   4.510   2.036  0.3385  0.5678  2.0287
 7953TIP3    H245351   1.117   4.639   2.070 -1.7563 -0.7182  2.5713
 7954TIP3   OH245352   2.378   5.382   3.877 -0.2975 -0.8495 -0.3129
 7954TIP3    H145353   2.360   5.476   3.883 -1.2962 -0.9937 -0.9451
 7954TIP3    H245354   2.455   5.377   3.820 -1.5075 -0.5201 -2.0232
 7955TIP3   OH245355   5.252   2.552   4.060 -0.2215 -0.4105 -0.6830
 7955TIP3    H145356   5.247   2.598   3.977 -0.6048  0.4499 -0.2032
 7955TIP3    H245357   5.228   2.462   4.039 -1.6836  0.0911 -1.2850
 7956TIP3   OH245358   3.629   0.512   3.907  0.2046  0.2998  0.1549
 7956TIP3    H145359   3.635   0.465   3.990  0.8604  1.3026  0.7058
 7956TIP3    H245360   3.538   0.540   3.902  0.2396  0.5341  0.7229
 7957TIP3   OH245361   2.579   0.977   1.906  0.0518 -0.2124 -0.0181
 7957TIP3    H145362   2.492   1.001   1.874 -0.1772 -1.3500 -0.3150
 7957TIP3    H245363   2.563   0.942   1.993  0.1426 -0.8370 -0.2469
 7958TIP3   OH245364   1.516   4.766   1.518  0.1661  0.2756  0.1192
 7958TIP3    H145365   1.535   4.694   1.578  1.0085 -0.0307 -0.4958
 7958TIP3    H245366   1.495   4.840   1.574  1.3497  0.1137  0.8084
 7959TIP3   OH245367   4.672   4.615  13.025 -0.3008  0.0850  0.2241
 7959TIP3    H145368   4.636   4.675  13.090 -1.0940 -1.8486  1.6894
 7959TIP3    H245369   4.702   4.540  13.077  2.3123 -0.0529 -1.3340
 7960TIP3   OH245370   0.857   3.061  14.151  0.7449 -0.3593 -0.2565
 7960TIP3    H145371   0.774   3.014  14.151 -0.0856  1.0736 -0.6772
 7960TIP3    H245372   0.913   3.011  14.211 -1.8022  1.0479  3.6362
 7961TIP3   OH245373   1.345   2.418   5.849  0.6268  0.1706 -0.4161
 7961TIP3    H145374   1.368   2.476   5.921  0.4792 -0.9931  0.6074
 7961TIP3    H245375   1.404   2.343   5.859 -0.4673 -0.7271 -0.5457
 7962TIP3   OH245376   4.124   0.009   2.647  0.7974  0.5076 -0.4471
 7962TIP3    H145377   4.136  -0.083   2.622  1.4041  0.5126 -0.1780
 7962TIP3    H245378   4.047   0.037   2.597  0.5399 -0.1770 -0.4457
 7963TIP3   OH245379   2.704   2.389   2.994  0.1552  0.4781 -0.0535
 7963TIP3    H145380   2.708   2.421   3.084 -2.6289  0.4706  0.1729
 7963TIP3    H245381   2.784   2.338   2.982  0.5416  0.4079  2.4386
 7964TIP3   OH245382   5.947   6.445   3.058 -0.3366  0.1488  0.3638
 7964TIP3    H145383   5.994   6.363   3.047 -1.1163 -0.0695 -1.8877
 7964TIP3    H245384   6.015   6.512   3.064  0.2875 -0.4079 -0.3902
 7965TIP3   OH245385   5.405   4.957  16.708 -0.3064 -0.1292 -0.3121
 7965TIP3    H145386   5.480   4.920  16.660  1.8619  3.7284 -0.3121
 7965TIP3    H245387   5.371   5.025  16.650 -2.1339 -0.0279  0.8137
 7966TIP3   OH245388   6.816   5.461   2.452  0.0183 -0.5277  0.0132
 7966TIP3    H145389   6.896   5.498   2.490  1.8103 -3.2951 -0.7706
 7966TIP3    H245390   6.808   5.502   2.366  0.0830  0.3778  0.4290
 7967TIP3   OH245391   2.200   4.019  17.049  0.0718  0.1172 -0.2611
 7967TIP3    H145392   2.281   3.972  17.024  0.7334  2.2276 -2.5161
 7967TIP3    H245393   2.138   3.995  16.980 -0.2071  0.9422 -0.3009
 7968TIP3   OH245394   0.486   6.808   5.285 -0.1808 -0.0697  0.7788
 7968TIP3    H145395   0.518   6.720   5.307  1.9485  0.3857 -0.1972
 7968TIP3    H245396   0.449   6.798   5.197 -0.8355 -0.1641  1.0584
 7969TIP3   OH245397   4.860   4.101   4.573  0.4224  0.2626 -0.7918
 7969TIP3    H145398   4.933   4.163   4.574  0.6358  0.0240  0.4801
 7969TIP3    H245399   4.782   4.156   4.584  0.5516  0.3845 -0.4582
 7970TIP3   OH245400   1.191   6.729   0.754  0.1263  0.1935  0.3516
 7970TIP3    H145401   1.184   6.824   0.751  1.1834  0.2587 -0.9423
 7970TIP3    H245402   1.216   6.710   0.845  0.4664  1.1891  0.4749
 7971TIP3   OH245403   3.579   5.279  13.197  0.1039 -0.4638  0.6641
 7971TIP3    H145404   3.587   5.330  13.116  1.9318  0.4570  1.3774
 7971TIP3    H245405   3.580   5.343  13.267 -0.0735 -1.3417  1.4943
 7972TIP3   OH245406   5.363   5.435  14.450 -0.0878 -0.6023  0.0088
 7972TIP3    H145407   5.312   5.453  14.371 -1.4360 -0.6167  0.8401
 7972TIP3    H245408   5.453   5.456  14.425 -0.6038  0.3054 -1.2494
 7973TIP3   OH245409   4.938   2.188   1.879  0.5455  0.3685  0.3633
 7973TIP3    H145410   4.889   2.142   1.810  0.6364 -0.8945  1.1273
 7973TIP3    H245411   4.880   2.185   1.955  0.7001  1.2331  0.5244
 7974TIP3   OH245412   2.406   2.301  16.008 -0.2638  0.3600 -0.2420
 7974TIP3    H145413   2.454   2.364  16.061  2.2365 -1.9998  0.5159
 7974TIP3    H245414   2.402   2.222  16.062 -0.4797 -1.1225 -2.3135
 7975TIP3   OH245415   0.514   4.529  15.599  0.1899 -0.5606  0.2624
 7975TIP3    H145416   0.425   4.512  15.628  0.1137  0.2644  0.5538
 7975TIP3    H245417   0.511   4.522  15.504 -0.3575  0.1693  0.2127
 7976TIP3   OH245418   3.923   0.514  14.862  0.7208 -0.6567  0.2890
 7976TIP3    H145419   4.010   0.548  14.884  0.5763  0.3288 -0.6027
 7976TIP3    H245420   3.874   0.517  14.944  1.2474 -0.3388  0.5950
 7977TIP3   OH245421   0.748   4.267  13.731 -0.5011  0.4695 -0.2047
 7977TIP3    H145422   0.788   4.186  13.699 -1.1612 -0.5978  1.5400
 7977TIP3    H245423   0.671   4.279  13.676 -0.6368 -0.3416 -0.2076
 7978TIP3   OH245424   3.072   1.667  15.466  0.1693  0.3418  0.0727
 7978TIP3    H145425   2.984   1.671  15.430  0.7169  0.8564 -1.2811
 7978TIP3    H245426   3.059   1.656  15.560 -1.3309 -2.0625 -0.3169
 7979TIP3   OH245427   6.707   2.876   2.204  0.0068  0.1660 -0.1267
 7979TIP3    H145428   6.737   2.964   2.225  0.5417 -0.3300  1.3262
 7979TIP3    H245429   6.752   2.854   2.122 -0.3723  1.3395 -0.6659
 7980TIP3   OH245430   0.479   5.873   0.119 -0.2152 -0.3746 -0.3945
 7980TIP3    H145431   0.525   5.836   0.194 -0.4309 -0.0187 -0.0828
 7980TIP3    H245432   0.546   5.917   0.067 -0.0670 -0.6145 -0.4054
 7981TIP3   OH245433   1.308   5.467   3.564 -0.2903 -0.7723  0.0340
 7981TIP3    H145434   1.296   5.467   3.659  0.9700  0.1519  0.2147
 7981TIP3    H245435   1.263   5.545   3.533  0.2333 -0.4736  0.0128
 7982TIP3   OH245436   5.821   5.702  16.553 -0.9398 -0.5309  0.0299
 7982TIP3    H145437   5.812   5.795  16.534 -1.1706 -0.5000  0.2791
 7982TIP3    H245438   5.820   5.659  16.467  0.6225 -0.1923 -0.1839
 7983TIP3   OH245439   1.198   2.516   4.618 -0.1851 -0.5657 -0.3985
 7983TIP3    H145440   1.175   2.544   4.706  2.3451 -1.0519  0.4796
 7983TIP3    H245441   1.125   2.460   4.591 -0.3197 -1.6399  1.9992
 7984TIP3   OH245442   0.692   4.361  14.340  0.8510 -0.1645  0.4961
 7984TIP3    H145443   0.670   4.453  14.353  0.6412 -0.1687  0.1874
 7984TIP3    H245444   0.778   4.362  14.297  0.4830 -0.0844 -0.2573
 7985TIP3   OH245445   3.263   5.705   1.725  0.2462  0.7053  0.1534
 7985TIP3    H145446   3.356   5.684   1.711  0.1169  1.1250 -1.5292
 7985TIP3    H245447   3.237   5.751   1.646 -1.8727 -0.9934 -0.2283
 7986TIP3   OH245448   0.003   1.470  12.500 -0.7320 -0.8984  0.4610
 7986TIP3    H145449   0.093   1.439  12.493 -0.6983 -0.4300 -1.9622
 7986TIP3    H245450   0.011   1.565  12.510 -0.9532 -0.7739 -0.4901
 7987TIP3   OH245451   6.230   0.700  10.846 -0.0029 -0.2621  0.3725
 7987TIP3    H145452   6.278   0.618  10.835 -1.0104 -0.8861  0.4583
 7987TIP3    H245453   6.202   0.723  10.757 -1.0235 -0.8512  0.5178
 7988TIP3   OH245454   0.313   6.090  13.274 -0.1099 -0.0042 -0.1687
 7988TIP3    H145455   0.407   6.072  13.283 -0.0649  0.0855 -0.4323
 7988TIP3    H245456   0.298   6.166  13.331  0.1420  0.4779 -0.7250
 7989TIP3   OH245457   0.363   1.145   3.008 -0.2730 -0.2640 -0.5082
 7989TIP3    H145458   0.435   1.168   3.067 -1.1654 -2.4088  1.5802
 7989TIP3    H245459   0.405   1.132   2.923  1.7108 -0.8641  0.5017
 7990TIP3   OH245460   2.732   0.711   3.502  0.0315 -0.5481 -0.3272
 7990TIP3    H145461   2.758   0.803   3.494  3.2929 -1.3684 -0.7377
 7990TIP3    H245462   2.687   0.705   3.586  0.6210  1.2624  0.1601
 7991TIP3   OH245463   3.741   1.211  11.747 -0.2971  0.7232 -0.0561
 7991TIP3    H145464   3.655   1.215  11.704 -0.1099 -0.6278 -0.6115
 7991TIP3    H245465   3.803   1.240  11.680 -0.2161  0.6755 -0.0028
 7992TIP3   OH245466   1.576   3.782   0.708  0.4272  0.3581 -0.2343
 7992TIP3    H145467   1.610   3.773   0.797  4.4433  0.1430 -1.6096
 7992TIP3    H245468   1.575   3.693   0.673 -0.1674  0.5665 -0.7801
 7993TIP3   OH245469   6.724   5.476   1.197 -0.4816 -0.1296 -0.6270
 7993TIP3    H145470   6.760   5.396   1.159  1.7112  0.9554 -0.9949
 7993TIP3    H245471   6.687   5.448   1.280 -0.6495 -1.6803 -1.1790
 7994TIP3   OH245472   3.584   3.767   4.054 -0.4713 -0.4483 -0.4459
 7994TIP3    H145473   3.652   3.828   4.081 -1.0475 -0.0824  0.2436
 7994TIP3    H245474   3.620   3.680   4.071 -0.0081 -0.2697 -0.5213
 7995TIP3   OH245475   0.707   6.553   1.321 -0.1803 -0.3657 -0.2007
 7995TIP3    H145476   0.636   6.489   1.335  1.0310 -1.7447 -0.1079
 7995TIP3    H245477   0.770   6.533   1.390  0.5077  0.5583 -0.5496
 7996TIP3   OH245478   6.323   5.571   6.424  0.4691  0.8507 -0.3903
 7996TIP3    H145479   6.339   5.599   6.334  0.3141  1.0385 -0.3603
 7996TIP3    H245480   6.337   5.476   6.422  0.9046  0.9146 -0.5122
 7997TIP3   OH245481   3.905   0.068   2.493 -0.0797 -0.1713  0.0523
 7997TIP3    H145482   3.872   0.110   2.414 -0.2347  1.3923  0.9196
 7997TIP3    H245483   3.833   0.072   2.556 -0.5626 -2.8949 -0.1821
 7998TIP3   OH245484   2.315   4.549   2.313 -0.4479  0.2591 -0.1492
 7998TIP3    H145485   2.395   4.516   2.271  0.7249  1.6178  0.9295
 7998TIP3    H245486   2.322   4.519   2.404 -1.9691 -0.9450 -0.3882
 7999TIP3   OH245487   1.000   4.434   2.619 -0.8408 -0.1544 -0.5205
 7999TIP3    H145488   0.959   4.380   2.551 -0.1838 -1.1045 -0.1866
 7999TIP3    H245489   0.940   4.427   2.694 -1.2667  0.4120 -0.8044
 8000TIP3   OH245490   1.208   3.928   3.132  0.0461 -0.3623  0.1561
 8000TIP3    H145491   1.234   3.971   3.050 -0.3775 -0.8262 -0.2266
 8000TIP3    H245492   1.129   3.880   3.109  0.5643 -1.4348  0.5537
 8001TIP3   OH245493   6.584   5.341   0.712 -0.0947 -0.6594  0.3701
 8001TIP3    H145494   6.521   5.354   0.642 -1.6534 -0.4913  1.7524
 8001TIP3    H245495   6.551   5.266   0.761  1.7987 -1.7618  0.0699
 8002TIP3   OH245496   5.482   4.818  11.703 -0.6918  0.3729 -0.4134
 8002TIP3    H145497   5.499   4.883  11.635  0.8614 -0.3499 -0.7736
 8002TIP3    H245498   5.451   4.741  11.655 -0.1070  0.0373 -0.2624
 8003TIP3   OH245499   1.378   6.694  11.449  0.2878  0.4514  0.3874
 8003TIP3    H145500   1.461   6.732  11.478  0.1840  1.4128 -0.5135
 8003TIP3    H245501   1.403   6.635  11.377  0.0275  2.6090 -1.6015
 8004TIP3   OH245502   1.125   1.769  14.094 -0.6967  0.3858  0.5688
 8004TIP3    H145503   1.212   1.809  14.088 -1.5592  2.2561 -0.2238
 8004TIP3    H245504   1.105   1.770  14.188  1.0194 -2.2125  1.0680
 8005TIP3   OH245505   3.896   1.873  15.228  0.3044  0.3109  0.3375
 8005TIP3    H145506   3.893   1.793  15.281  0.8237  0.6887  0.9570
 8005TIP3    H245507   3.834   1.858  15.157 -0.7244 -0.0566  1.2863
 8006TIP3   OH245508   4.471   4.304   4.383  0.1891  0.3652 -0.2643
 8006TIP3    H145509   4.457   4.254   4.463 -0.2532  0.3767 -0.3328
 8006TIP3    H245510   4.471   4.239   4.313  1.3109  0.2645 -0.1933
 8007TIP3   OH245511   6.789   2.451   2.182 -0.4139 -0.2597  0.5172
 8007TIP3    H145512   6.717   2.444   2.119 -0.8413  0.3863  0.9259
 8007TIP3    H245513   6.771   2.531   2.231 -0.0095 -0.6717  1.3656
 8008TIP3   OH245514   1.589   4.761  14.172  0.0556  0.4109 -0.1630
 8008TIP3    H145515   1.661   4.699  14.179 -0.7716 -0.4369  1.6062
 8008TIP3    H245516   1.625   4.845  14.202  0.0123 -0.3202  2.1625
 8009TIP3   OH245517   6.260   1.870  13.661 -0.0412  0.2536  0.1381
 8009TIP3    H145518   6.226   1.958  13.643  1.4363  1.2150  1.6901
 8009TIP3    H245519   6.225   1.849  13.748 -0.2434 -0.6360 -0.1495
 8010TIP3   OH245520   3.811   0.088   5.311  0.3022  0.3227 -0.0874
 8010TIP3    H145521   3.719   0.091   5.338  0.0948  0.5526 -0.8122
 8010TIP3    H245522   3.818   0.154   5.242  0.8034 -0.3217 -0.6656
 8011TIP3   OH245523   5.395   6.002   6.162 -0.1776  0.1341 -0.0445
 8011TIP3    H145524   5.314   5.958   6.185 -0.2516 -0.8422 -1.9352
 8011TIP3    H245525   5.463   5.955   6.211 -0.7495  1.1759  1.8077
 8012TIP3   OH245526   0.534   4.867   4.160 -0.1815  0.1795  0.0945
 8012TIP3    H145527   0.517   4.959   4.142 -0.8283  0.4363  1.7995
 8012TIP3    H245528   0.447   4.826   4.156 -0.0121 -0.1952  0.2153
 8013TIP3   OH245529   4.526   0.982  12.654 -0.2151 -0.1316 -0.4961
 8013TIP3    H145530   4.491   0.895  12.675  0.1801 -0.5053 -1.3735
 8013TIP3    H245531   4.607   0.988  12.704 -0.7203  0.1267  0.3231
 8014TIP3   OH245532   2.456   5.096   4.742 -0.1335 -0.1901  0.0398
 8014TIP3    H145533   2.378   5.145   4.768  0.7723  1.7003 -0.6300
 8014TIP3    H245534   2.486   5.054   4.823 -0.9048  0.4358  0.6627
 8015TIP3   OH245535   2.750   3.412  16.791 -0.0749  0.3649 -0.1100
 8015TIP3    H145536   2.715   3.496  16.762  0.0465 -0.5111 -3.1302
 8015TIP3    H245537   2.818   3.391  16.727  1.1551 -1.2255  1.6063
 8016TIP3   OH245538   4.818   0.589  15.652 -0.0283 -0.0101 -0.2223
 8016TIP3    H145539   4.834   0.674  15.610  0.5493  0.1764  0.3473
 8016TIP3    H245540   4.738   0.603  15.703 -0.1060  0.0992 -0.3727
 8017TIP3   OH245541   5.064   1.137  12.691  0.3652 -0.1689 -0.2046
 8017TIP3    H145542   5.046   1.049  12.658 -0.4682 -0.5728  1.2402
 8017TIP3    H245543   5.052   1.194  12.615 -0.0142 -1.2014 -0.9489
 8018TIP3   OH245544   6.774   1.708  13.585  0.3692 -0.3229 -0.0067
 8018TIP3    H145545   6.701   1.711  13.648 -0.2591  1.2274 -0.7384
 8018TIP3    H245546   6.739   1.751  13.506  1.1751 -2.0721 -1.3924
 8019TIP3   OH245547   3.840   5.189   1.499  0.0828  0.2937  0.8001
 8019TIP3    H145548   3.908   5.205   1.565 -1.8870 -0.1800  3.0849
 8019TIP3    H245549   3.777   5.259   1.512  0.3755  1.1325 -1.7589
 8020TIP3   OH245550   4.528   3.681  16.295  0.8688  0.0046 -0.0572
 8020TIP3    H145551   4.439   3.647  16.292  0.5305  0.8420  0.1587
 8020TIP3    H245552   4.540   3.723  16.210  0.3070  1.6715  0.6385
 8021TIP3   OH245553   3.278   4.309  11.491 -0.1809 -0.2876 -0.6780
 8021TIP3    H145554   3.197   4.313  11.440 -0.0084  0.0982 -0.9255
 8021TIP3    H245555   3.258   4.250  11.563 -0.3095 -1.1577 -1.4142
 8022TIP3   OH245556   3.017   1.952   4.515 -0.0884  0.1664  0.1698
 8022TIP3    H145557   3.095   1.913   4.554  0.4361  0.4809 -0.5554
 8022TIP3    H245558   2.970   1.990   4.589  0.4377 -0.0335  0.6104
 8023TIP3   OH245559   5.721   1.564   3.838  0.0893  0.0665 -0.7762
 8023TIP3    H145560   5.793   1.626   3.850  1.3263 -0.7502 -3.3123
 8023TIP3    H245561   5.765   1.480   3.824 -1.4514 -0.7972 -0.5848
 8024TIP3   OH245562   6.791   1.958  12.642  0.6016 -0.0145  0.4738
 8024TIP3    H145563   6.844   1.900  12.588  0.4717  0.6528 -0.4031
 8024TIP3    H245564   6.732   1.900  12.689  2.3939 -0.8237  1.8380
 8025TIP3   OH245565   3.698   1.310  16.231 -0.3074  0.2881 -0.1798
 8025TIP3    H145566   3.747   1.330  16.152 -0.6784  0.9497 -0.2498
 8025TIP3    H245567   3.765   1.297  16.298  0.0765 -1.7342 -0.8952
 8026TIP3   OH245568   0.379   5.097  16.845  0.1706 -0.2136 -0.6231
 8026TIP3    H145569   0.393   5.002  16.838  1.0966 -0.3827  2.0057
 8026TIP3    H245570   0.430   5.122  16.923 -1.0975  2.2314 -0.4929
 8027TIP3   OH245571   5.218   6.650   4.969 -0.0077  1.1279  0.2687
 8027TIP3    H145572   5.171   6.581   5.016  0.4840  0.7081  0.1545
 8027TIP3    H245573   5.157   6.679   4.901 -0.2117  0.7912  0.3080
 8028TIP3   OH245574   1.416   5.681   5.665  0.7591 -0.1729  0.7268
 8028TIP3    H145575   1.378   5.690   5.752  2.0530 -0.8187  1.3831
 8028TIP3    H245576   1.508   5.706   5.676  0.8695  0.0644 -0.5356
 8029TIP3   OH245577   5.313   1.503   4.174  0.4262 -0.0396  0.1286
 8029TIP3    H145578   5.241   1.458   4.130 -0.2410 -0.3553  1.4623
 8029TIP3    H245579   5.270   1.568   4.229  1.0312 -1.0120  1.8450
 8030TIP3   OH245580   4.852   0.669   1.968  0.3282  0.3231 -0.4261
 8030TIP3    H145581   4.762   0.691   1.991  0.7723  1.9331 -0.1223
 8030TIP3    H245582   4.864   0.580   2.001 -0.8906  0.3907  0.2678
 8031TIP3   OH245583   1.960   4.912   0.266  0.2518 -0.3209 -0.1667
 8031TIP3    H145584   2.002   4.978   0.211  2.7284 -1.4680  0.2259
 8031TIP3    H245585   1.869   4.910   0.236  0.3836  2.4035 -0.9592
 8032TIP3   OH245586   0.924   5.033  13.862  0.0744  0.0919  0.6137
 8032TIP3    H145587   0.980   4.955  13.858  1.3250  0.9990 -0.7409
 8032TIP3    H245588   0.958   5.083  13.936 -0.5256 -0.4894  1.2904
 8033TIP3   OH245589   3.768   1.672   4.463  0.1373  0.2252 -0.3335
 8033TIP3    H145590   3.748   1.607   4.529 -1.3517  2.8961  2.0630
 8033TIP3    H245591   3.836   1.727   4.503  1.7050 -0.0375 -2.4604
 8034TIP3   OH245592   2.341   3.434   1.937 -0.2155  0.4830 -0.0706
 8034TIP3    H145593   2.301   3.412   1.853 -0.7738  0.2558  0.2439
 8034TIP3    H245594   2.433   3.411   1.928 -0.4518 -0.3738 -0.3186
 8035TIP3   OH245595   6.793   1.795  15.880  0.3117 -0.5610  0.4888
 8035TIP3    H145596   6.789   1.770  15.972  1.0039 -3.1225 -0.0904
 8035TIP3    H245597   6.856   1.734  15.841 -0.3943  0.0536 -1.8079
 8036TIP3   OH245598   2.961   5.055  11.684 -0.3089  0.0593 -0.3424
 8036TIP3    H145599   3.034   5.002  11.717 -1.8955 -1.3184  1.1086
 8036TIP3    H245600   2.929   5.102  11.761 -0.8431  0.8181 -1.0097
 8037TIP3   OH245601   6.684   5.821  11.260 -0.3482  0.9159 -0.3300
 8037TIP3    H145602   6.748   5.871  11.310 -1.6613  2.6265 -0.2717
 8037TIP3    H245603   6.606   5.876  11.258 -0.9648  0.1016 -2.6911
 8038TIP3   OH245604   0.908   1.875  15.702  0.0514  0.7825 -0.0856
 8038TIP3    H145605   0.930   1.899  15.792 -0.0698  1.1086 -0.1389
 8038TIP3    H245606   0.817   1.903  15.692 -0.2225 -0.0622 -0.0316
 8039TIP3   OH245607   5.643   4.798  16.626  0.4420  0.2928 -0.0783
 8039TIP3    H145608   5.609   4.709  16.619  1.4831 -0.3070  1.6728
 8039TIP3    H245609   5.729   4.787  16.666  0.1558  2.1398  1.1751
 8040TIP3   OH245610   1.320   0.124   3.895 -0.0424  0.3955  1.0656
 8040TIP3    H145611   1.375   0.113   3.974 -1.3610 -0.3443  1.9145
 8040TIP3    H245612   1.378   0.101   3.823  1.5754  2.2759  1.6836
 8041TIP3   OH245613   3.593   0.308   5.881 -0.3144  0.0382  0.3781
 8041TIP3    H145614   3.576   0.380   5.943  0.0611  0.2140  0.2802
 8041TIP3    H245615   3.586   0.349   5.795  0.8382  0.1775  0.3369
 8042TIP3   OH245616   1.021   4.165   1.633 -0.1783 -0.0522 -0.6933
 8042TIP3    H145617   1.025   4.251   1.591  0.8829 -0.0112 -0.5362
 8042TIP3    H245618   1.077   4.173   1.710 -2.5964  0.0888  1.2079
 8043TIP3   OH245619   0.222   6.018  15.568  0.4989  0.3222  0.0446
 8043TIP3    H145620   0.133   6.052  15.581  0.8670  1.1318  0.5505
 8043TIP3    H245621   0.274   6.096  15.551  1.2403 -0.0803  0.4541
 8044TIP3   OH245622   0.360   6.297   2.934  0.0070  0.3298  0.4277
 8044TIP3    H145623   0.383   6.330   3.021  1.8202 -1.7867  0.8324
 8044TIP3    H245624   0.437   6.249   2.905 -1.2375 -0.5829 -1.5818
 8045TIP3   OH245625   4.313   0.979   4.105  0.0013 -0.9843 -0.1249
 8045TIP3    H145626   4.223   1.011   4.111  0.7961  1.0775  1.8165
 8045TIP3    H245627   4.354   1.004   4.187  2.7710 -0.6326 -1.4894
 8046TIP3   OH245628   4.251   0.993   0.261  0.5911  0.2317 -1.0337
 8046TIP3    H145629   4.274   0.901   0.267 -1.1788 -0.1445  1.4455
 8046TIP3    H245630   4.301   1.035   0.332 -0.7183  0.6221 -0.2961
 8047TIP3   OH245631   4.923   1.352  10.849  0.3269  0.4314 -0.4687
 8047TIP3    H145632   4.884   1.354  10.936  0.6094 -0.1950 -0.3207
 8047TIP3    H245633   5.000   1.295  10.859  1.2583  1.5949 -0.7532
 8048TIP3   OH245634   1.788   2.327   6.510 -0.0890  0.2059  0.1328
 8048TIP3    H145635   1.724   2.336   6.581 -0.4157 -0.5068 -0.0548
 8048TIP3    H245636   1.770   2.400   6.452 -0.1390  0.5220  0.5406
 8049TIP3   OH245637   2.209   5.469  14.530 -0.0631 -0.0230  0.0850
 8049TIP3    H145638   2.211   5.565  14.536  0.2659  0.0596 -1.0761
 8049TIP3    H245639   2.293   5.446  14.492 -1.5282 -0.4360 -3.2776
 8050TIP3   OH245640   4.551   2.377  13.203  0.4438  0.2131  0.1015
 8050TIP3    H145641   4.522   2.468  13.211 -1.1983 -0.3438  1.0810
 8050TIP3    H245642   4.548   2.359  13.109 -0.4165  0.8269 -0.0013
 8051TIP3   OH245643   1.352   6.069  15.841 -0.1469  0.7197 -0.2372
 8051TIP3    H145644   1.419   6.044  15.778 -1.1438 -1.5096 -0.5335
 8051TIP3    H245645   1.323   5.985  15.879 -0.6925  1.8423  2.0385
 8052TIP3   OH245646   5.541   4.557   1.341 -0.6032 -0.8866  0.3282
 8052TIP3    H145647   5.558   4.464   1.322  0.2796 -1.0948  1.9944
 8052TIP3    H245648   5.473   4.556   1.408  2.0601 -0.5901  3.2953
 8053TIP3   OH245649   5.450   6.703   4.014 -0.1602 -0.1168 -0.4929
 8053TIP3    H145650   5.410   6.659   3.940 -1.4769 -0.1448  0.2215
 8053TIP3    H245651   5.438   6.644   4.088  1.2672 -0.1536 -0.2636
 8054TIP3   OH245652   1.709   5.061   4.689  0.0310  0.3506 -0.0998
 8054TIP3    H145653   1.692   5.023   4.602 -1.5099  0.7603 -0.0115
 8054TIP3    H245654   1.645   5.019   4.746  1.9385 -0.9673  1.1847
 8055TIP3   OH245655   5.144   1.097  11.755 -0.8352 -0.5789  0.7221
 8055TIP3    H145656   5.072   1.038  11.733 -0.9401 -0.8472  1.7570
 8055TIP3    H245657   5.130   1.119  11.847  0.4653 -0.7229  0.9760
 8056TIP3   OH245658   4.796   0.780   5.561  0.5605  0.3187  0.4137
 8056TIP3    H145659   4.749   0.862   5.573 -1.2945 -0.6764  0.1990
 8056TIP3    H245660   4.745   0.715   5.610  0.2557 -1.2756 -1.8777
 8057TIP3   OH245661   2.794   3.169  15.545  0.5858  0.5429  0.1379
 8057TIP3    H145662   2.816   3.251  15.501 -1.9201  1.2723  0.0848
 8057TIP3    H245663   2.800   3.102  15.476  3.2619  0.5083  0.3241
 8058TIP3   OH245664   3.990   2.330  10.797  0.6209  0.0813 -0.0189
 8058TIP3    H145665   3.991   2.288  10.711 -0.7419 -2.1671  0.9805
 8058TIP3    H245666   4.078   2.317  10.832 -0.0771 -3.3649  0.8103
 8059TIP3   OH245667   5.463   5.275   1.526 -0.6228  0.2346 -0.2210
 8059TIP3    H145668   5.504   5.361   1.518  0.4333 -0.2577 -0.3377
 8059TIP3    H245669   5.450   5.246   1.436  1.5876 -0.8688 -0.2600
 8060TIP3   OH245670   1.010   6.821  11.988  0.7744  0.3796 -0.4662
 8060TIP3    H145671   1.002   6.840  12.082  1.8111  2.2121 -0.7178
 8060TIP3    H245672   0.979   6.731  11.980 -0.6451  0.6297  1.4248
 8061TIP3   OH245673   1.585   2.295   5.686  0.1609 -0.4155 -0.5803
 8061TIP3    H145674   1.569   2.286   5.592  1.6949  0.1271 -0.9158
 8061TIP3    H245675   1.591   2.205   5.719 -0.0419 -0.6041 -1.0585
 8062TIP3   OH245676   4.900   0.130  12.334  0.3240  0.4186 -0.2698
 8062TIP3    H145677   4.884   0.036  12.344  0.8890  0.2552 -0.8063
 8062TIP3    H245678   4.994   0.136  12.313  0.2363  1.0797 -0.4879
 8063TIP3   OH245679   4.497   0.194  16.170 -0.2733  0.4585 -0.1463
 8063TIP3    H145680   4.444   0.119  16.145  0.8427 -0.4057 -0.0148
 8063TIP3    H245681   4.471   0.264  16.110  0.6383 -0.8499 -2.1757
 8064TIP3   OH245682   3.392   3.570   4.008 -0.3004 -0.4250 -0.0562
 8064TIP3    H145683   3.400   3.525   3.924  2.0711 -0.6143  0.2002
 8064TIP3    H245684   3.417   3.660   3.989 -1.9292  0.0952  0.0680
 8065TIP3   OH245685   3.654   4.161   1.903 -0.3888 -0.1765  0.4404
 8065TIP3    H145686   3.643   4.068   1.923  2.5051 -0.2186  2.2642
 8065TIP3    H245687   3.634   4.206   1.985 -0.9498  0.7836 -0.2006
 8066TIP3   OH245688   5.273   3.658  17.091 -0.1332 -0.1836  0.2136
 8066TIP3    H145689   5.368   3.668  17.083 -0.1763 -0.6546 -1.1180
 8066TIP3    H245690   5.237   3.743  17.065 -0.0943 -0.1277  0.3416
 8067TIP3   OH245691   5.039   0.224  12.976 -0.1240  0.1297 -0.0243
 8067TIP3    H145692   5.052   0.151  13.037 -0.3085  0.4469  0.3985
 8067TIP3    H245693   4.954   0.261  13.000 -0.4253 -0.0424 -0.7941
 8068TIP3   OH245694   2.032   2.976  13.575 -0.2765  0.1703 -0.2942
 8068TIP3    H145695   1.989   3.061  13.571 -0.8766 -0.1241 -0.2284
 8068TIP3    H245696   1.992   2.932  13.650 -1.5210 -0.9832 -1.5893
 8069TIP3   OH245697   1.811   0.932   6.276 -0.0356  0.2018  0.2393
 8069TIP3    H145698   1.776   0.861   6.330  1.1881 -0.1530  0.5964
 8069TIP3    H245699   1.875   0.889   6.219  1.1209  1.0766  0.8314
 8070TIP3   OH245700   5.453   4.791   5.708 -0.1004  0.1690  0.3372
 8070TIP3    H145701   5.467   4.867   5.652 -0.0055  0.0632  0.2188
 8070TIP3    H245702   5.484   4.717   5.657  2.7472  0.3592  1.6274
 8071TIP3   OH245703   6.009   0.461  11.896 -0.0460 -0.3257  0.6489
 8071TIP3    H145704   5.971   0.426  11.815 -0.4383 -0.4410  0.8769
 8071TIP3    H245705   6.099   0.428  11.897  0.1643  0.2024 -0.0531
 8072TIP3   OH245706   4.475   5.468  13.288  0.1584  0.3349  0.2081
 8072TIP3    H145707   4.551   5.496  13.340  0.4880  0.2171 -0.1976
 8072TIP3    H245708   4.509   5.464  13.198  0.8933 -3.8414  0.4656
 8073TIP3   OH245709   0.910   4.583  16.667  0.1124 -0.8306 -0.3177
 8073TIP3    H145710   0.946   4.541  16.589 -0.7378 -2.4408  0.1212
 8073TIP3    H245711   0.960   4.664  16.676  0.8700 -1.0805 -1.9811
 8074TIP3   OH245712   0.459   5.331   0.364 -0.0700  0.0757 -0.0786
 8074TIP3    H145713   0.372   5.323   0.401 -0.3858 -0.8359 -0.9751
 8074TIP3    H245714   0.518   5.316   0.438 -0.6823 -1.0992  0.2065
 8075TIP3   OH245715   1.536   2.814  12.817 -0.4378 -0.5867  0.3157
 8075TIP3    H145716   1.532   2.901  12.857  0.9362 -0.3084 -0.0906
 8075TIP3    H245717   1.455   2.807  12.766 -0.4546  0.5581  0.1495
 8076TIP3   OH245718   3.964   0.023   1.883  0.2163 -0.1813 -0.3223
 8076TIP3    H145719   3.882   0.072   1.875  0.1115 -0.2196  0.4170
 8076TIP3    H245720   3.997   0.016   1.794 -1.0528 -0.9423 -0.7596
 8077TIP3   OH245721   4.158   6.072   0.105 -0.5384 -0.2259  0.4083
 8077TIP3    H145722   4.171   6.113   0.020 -0.2386 -0.9146  0.1129
 8077TIP3    H245723   4.235   6.097   0.156 -0.0785 -0.8655  0.0449
 8078TIP3   OH245724   1.995   5.976   3.252 -0.5172 -0.4270  1.0481
 8078TIP3    H145725   2.022   6.041   3.317 -0.8074  0.9997 -0.2019
 8078TIP3    H245726   1.901   5.965   3.268 -0.7592  0.5369  0.3854
 8079TIP3   OH245727   6.308   2.217  12.040 -0.0148 -0.0513 -0.0841
 8079TIP3    H145728   6.215   2.222  12.066  0.0976  2.7901  0.1591
 8079TIP3    H245729   6.327   2.124  12.038 -2.5212 -0.7055  1.1890
 8080TIP3   OH245730   6.055   0.458  16.975  0.2187  0.1615  0.1533
 8080TIP3    H145731   6.078   0.365  16.981  1.7861  0.6168  2.1159
 8080TIP3    H245732   6.086   0.485  16.889  0.3622 -0.9696 -0.1651
 8081TIP3   OH245733   0.257   2.943   2.955  0.4432 -0.2439  0.0959
 8081TIP3    H145734   0.321   2.977   3.018  1.4787 -2.2734  0.2155
 8081TIP3    H245735   0.310   2.908   2.883 -0.6145 -0.4375 -0.6079
 8082TIP3   OH245736   1.541   1.212   2.059 -0.5640  0.0351 -0.1608
 8082TIP3    H145737   1.576   1.250   2.140  1.4433  0.4990 -1.1780
 8082TIP3    H245738   1.615   1.164   2.021 -1.4253 -0.0870 -1.7784
 8083TIP3   OH245739   0.947   4.653   1.117 -0.7147  0.3873 -0.2919
 8083TIP3    H145740   0.974   4.710   1.189  1.6136  2.1154 -2.3510
 8083TIP3    H245741   0.857   4.679   1.099 -0.1340  2.5888 -0.3321
 8084TIP3   OH245742   1.769   0.970  10.639  0.8101  0.5528 -0.4225
 8084TIP3    H145743   1.842   0.917  10.604 -0.1419 -1.6117  0.6706
 8084TIP3    H245744   1.802   1.004  10.722  0.4727 -0.8280  0.3091
 8085TIP3   OH245745   6.476   4.790   2.591  0.0695 -0.6451 -0.1627
 8085TIP3    H145746   6.405   4.825   2.645  0.6613 -0.5880  0.5995
 8085TIP3    H245747   6.510   4.716   2.641  1.4831  0.2044  0.2018
 8086TIP3   OH245748   2.220   1.813   0.676 -0.2842  0.1082 -0.4916
 8086TIP3    H145749   2.302   1.790   0.720 -0.7278  0.9349  0.8300
 8086TIP3    H245750   2.191   1.892   0.721 -0.2665  1.6054 -2.9461
 8087TIP3   OH245751   1.765   4.671  12.234 -0.2701 -0.1030  0.7449
 8087TIP3    H145752   1.794   4.723  12.159 -0.9376  1.0794  1.2806
 8087TIP3    H245753   1.784   4.581  12.210  0.4106  0.3423 -0.4436
 8088TIP3   OH245754   1.645   1.168  10.912  0.0537  0.0176  0.6025
 8088TIP3    H145755   1.738   1.148  10.902  0.0811  0.3845  0.0758
 8088TIP3    H245756   1.636   1.195  11.003  0.5202  0.2633  0.5759
 8089TIP3   OH245757   3.152   6.193   2.508 -0.2667 -0.5029 -0.2523
 8089TIP3    H145758   3.191   6.208   2.423  0.9213  2.0465  0.6466
 8089TIP3    H245759   3.059   6.216   2.497  0.2033  1.4323 -0.5358
 8090TIP3   OH245760   4.817   2.626  13.292  0.0750  0.4319 -0.4319
 8090TIP3    H145761   4.742   2.618  13.351  0.1050 -0.2724 -0.4742
 8090TIP3    H245762   4.893   2.619  13.348  0.1031 -0.0259 -0.5173
 8091TIP3   OH245763   2.748   3.657   2.968 -0.7598  0.0554  0.0079
 8091TIP3    H145764   2.804   3.608   2.908  0.1308 -0.8905  1.5369
 8091TIP3    H245765   2.766   3.749   2.949  1.4745 -0.2233  0.5577
 8092TIP3   OH245766   2.166   0.044   4.512 -0.0058  0.0019  0.0400
 8092TIP3    H145767   2.166  -0.037   4.562  0.7600  1.2074  2.1224
 8092TIP3    H245768   2.221   0.026   4.436 -1.6591 -2.0635 -0.7879
 8093TIP3   OH245769   2.407   1.378   1.736 -0.1259  0.2575  0.1615
 8093TIP3    H145770   2.364   1.293   1.734  0.1093  0.0843  1.5329
 8093TIP3    H245771   2.496   1.362   1.707  0.0360 -0.0499  0.8156
 8094TIP3   OH245772   1.179   4.654   0.280 -0.3717 -0.2885  0.1614
 8094TIP3    H145773   1.155   4.597   0.206  3.3166 -0.9744 -0.7065
 8094TIP3    H245774   1.191   4.741   0.240 -0.6164 -0.1222  0.4404
 8095TIP3   OH245775   5.053   2.039   3.542 -0.3795  0.3698  0.0162
 8095TIP3    H145776   5.066   1.957   3.494  3.1336  0.7410  0.1140
 8095TIP3    H245777   5.079   2.107   3.481  1.2416  1.0455  1.3855
 8096TIP3   OH245778   4.311   3.338   4.904  0.1328  0.2519  0.2898
 8096TIP3    H145779   4.405   3.321   4.901  1.0002  3.7273  2.4647
 8096TIP3    H245780   4.280   3.292   4.982  0.7993  1.7359  1.4877
 8097TIP3   OH245781   2.512   3.439  15.769 -0.2040 -0.0902  0.3596
 8097TIP3    H145782   2.556   3.488  15.839  2.1255  2.1752 -2.4206
 8097TIP3    H245783   2.423   3.475  15.767  0.5510  1.9367  0.3591
 8098TIP3   OH245784   5.526   6.750  12.198  0.2397  0.2947 -0.0937
 8098TIP3    H145785   5.446   6.744  12.251  0.1514  0.4922 -0.2054
 8098TIP3    H245786   5.555   6.840  12.208  0.0708  0.4095 -0.6038
 8099TIP3   OH245787   5.897   6.765  16.839  0.2092 -0.2953  0.3564
 8099TIP3    H145788   5.968   6.701  16.827  0.7003  0.0217  1.4690
 8099TIP3    H245789   5.822   6.726  16.793  1.0524 -0.7041 -0.7147
 8100TIP3   OH245790   1.873   0.644  12.499 -0.2737 -0.5629 -0.7212
 8100TIP3    H145791   1.859   0.736  12.478 -0.0722 -0.0557  1.1710
 8100TIP3    H245792   1.890   0.602  12.415  1.9061  1.5350 -1.4306
 8101TIP3   OH245793   5.545   0.814   3.697 -0.6038 -0.7839  1.1562
 8101TIP3    H145794   5.455   0.798   3.727 -1.0448 -0.6675 -0.0503
 8101TIP3    H245795   5.587   0.728   3.700 -1.2795 -1.1648  0.0830
 8102TIP3   OH245796   3.192   6.298   0.162 -0.8063 -0.1943 -0.4525
 8102TIP3    H145797   3.120   6.348   0.201  1.6520  2.5491  1.0207
 8102TIP3    H245798   3.212   6.345   0.081  0.9003  0.7688  0.4600
 8103TIP3   OH245799   5.415   6.696  13.078  0.5012  0.0288 -0.4217
 8103TIP3    H145800   5.337   6.669  13.029 -0.1785 -0.5435  0.9198
 8103TIP3    H245801   5.396   6.671  13.168  2.1689  0.0620 -0.0325
 8104TIP3   OH245802   2.287   1.245   6.206  0.4006  0.1111  0.0950
 8104TIP3    H145803   2.225   1.266   6.136  2.6169  0.1306 -1.9736
 8104TIP3    H245804   2.294   1.326   6.257 -1.7356 -0.1014  0.8289
 8105TIP3   OH245805   0.117   0.886   5.687 -0.8965 -0.0093  0.5067
 8105TIP3    H145806   0.111   0.816   5.752  0.8152  0.3552  1.1143
 8105TIP3    H245807   0.053   0.861   5.619 -0.7843 -1.8184  1.0002
 8106TIP3   OH245808   4.119   0.869   0.070 -0.8149  0.5494  0.6661
 8106TIP3    H145809   4.137   0.885  -0.022  1.0486  1.2275  1.0921
 8106TIP3    H245810   4.158   0.944   0.115 -0.7924 -0.2684  2.0594
 8107TIP3   OH245811   6.563   3.871   2.291 -0.5528 -0.0128 -0.1707
 8107TIP3    H145812   6.532   3.802   2.350  1.0135 -0.2739  0.4030
 8107TIP3    H245813   6.529   3.952   2.328 -2.5445 -0.4504 -0.9340
 8108TIP3   OH245814   3.397   2.530  12.693 -0.3046 -0.9662 -0.1663
 8108TIP3    H145815   3.396   2.521  12.789 -0.9982  0.2624 -0.0427
 8108TIP3    H245816   3.454   2.459  12.664 -0.6951 -1.8459  1.1022
 8109TIP3   OH245817   0.031   1.264  12.086  0.1964  0.1487  0.3697
 8109TIP3    H145818   0.005   1.199  12.021 -0.1638 -1.0635  1.6509
 8109TIP3    H245819  -0.048   1.314  12.104  0.2335  0.3210  0.0480
 8110TIP3   OH245820   5.578   1.290   0.872  0.1370  0.4116  0.4632
 8110TIP3    H145821   5.492   1.329   0.889 -0.1756  1.0371 -2.1427
 8110TIP3    H245822   5.567   1.197   0.893 -0.8875  0.6481  1.0288
 8111TIP3   OH245823   6.649   4.359  12.297 -0.6756  0.8042  0.2699
 8111TIP3    H145824   6.743   4.355  12.317 -0.8155  0.4881  0.8780
 8111TIP3    H245825   6.620   4.442  12.335 -0.5503  1.1323 -0.3375
 8112TIP3   OH245826   3.201   5.253  11.490  0.2102  0.5545  0.3503
 8112TIP3    H145827   3.254   5.173  11.496  0.6695  0.9293  5.2593
 8112TIP3    H245828   3.113   5.222  11.470  0.9624 -0.7256 -1.2802
 8113TIP3   OH245829   4.068   0.651   0.801 -0.0189 -0.1064  0.4116
 8113TIP3    H145830   4.063   0.744   0.826 -1.0981  0.4037 -1.4723
 8113TIP3    H245831   3.980   0.617   0.819  0.1670 -0.5762  0.4399
 8114TIP3   OH245832   0.165   4.998   2.503 -0.1281 -0.3513 -0.5827
 8114TIP3    H145833   0.195   4.932   2.440 -0.6981 -1.3451  0.1609
 8114TIP3    H245834   0.092   4.956   2.549  1.9393 -0.7340  2.6447
 8115TIP3   OH245835   3.951   5.579  15.972  0.1661  1.0596 -0.2242
 8115TIP3    H145836   4.023   5.638  15.992  0.1586  0.9435  0.1381
 8115TIP3    H245837   3.945   5.581  15.876  1.0877  0.5425 -0.3000
 8116TIP3   OH245838   1.324   0.898  11.022  0.3352  0.2951 -0.5773
 8116TIP3    H145839   1.394   0.870  11.082 -0.4334  0.2117  0.3028
 8116TIP3    H245840   1.292   0.980  11.059 -1.1218 -0.4770 -0.0153
 8117TIP3   OH245841   4.002   4.940  13.901  0.4388  0.0537 -0.0310
 8117TIP3    H145842   4.002   4.998  13.977  0.9792 -0.4697  0.3781
 8117TIP3    H245843   4.046   4.990  13.832 -0.9531  0.9312 -0.3381
 8118TIP3   OH245844   3.976   1.945  16.731  0.2438 -0.2189 -0.0838
 8118TIP3    H145845   4.057   1.991  16.755  1.2059 -1.7028 -0.3450
 8118TIP3    H245846   3.906   2.003  16.759  1.3358 -0.2967  3.2365
 8119TIP3   OH245847   2.197   4.128  14.279  0.8722  0.2292 -0.0254
 8119TIP3    H145848   2.184   4.210  14.231 -0.4521 -0.3652 -0.7166
 8119TIP3    H245849   2.122   4.123  14.339 -0.0358 -1.3112 -1.2216
 8120TIP3   OH245850   1.111   5.803   1.256 -0.2978  0.5827 -0.5287
 8120TIP3    H145851   1.153   5.722   1.226  0.9291 -0.4451  3.3700
 8120TIP3    H245852   1.183   5.867   1.260 -0.1460  0.3416  1.1752
 8121TIP3   OH245853   5.106   2.436  14.656 -0.5669 -0.1686 -0.3435
 8121TIP3    H145854   5.064   2.518  14.683  1.6198  0.9964 -0.3283
 8121TIP3    H245855   5.126   2.391  14.738 -0.2563  0.0706 -0.2883
 8122TIP3   OH245856   1.980   5.229   2.788  0.0821  0.1839 -0.3440
 8122TIP3    H145857   1.915   5.229   2.717  1.3510 -0.2301 -1.5537
 8122TIP3    H245858   2.040   5.300   2.765 -1.2427  2.2029  2.0612
 8123TIP3   OH245859   2.177   3.485   5.332 -1.0225 -0.3069  0.7775
 8123TIP3    H145860   2.233   3.562   5.343 -1.0724 -0.0325 -0.7229
 8123TIP3    H245861   2.237   3.416   5.304 -1.5444  0.3778 -2.4096
 8124TIP3   OH245862   1.464   6.778   5.692 -0.4412  0.4228  0.6472
 8124TIP3    H145863   1.391   6.762   5.753 -0.7138  0.3170  0.3016
 8124TIP3    H245864   1.447   6.865   5.656 -0.2296  0.5240  0.7944
 8125TIP3   OH245865   0.342   3.145  12.509  0.8671 -0.1651  0.0689
 8125TIP3    H145866   0.428   3.161  12.548  0.8804 -1.0236  0.3980
 8125TIP3    H245867   0.346   3.188  12.424  1.1403  0.9929  0.6471
 8126TIP3   OH245868   1.781   5.382  14.173 -0.7647  0.7843  0.1631
 8126TIP3    H145869   1.797   5.386  14.079  0.2920 -0.6611  0.2375
 8126TIP3    H245870   1.690   5.354  14.181 -1.3473  2.4180 -0.3771
 8127TIP3   OH245871   1.723   4.304   1.607 -0.1134  0.2515  0.0585
 8127TIP3    H145872   1.806   4.258   1.598 -1.8814 -3.0581 -1.4119
 8127TIP3    H245873   1.711   4.350   1.523  0.3948  1.1223  0.4508
 8128TIP3   OH245874   2.104   5.861  16.669 -0.1471 -0.1246 -0.5206
 8128TIP3    H145875   2.146   5.946  16.684  0.2809 -0.0097 -2.1275
 8128TIP3    H245876   2.013   5.875  16.696 -0.2098  1.0316 -1.2335
 8129TIP3   OH245877   0.447   5.620   2.127  0.0300 -0.3309 -0.5722
 8129TIP3    H145878   0.417   5.710   2.110 -0.1801 -0.3953 -0.5352
 8129TIP3    H245879   0.541   5.630   2.142  0.3823 -0.3492 -2.4991
 8130TIP3   OH245880   6.113   4.768   6.826  0.1277  0.2229 -0.0496
 8130TIP3    H145881   6.194   4.818   6.821  0.1982  0.0718 -0.4193
 8130TIP3    H245882   6.064   4.790   6.747  0.8840 -1.5168 -1.0693
 8131TIP3   OH245883   4.309   1.347   1.439  0.2496  0.4058 -0.3471
 8131TIP3    H145884   4.312   1.327   1.532 -0.2101  1.5983 -0.0684
 8131TIP3    H245885   4.395   1.384   1.419 -0.3935  2.2590  0.1209
 8132TIP3   OH245886   6.396   2.428   2.476 -0.4229 -0.2005  0.0484
 8132TIP3    H145887   6.368   2.464   2.392  0.7237  0.1010 -0.2112
 8132TIP3    H245888   6.413   2.505   2.531 -1.4376 -0.3947  0.6664
 8133TIP3   OH245889   4.869   4.500   4.120 -0.3296  0.0131  0.1789
 8133TIP3    H145890   4.841   4.442   4.049  1.5204  0.5907 -1.0808
 8133TIP3    H245891   4.822   4.582   4.103 -1.1333 -0.3461  0.5978
 8134TIP3   OH245892   5.345   6.722  11.639  0.4726 -0.0537  0.4684
 8134TIP3    H145893   5.340   6.807  11.682 -1.2643 -0.1968  0.6030
 8134TIP3    H245894   5.389   6.739  11.556  0.1194  0.9783  0.4837
 8135TIP3   OH245895   1.212   1.817  12.821 -0.3971 -0.4172  0.6735
 8135TIP3    H145896   1.297   1.845  12.790 -0.4421 -1.0269 -0.0179
 8135TIP3    H245897   1.157   1.815  12.743 -1.1748  0.4077  1.1766
 8136TIP3   OH245898   3.903   4.879  14.475  0.5399 -0.1174  0.2671
 8136TIP3    H145899   3.867   4.860  14.388 -1.2578  0.7217  0.7886
 8136TIP3    H245900   3.994   4.849  14.470  0.7045  0.5710 -2.1183
 8137TIP3   OH245901   0.977   1.794  10.805 -0.2705 -0.5015 -0.1919
 8137TIP3    H145902   1.024   1.875  10.821 -0.3298 -0.4777 -0.1340
 8137TIP3    H245903   0.995   1.741  10.883  0.0324 -0.6707 -0.3742
 8138TIP3   OH245904   2.013   0.235  11.975  0.5792  0.1359  0.3696
 8138TIP3    H145905   2.097   0.263  11.937  0.3853  1.0848  0.6044
 8138TIP3    H245906   1.947   0.279  11.922  0.2574  0.1892  0.8066
 8139TIP3   OH245907   1.906   0.460  15.346 -0.3323  0.1901 -0.6056
 8139TIP3    H145908   1.937   0.375  15.377 -0.1240  0.3485 -0.3729
 8139TIP3    H245909   1.815   0.445  15.320  0.0425 -0.3590 -1.6262
 8140TIP3   OH245910   3.558   3.893   1.915 -0.0889  0.2100 -0.4583
 8140TIP3    H145911   3.473   3.862   1.885  0.2338 -1.0087 -0.1904
 8140TIP3    H245912   3.621   3.849   1.858  0.4163 -0.2073  0.3888
 8141TIP3   OH245913   3.042   2.462  13.330 -0.1276 -0.2114 -0.5077
 8141TIP3    H145914   3.109   2.440  13.265  0.8178 -0.3759  0.5028
 8141TIP3    H245915   3.008   2.547  13.301 -0.4053 -0.7207 -1.7409
 8142TIP3   OH245916   4.780   4.755  14.673  0.5359 -0.7501 -0.6234
 8142TIP3    H145917   4.830   4.714  14.604  0.9737 -0.6653 -0.3616
 8142TIP3    H245918   4.846   4.793  14.731  0.1524 -0.0030 -0.6637
 8143TIP3   OH245919   0.372   4.417  11.216 -0.4952 -0.6598  0.6653
 8143TIP3    H145920   0.394   4.333  11.257 -0.2215  0.1146  2.1740
 8143TIP3    H245921   0.430   4.480  11.258 -1.5765  0.4931  0.4908
 8144TIP3   OH245922   3.313   6.258  16.665 -0.0606  0.0378 -0.2261
 8144TIP3    H145923   3.222   6.229  16.663 -0.7027  1.9436 -2.0648
 8144TIP3    H245924   3.347   6.235  16.579  1.1564 -0.4285  0.3592
 8145TIP3   OH245925   0.726   6.268  11.501 -0.1278 -0.7213  0.0894
 8145TIP3    H145926   0.791   6.292  11.567 -0.1783 -0.8914  0.2014
 8145TIP3    H245927   0.704   6.350  11.458  0.9383 -0.8179 -0.6611
 8146TIP3   OH245928   6.686   4.984  15.877  0.1237 -0.3819 -0.2497
 8146TIP3    H145929   6.771   4.973  15.921 -0.1854 -0.2149  0.4028
 8146TIP3    H245930   6.663   4.896  15.848  0.6965 -0.3675 -0.7706
 8147TIP3   OH245931   6.501   3.283   4.382 -0.4119 -0.5175  0.1282
 8147TIP3    H145932   6.549   3.202   4.396 -2.0634 -1.2046  2.5237
 8147TIP3    H245933   6.411   3.255   4.367 -0.3680  0.7612 -3.5392
 8148TIP3   OH245934   1.702   2.872  14.589 -0.6792  0.5414 -0.3760
 8148TIP3    H145935   1.692   2.909  14.501 -1.7481  0.8600 -0.1442
 8148TIP3    H245936   1.716   2.948  14.646 -0.8314  0.4134 -0.1653
 8149TIP3   OH245937   6.272   3.089   6.316 -0.1939 -0.0272 -0.1099
 8149TIP3    H145938   6.195   3.130   6.357  0.4697  1.9156 -0.7083
 8149TIP3    H245939   6.328   3.163   6.291  1.9465 -1.3910  0.4186
 8150TIP3   OH245940   2.145   1.602  11.334  0.3820  0.7668  0.5643
 8150TIP3    H145941   2.168   1.662  11.263  1.2664 -0.3579 -0.1368
 8150TIP3    H245942   2.204   1.626  11.406  0.2818  1.1394  0.5269
 8151TIP3   OH245943   5.302   6.249   3.344 -0.0452  0.4214 -0.1977
 8151TIP3    H145944   5.244   6.321   3.368 -2.8079 -1.7493  0.1140
 8151TIP3    H245945   5.349   6.228   3.424 -1.2889  0.1342  0.4812
 8152TIP3   OH245946   1.233   3.062   1.171  0.6159 -0.2604  0.4465
 8152TIP3    H145947   1.288   2.985   1.180  2.2569  0.7893 -0.2358
 8152TIP3    H245948   1.236   3.105   1.256  2.5992  0.8762 -0.1376
 8153TIP3   OH245949   5.937   4.236  16.727 -0.1686  0.2117  0.3045
 8153TIP3    H145950   5.927   4.145  16.756 -0.1578 -0.2443 -1.0490
 8153TIP3    H245951   5.850   4.273  16.735 -0.2843 -0.0664  0.3547
 8154TIP3   OH245952   0.415   0.028   0.259 -0.6663 -0.2735 -0.6724
 8154TIP3    H145953   0.478   0.070   0.201  0.2027 -1.9029 -0.9807
 8154TIP3    H245954   0.368  -0.033   0.201 -2.2160  0.5747 -0.3516
 8155TIP3   OH245955   3.086   0.608   5.110  0.2410 -1.0151  0.1940
 8155TIP3    H145956   3.068   0.514   5.114  1.9775 -1.4137 -0.1606
 8155TIP3    H245957   3.179   0.615   5.130  0.5341  0.4580 -1.3873
 8156TIP3   OH245958   0.170   1.106   5.245 -0.2359 -0.0881  0.2312
 8156TIP3    H145959   0.226   1.174   5.208  1.1650 -0.2607  1.9118
 8156TIP3    H245960   0.087   1.114   5.196  0.6525  1.2873 -1.1596
 8157TIP3   OH245961   5.903   6.130  11.404 -0.0216  0.2044 -0.5342
 8157TIP3    H145962   5.810   6.144  11.392 -0.0330 -1.1135 -2.4319
 8157TIP3    H245963   5.909   6.071  11.479 -0.7353  0.0747 -0.5724
 8158TIP3   OH245964   3.319   0.284  16.798 -0.0695 -0.8288  0.4545
 8158TIP3    H145965   3.336   0.195  16.768 -2.3678 -1.1659  0.0232
 8158TIP3    H245966   3.260   0.273  16.873 -1.3181  0.3532 -0.3196
 8159TIP3   OH245967   3.800   4.083   6.816  0.0496 -0.0444 -0.1295
 8159TIP3    H145968   3.761   4.117   6.897 -3.6045 -0.9934 -1.3051
 8159TIP3    H245969   3.863   4.018   6.845 -0.5576  0.2209  1.9528
 8160TIP3   OH245970   1.790   4.900   2.168  0.6265  0.1512 -0.1804
 8160TIP3    H145971   1.849   4.888   2.243  0.2031 -1.9312 -0.1332
 8160TIP3    H245972   1.769   4.811   2.139 -0.2672  0.8966 -1.9639
 8161TIP3   OH245973   5.811   3.553  14.488 -0.6960 -0.1030 -0.1097
 8161TIP3    H145974   5.721   3.521  14.479 -0.3783 -1.3389  0.8818
 8161TIP3    H245975   5.835   3.534  14.578  1.0568 -1.1621 -0.7441
 8162TIP3   OH245976   0.776   0.280  16.626  0.3951 -0.3143  0.0437
 8162TIP3    H145977   0.846   0.221  16.653  1.8348  0.0577 -2.5397
 8162TIP3    H245978   0.721   0.227  16.568  1.0612  0.5401 -1.4049
 8163TIP3   OH245979   2.274   1.703  11.564 -0.0700  0.3387  0.0448
 8163TIP3    H145980   2.325   1.692  11.644 -0.9864  1.9315  0.9257
 8163TIP3    H245981   2.301   1.789  11.530  1.6046 -1.0421 -2.4079
 8164TIP3   OH245982   6.591   0.495  15.620 -0.0464  0.0381 -0.6908
 8164TIP3    H145983   6.643   0.502  15.540 -0.2223 -0.6762 -0.8770
 8164TIP3    H245984   6.623   0.415  15.663 -0.0590  0.3338 -0.1267
 8165TIP3   OH245985   6.572   3.449   0.185  0.4905 -0.7492 -0.2526
 8165TIP3    H145986   6.631   3.426   0.257 -0.4295  1.0979  1.1895
 8165TIP3    H245987   6.495   3.486   0.229 -0.1410  0.3764 -2.1963
 8166TIP3   OH245988   0.298   0.440  14.800  0.0691  0.2065 -0.3248
 8166TIP3    H145989   0.374   0.442  14.742  0.1441  0.5369 -0.2167
 8166TIP3    H245990   0.226   0.413  14.743  0.0663  0.8981 -0.6678
 8167TIP3   OH245991   3.976   0.432   2.159 -0.0237 -0.3425  0.1711
 8167TIP3    H145992   3.973   0.521   2.125  0.4982 -0.8514 -1.2849
 8167TIP3    H245993   3.894   0.423   2.208 -1.2986  0.1625 -1.7271
 8168TIP3   OH245994   3.531   3.809   0.112 -0.0671  0.2762  0.0629
 8168TIP3    H145995   3.467   3.868   0.152  0.5234  0.8235  0.2159
 8168TIP3    H245996   3.614   3.834   0.151  0.2672 -0.3116 -0.2666
 8169TIP3   OH245997   1.428   1.165  12.416  0.1503 -0.2852 -0.0014
 8169TIP3    H145998   1.375   1.110  12.359 -0.3971  0.2532 -0.0291
 8169TIP3    H245999   1.366   1.201  12.479  0.7699 -0.9869  1.0361
 8170TIP3   OH246000   6.352   0.722  14.753 -0.8001  0.5598 -0.0647
 8170TIP3    H146001   6.354   0.816  14.767  0.3886  0.5278  0.0979
 8170TIP3    H246002   6.295   0.688  14.822  0.3741  0.9768  1.1430
 8171TIP3   OH246003   4.327   3.329  10.759 -0.0401  0.3985  0.3762
 8171TIP3    H146004   4.240   3.291  10.772 -0.8854  1.9247 -0.4112
 8171TIP3    H246005   4.379   3.259  10.720 -1.6719  0.1480 -1.5322
 8172TIP3   OH246006   4.404   4.780  11.523  0.3748  0.0881 -0.2352
 8172TIP3    H146007   4.451   4.768  11.605  0.1345  0.6492 -0.0116
 8172TIP3    H246008   4.472   4.787  11.456  0.5588 -1.3822 -0.2342
 8173TIP3   OH246009   5.745   4.659   3.964 -0.5909 -0.0977 -0.1613
 8173TIP3    H146010   5.819   4.599   3.972 -1.8923 -2.0027 -1.6750
 8173TIP3    H246011   5.761   4.708   3.884 -1.0103 -0.5932 -0.5525
 8174TIP3   OH246012   1.961   3.942   1.547 -0.0106 -0.2049 -0.0643
 8174TIP3    H146013   1.952   3.850   1.520  0.2049 -1.0564  2.5088
 8174TIP3    H246014   1.967   3.990   1.465 -0.5497 -2.4382 -1.5111
 8175TIP3   OH246015   6.175   2.309   5.627  0.0155  0.0226  0.4573
 8175TIP3    H146016   6.102   2.349   5.674  1.0425  0.7700  1.4648
 8175TIP3    H246017   6.200   2.374   5.562  1.4844  0.9668  1.8915
 8176TIP3   OH246018   4.421   4.451  14.962  0.5588  0.3969  0.1400
 8176TIP3    H146019   4.474   4.423  14.887  0.1315  0.4874 -0.1973
 8176TIP3    H246020   4.341   4.486  14.924 -0.9143 -2.1019  0.6847
 8177TIP3   OH246021   2.790   1.903  10.978  0.0104 -0.2158  0.1153
 8177TIP3    H146022   2.724   1.833  10.976  0.6646 -0.9418  1.5760
 8177TIP3    H246023   2.784   1.939  11.067  1.0158  0.2532  0.0130
 8178TIP3   OH246024   5.889   5.053  15.603 -0.4496 -0.2356  0.0658
 8178TIP3    H146025   5.974   5.029  15.568 -1.5014 -1.6209 -1.7044
 8178TIP3    H246026   5.905   5.071  15.696  1.8822  0.4449 -0.4126
 8179TIP3   OH246027   0.021   3.292   5.971 -0.0988  0.2751 -0.3920
 8179TIP3    H146028  -0.056   3.246   6.005  1.8551 -2.0079  1.2655
 8179TIP3    H246029   0.033   3.257   5.883  0.5634 -1.4657  0.3483
 8180TIP3   OH246030   3.009   3.704   3.345 -0.1691  0.0001  0.0432
 8180TIP3    H146031   3.088   3.707   3.400  0.0354  0.1733 -0.2511
 8180TIP3    H246032   3.040   3.669   3.261 -0.1557  1.1462 -0.4564
 8181TIP3   OH246033   1.185   3.638  16.586  0.1342 -0.2148  0.1113
 8181TIP3    H146034   1.091   3.634  16.568  0.2180 -0.0119 -0.3829
 8181TIP3    H246035   1.205   3.553  16.626 -0.2976 -0.1762  0.4221
 8182TIP3   OH246036   0.102   6.780   4.754  0.0066 -0.7092  0.4786
 8182TIP3    H146037   0.122   6.851   4.815  0.0680 -0.1867 -0.1422
 8182TIP3    H246038   0.066   6.710   4.809 -1.6773  0.4297  0.8881
 8183TIP3   OH246039   2.647   5.473   1.965  0.0338 -0.0639 -0.1190
 8183TIP3    H146040   2.728   5.520   1.946 -0.6149  1.1020 -0.1069
 8183TIP3    H246041   2.664   5.428   2.047  0.3958  0.8872  0.3447
 8184TIP3   OH246042   2.880   0.975  15.058 -0.3029 -0.5937  0.4789
 8184TIP3    H146043   2.864   0.952  15.150  0.6363  0.1094  0.8280
 8184TIP3    H246044   2.813   1.041  15.038  2.0923  2.5617  2.0240
 8185TIP3   OH246045   4.583   1.982  11.405 -0.0522  0.0259  0.1193
 8185TIP3    H146046   4.674   2.008  11.423 -0.1485 -0.9798  2.4068
 8185TIP3    H246047   4.551   2.050  11.345  1.7348  1.2869  0.4848
 8186TIP3   OH246048   1.350   0.770  13.933 -0.2958 -0.5147 -0.4603
 8186TIP3    H146049   1.425   0.825  13.910 -1.0824  0.9069  0.1728
 8186TIP3    H246050   1.386   0.702  13.989  1.0808 -2.0638 -3.0767
 8187TIP3   OH246051   2.029   6.491   6.535  0.0887 -0.8976 -0.5794
 8187TIP3    H146052   1.954   6.474   6.479 -0.1089  1.9583 -1.3634
 8187TIP3    H246053   2.099   6.516   6.475  0.7635 -0.6456  0.2820
 8188TIP3   OH246054   3.536   3.819  17.055  0.1433  0.1347  0.0523
 8188TIP3    H146055   3.540   3.815  17.151  0.6164  0.5951  0.0582
 8188TIP3    H246056   3.456   3.867  17.037 -0.1383 -0.2759  0.2102
 8189TIP3   OH246057   3.435   3.459   6.066 -0.5778  0.4802 -0.1431
 8189TIP3    H146058   3.398   3.378   6.032  1.1940 -0.6448  0.5011
 8189TIP3    H246059   3.523   3.463   6.028  0.1647  0.9692  1.5477
 8190TIP3   OH246060   0.016   2.695   4.620  0.0059  0.0335 -0.3534
 8190TIP3    H146061   0.056   2.681   4.706 -0.0718  0.9935 -0.1527
 8190TIP3    H246062  -0.078   2.692   4.636 -0.0096 -0.2368 -0.4870
 8191TIP3   OH246063   3.912   5.448  15.062  0.3018  0.4842  0.1684
 8191TIP3    H146064   3.842   5.422  15.121  0.4681 -1.8988 -0.5955
 8191TIP3    H246065   3.885   5.415  14.976  2.0886 -0.0455 -0.2337
 8192TIP3   OH246066   5.228   0.453  12.350 -1.0920 -0.3973  0.0070
 8192TIP3    H146067   5.255   0.433  12.440  0.0679  0.2990 -0.1659
 8192TIP3    H246068   5.308   0.485  12.308 -1.6473 -0.6172 -1.2475
 8193TIP3   OH246069   1.818   0.940  10.182  0.4214 -0.4539  0.1203
 8193TIP3    H146070   1.800   0.850  10.208 -2.0352  0.2101  1.0338
 8193TIP3    H246071   1.741   0.966  10.132  1.6619  0.7628 -1.2263
 8194TIP3   OH246072   0.943   6.000   0.718 -0.0754 -0.7630  0.4171
 8194TIP3    H146073   0.856   5.989   0.680 -0.7851  0.0850  1.7193
 8194TIP3    H246074   0.927   6.017   0.811  1.2660  2.3999  0.2149
 8195TIP3   OH246075   5.610   0.604   3.994 -0.2477  0.3150 -0.2110
 8195TIP3    H146076   5.610   0.616   4.089 -1.3368 -1.1517  0.0085
 8195TIP3    H246077   5.522   0.630   3.967  0.5946  2.4404 -1.1136
 8196TIP3   OH246078   5.936   4.076   1.910  0.0162 -0.0630  0.1106
 8196TIP3    H146079   5.968   3.992   1.942 -0.0846  0.1720  0.8403
 8196TIP3    H246080   5.863   4.098   1.968  1.6173  1.7241  1.5651
 8197TIP3   OH246081   2.120   5.733   5.323  0.1017 -0.1397 -0.0885
 8197TIP3    H146082   2.208   5.766   5.309  0.8613 -1.5733  1.0493
 8197TIP3    H246083   2.085   5.789   5.393 -0.2346  0.9452 -1.0818
 8198TIP3   OH246084   3.553   1.301   2.932  0.7183 -0.2043 -0.2123
 8198TIP3    H146085   3.529   1.209   2.916 -0.3936  0.1581 -0.6936
 8198TIP3    H246086   3.568   1.305   3.027  0.3595 -0.7872 -0.1238
 8199TIP3   OH246087   3.456   3.484  11.646 -0.2374  0.1240  0.2392
 8199TIP3    H146088   3.398   3.460  11.573 -0.7504 -0.7693  0.9256
 8199TIP3    H246089   3.543   3.488  11.607 -0.3587 -1.3089 -0.2361
 8200TIP3   OH246090   5.387   2.328   1.096  0.1513  0.4877 -0.4779
 8200TIP3    H146091   5.299   2.307   1.065  0.7759 -0.2968 -1.7923
 8200TIP3    H246092   5.381   2.323   1.191 -1.6257  2.1363 -0.4629
 8201TIP3   OH246093   3.334   1.789  15.517 -0.2661  0.0877 -0.2425
 8201TIP3    H146094   3.304   1.872  15.555 -1.5455 -0.3694 -0.1967
 8201TIP3    H246095   3.256   1.753  15.473  0.0368 -1.4525  0.4031
 8202TIP3   OH246096   2.259   2.001  13.736  0.5263 -0.1777  0.3728
 8202TIP3    H146097   2.216   2.060  13.798 -0.5047  0.2954 -0.7580
 8202TIP3    H246098   2.301   2.059  13.673  1.7997 -0.6519  0.7492
 8203TIP3   OH246099   6.054   5.871   0.353  0.2525 -0.0540 -0.0518
 8203TIP3    H146100   6.014   5.935   0.412  0.1226  0.3426 -0.5645
 8203TIP3    H246101   6.071   5.795   0.409 -2.0688 -0.6078 -0.0301
 8204TIP3   OH246102   3.390   2.312  17.000  0.3638  0.0201 -0.2924
 8204TIP3    H146103   3.417   2.223  16.976  0.2053 -0.0900 -0.0770
 8204TIP3    H246104   3.318   2.332  16.941  0.9672  0.3484 -0.9217
 8205TIP3   OH246105   2.633   2.134  15.645 -0.3541 -0.2832 -0.3282
 8205TIP3    H146106   2.542   2.106  15.638 -0.3000 -1.7078  2.8805
 8205TIP3    H246107   2.629   2.214  15.698  0.2895 -0.6336  0.2541
 8206TIP3   OH246108   6.319   1.761   5.261  0.5596 -0.0282 -0.3203
 8206TIP3    H146109   6.231   1.732   5.234  0.9313 -0.8927 -0.6311
 8206TIP3    H246110   6.304   1.846   5.302 -0.4533 -0.2571 -0.1828
 8207TIP3   OH246111   3.194   5.080   1.943 -0.0348  0.1590  0.2257
 8207TIP3    H146112   3.123   5.142   1.929 -1.4503 -1.3448  0.4431
 8207TIP3    H246113   3.160   4.996   1.912  2.0336 -0.4363 -0.6341
 8208TIP3   OH246114   2.807   1.193  11.976 -0.0169 -0.0422  0.8262
 8208TIP3    H146115   2.850   1.132  11.916 -0.3259 -1.3001  1.8504
 8208TIP3    H246116   2.859   1.189  12.056 -0.7330  0.1238  1.3105
 8209TIP3   OH246117   3.333   5.643  12.065 -0.4168  0.1262 -0.1275
 8209TIP3    H146118   3.329   5.581  11.992 -2.5002  0.5590 -0.4405
 8209TIP3    H246119   3.376   5.720  12.029 -0.8624  0.1065 -0.7198
 8210TIP3   OH246120   0.317   5.320   5.429 -0.4731 -0.1598 -0.0773
 8210TIP3    H146121   0.336   5.400   5.381  0.2686  0.0477  0.5383
 8210TIP3    H246122   0.383   5.257   5.400  0.2358  0.0857  0.9135
 8211TIP3   OH246123   6.802   2.271   1.885  0.3665  0.3212  0.3154
 8211TIP3    H146124   6.857   2.204   1.844  1.0321  1.2815 -0.4057
 8211TIP3    H246125   6.727   2.280   1.825 -0.0248 -0.1868  0.7188
 8212TIP3   OH246126   0.404   4.914  13.991  0.1161 -0.0845 -0.0258
 8212TIP3    H146127   0.488   4.926  13.946 -0.2975  0.6397 -0.6192
 8212TIP3    H246128   0.340   4.959  13.936 -0.7369 -0.9722  0.2030
 8213TIP3   OH246129   3.288   5.392   5.183 -0.3323  0.6888  0.3413
 8213TIP3    H146130   3.350   5.365   5.115  1.2927 -0.4790  2.1826
 8213TIP3    H246131   3.279   5.486   5.172 -0.2286  0.5181 -1.5496
 8214TIP3   OH246132   5.143   1.831   3.398  0.8954  0.0440  0.1960
 8214TIP3    H146133   5.153   1.880   3.317  0.6457  0.4871  0.4284
 8214TIP3    H246134   5.233   1.820   3.431  1.1255 -1.3068 -0.8075
 8215TIP3   OH246135   4.806   3.340   4.449  0.4220  0.5072  0.0676
 8215TIP3    H146136   4.822   3.392   4.369 -0.1585 -1.0377 -1.1029
 8215TIP3    H246137   4.733   3.385   4.492  1.6152  2.1443  0.4867
 8216TIP3   OH246138   0.419   0.315  11.244 -0.2671  0.0647 -0.2252
 8216TIP3    H146139   0.461   0.398  11.224 -0.3341  0.6765  1.9728
 8216TIP3    H246140   0.428   0.264  11.164  0.8643  1.7258 -1.2112
 8217TIP3   OH246141   0.758   6.234  15.386  0.1889 -0.2324  0.3496
 8217TIP3    H146142   0.768   6.329  15.394 -1.2921  0.0802 -1.0487
 8217TIP3    H246143   0.695   6.222  15.315  2.7315 -2.3272 -1.7771
 8218TIP3   OH246144   5.345   5.551  16.745 -0.5231 -0.4723  0.2356
 8218TIP3    H146145   5.348   5.522  16.654 -4.0991  0.4132 -0.3127
 8218TIP3    H246146   5.356   5.471  16.796  0.2676 -1.1720 -1.0009
 8219TIP3   OH246147   0.863   1.876  16.303 -0.4632 -0.3679 -0.5367
 8219TIP3    H146148   0.877   1.781  16.307 -1.2860 -0.4669  0.4161
 8219TIP3    H246149   0.871   1.905  16.394 -1.5752  0.2656 -0.6206
 8220TIP3   OH246150   0.554   5.776   0.905  0.0673 -0.5807  0.1632
 8220TIP3    H146151   0.569   5.870   0.913 -0.2438 -0.4382 -0.7535
 8220TIP3    H246152   0.526   5.764   0.814  1.3684 -1.7398 -0.1162
 8221TIP3   OH246153   6.167   1.968  10.711 -0.0918 -0.0715 -0.6330
 8221TIP3    H146154   6.235   2.031  10.735 -0.6085 -0.1023  0.9959
 8221TIP3    H246155   6.189   1.942  10.622  3.1592 -1.4776  0.4215
 8222TIP3   OH246156   5.135   3.295   6.081  0.0273  0.4444 -0.2223
 8222TIP3    H146157   5.124   3.321   5.989 -1.0224 -1.7605 -0.7936
 8222TIP3    H246158   5.101   3.370   6.131 -0.0440  1.4013 -1.6435
 8223TIP3   OH246159   1.597   3.917   4.911 -1.1911 -0.4591 -0.6761
 8223TIP3    H146160   1.623   3.899   4.820 -0.3324 -0.4661 -0.4368
 8223TIP3    H246161   1.556   3.836   4.941  1.1908 -1.5276 -0.1194
 8224TIP3   OH246162   2.615   6.363  14.114  0.0372  0.3171  0.3828
 8224TIP3    H146163   2.664   6.427  14.166 -0.0286  2.2370 -1.8021
 8224TIP3    H246164   2.524   6.375  14.142  0.1494  0.4732  0.6885
 8225TIP3   OH246165   3.455   0.876   4.964 -0.0396  0.4111  0.5583
 8225TIP3    H146166   3.382   0.931   4.992 -0.7103 -0.4335  0.4718
 8225TIP3    H246167   3.504   0.858   5.045  0.1327  1.0380  0.6034
 8226TIP3   OH246168   3.522   0.727  14.511  0.2981  0.0933  0.0554
 8226TIP3    H146169   3.499   0.788  14.441 -0.7187 -0.4308 -0.0850
 8226TIP3    H246170   3.553   0.783  14.582  1.6199  0.6186 -0.8942
 8227TIP3   OH246171   3.371   5.573   1.065  0.1473 -0.6896  0.0891
 8227TIP3    H146172   3.277   5.556   1.051 -0.1581  1.0079 -0.1000
 8227TIP3    H246173   3.373   5.642   1.131  1.2449 -0.1222 -0.5103
 8228TIP3   OH246174   5.520   4.528   3.885 -0.1530 -0.5189 -0.2312
 8228TIP3    H146175   5.571   4.602   3.920  1.5968 -0.0929 -3.2996
 8228TIP3    H246176   5.581   4.454   3.888 -0.0539 -0.5413 -1.8629
 8229TIP3   OH246177   2.777   0.723   5.811 -0.1080 -0.6615 -0.3100
 8229TIP3    H146178   2.740   0.638   5.786 -0.3359 -0.4901 -0.5694
 8229TIP3    H246179   2.767   0.727   5.906 -1.7401 -0.1790 -0.4662
 8230TIP3   OH246180   1.311   4.337  14.291  0.0022 -0.4826 -0.3783
 8230TIP3    H146181   1.377   4.296  14.236  1.0766 -1.3238  1.4458
 8230TIP3    H246182   1.261   4.264  14.329 -1.9829  0.1275 -1.6380
 8231TIP3   OH246183   4.285   1.360  15.648  0.1617  0.6841 -0.4315
 8231TIP3    H146184   4.214   1.301  15.674 -0.4701  0.7408 -1.9007
 8231TIP3    H246185   4.295   1.345  15.554  1.6889  1.1349 -0.3737
 8232TIP3   OH246186   5.674   2.793   4.827 -0.0159 -0.1384  0.6370
 8232TIP3    H146187   5.582   2.768   4.840 -1.0273  2.4532 -0.7397
 8232TIP3    H246188   5.707   2.811   4.915 -1.6500  1.3565  0.9963
 8233TIP3   OH246189   1.404   6.431   0.417 -0.3377  0.1627  0.5052
 8233TIP3    H146190   1.437   6.380   0.491  3.0174  2.4579  0.7777
 8233TIP3    H246191   1.393   6.366   0.347 -1.0948 -1.6409  2.1740
 8234TIP3   OH246192   3.417   5.190   4.807  0.5495 -0.1237  0.3603
 8234TIP3    H146193   3.503   5.149   4.802  0.7013  0.2993 -0.7600
 8234TIP3    H246194   3.428   5.261   4.871  0.0879 -2.1797  2.8822
 8235TIP3   OH246195   5.555   5.202   2.489 -0.5022 -0.2605 -0.3409
 8235TIP3    H146196   5.610   5.164   2.421 -1.2097  1.0720 -1.7083
 8235TIP3    H246197   5.466   5.187   2.460 -0.9501 -2.2298  1.7680
 8236TIP3   OH246198   2.838   1.973  14.245 -0.3149  0.3720  0.2208
 8236TIP3    H146199   2.920   2.023  14.233  0.6544 -1.6484 -2.8423
 8236TIP3    H246200   2.849   1.930  14.330  2.3586 -0.6147 -0.5018
 8237TIP3   OH246201   6.677   3.040   3.402  0.1880 -0.2635  0.5842
 8237TIP3    H146202   6.583   3.023   3.399  0.2990 -1.1055  1.5342
 8237TIP3    H246203   6.701   3.055   3.311 -0.5883 -1.5672  0.1427
 8238TIP3   OH246204   3.803   5.208  16.865 -0.3572 -0.1352  1.0906
 8238TIP3    H146205   3.711   5.194  16.841  0.1589 -0.4164 -0.9407
 8238TIP3    H246206   3.823   5.136  16.925 -1.4602 -0.0648  1.5666
 8239TIP3   OH246207   3.662   6.707   1.243 -0.0111 -0.1546 -0.3666
 8239TIP3    H146208   3.745   6.725   1.200 -0.1588  0.3305 -0.4441
 8239TIP3    H246209   3.682   6.634   1.303 -0.2327 -2.2124 -2.6272
 8240TIP3   OH246210   4.605   4.831  16.577  0.5040  0.1244 -0.2178
 8240TIP3    H146211   4.515   4.808  16.600  1.2754 -1.6285  1.3159
 8240TIP3    H246212   4.654   4.821  16.658  1.8011  2.9366 -0.5563
 8241TIP3   OH246213   6.744   6.318   2.010 -0.5642  0.1074 -0.1266
 8241TIP3    H146214   6.668   6.295   1.955  0.1647 -0.9028 -0.7516
 8241TIP3    H246215   6.813   6.259   1.980  0.8474  1.8485 -0.4210
 8242TIP3   OH246216   5.242   0.880   0.998 -0.1644 -0.0037 -0.0598
 8242TIP3    H146217   5.244   0.925   0.913  0.2819  1.2267  0.5776
 8242TIP3    H246218   5.156   0.838   1.000 -0.0219 -0.4101 -1.2923
 8243TIP3   OH246219   3.447   4.290  16.628  0.2267 -0.5922 -0.0349
 8243TIP3    H146220   3.513   4.301  16.558  1.5118  2.5839  1.4723
 8243TIP3    H246221   3.478   4.215  16.678  0.0142 -2.0929 -2.0558
 8244TIP3   OH246222   0.574   4.945  15.076 -0.2125 -0.8647 -0.1151
 8244TIP3    H146223   0.591   4.855  15.048  0.6390 -0.5870 -0.5329
 8244TIP3    H246224   0.582   4.997  14.996  0.5144 -0.2702  0.3238
 8245TIP3   OH246225   1.778   1.465  15.555 -0.3114 -0.3082 -0.0541
 8245TIP3    H146226   1.685   1.445  15.545 -0.2996  0.4418 -2.0764
 8245TIP3    H246227   1.797   1.447  15.647 -2.1995 -1.4688  0.1418
 8246TIP3   OH246228   2.678   1.572  16.685  0.4007  0.5765 -0.2637
 8246TIP3    H146229   2.621   1.561  16.761  1.3380 -0.8259  0.2769
 8246TIP3    H246230   2.734   1.646  16.708  1.3982 -0.5014  0.9116
 8247TIP3   OH246231   4.839   3.864  13.470 -0.2645  0.3736 -0.8771
 8247TIP3    H146232   4.878   3.937  13.519  0.2299 -0.6548  0.3156
 8247TIP3    H246233   4.907   3.836  13.409 -0.0739  0.2381 -0.6026
 8248TIP3   OH246234   0.934   0.151   3.346  0.4711  1.0230 -0.1304
 8248TIP3    H146235   1.021   0.176   3.314  0.6844  1.7345  0.9397
 8248TIP3    H246236   0.943   0.150   3.441 -0.0006 -1.4966 -0.0357
 8249TIP3   OH246237   4.617   0.814   4.861 -0.0355  0.3277  0.0095
 8249TIP3    H146238   4.529   0.776   4.867 -0.2066  0.6920 -0.1969
 8249TIP3    H246239   4.603   0.908   4.858  0.3138  0.3505 -1.0533
 8250TIP3   OH246240   4.710   4.505  13.972 -0.4100  0.1001 -0.1747
 8250TIP3    H146241   4.769   4.535  13.903 -1.4400 -0.7089 -1.4637
 8250TIP3    H246242   4.748   4.539  14.053  2.8735 -1.9230 -0.6800
 8251TIP3   OH246243   4.602   3.570   0.506  0.0394 -0.3652  0.0850
 8251TIP3    H146244   4.551   3.634   0.557  0.6486 -0.1723  0.4682
 8251TIP3    H246245   4.596   3.600   0.416 -1.1550 -0.7735  0.0036
 8252TIP3   OH246246   1.786   4.423  13.679  0.0362  0.3662  0.0228
 8252TIP3    H146247   1.860   4.377  13.720  0.9998 -0.5792 -2.5792
 8252TIP3    H246248   1.713   4.409  13.740  1.0475 -2.0382  0.8257
 8253TIP3   OH246249   2.938   4.134  17.100  0.1517 -0.2329  0.5511
 8253TIP3    H146250   3.002   4.190  17.144  0.2525  0.1817 -0.1094
 8253TIP3    H246251   2.879   4.195  17.055  0.4947 -0.6520 -0.5004
 8254TIP3   OH246252   1.550   0.405  14.526 -0.3135 -0.2723 -0.0929
 8254TIP3    H146253   1.559   0.469  14.456 -0.7464 -1.3907 -1.2208
 8254TIP3    H246254   1.485   0.443  14.585  1.9428  1.9085  1.2113
 8255TIP3   OH246255   1.686   5.030   5.772 -0.5428 -0.4932  0.1545
 8255TIP3    H146256   1.769   4.989   5.796  0.6924  1.4890 -0.4960
 8255TIP3    H246257   1.636   5.031   5.854  0.8883  0.0648  1.0701
 8256TIP3   OH246258   5.920   3.729   2.981  0.1147 -0.7192 -0.3600
 8256TIP3    H146259   5.916   3.792   3.053  0.3467 -1.9693  0.8014
 8256TIP3    H246260   5.892   3.778   2.904  0.0584  0.7212  0.5432
 8257TIP3   OH246261   3.475   5.343   0.387 -0.0550 -0.2632 -0.3700
 8257TIP3    H146262   3.497   5.361   0.296 -0.4893  0.2703 -0.3766
 8257TIP3    H246263   3.379   5.346   0.389 -0.1009  4.2396  0.9296
 8258TIP3   OH246264   4.198   2.347  17.086 -0.2051 -0.8180  0.2846
 8258TIP3    H146265   4.249   2.272  17.055  1.5031  0.7076 -0.8472
 8258TIP3    H246266   4.107   2.326  17.063  0.2908 -2.3088 -0.4325
 8259TIP3   OH246267   3.668   5.623   4.668 -0.1336  0.0335  0.0768
 8259TIP3    H146268   3.755   5.634   4.628 -1.1408  0.5654 -2.0976
 8259TIP3    H246269   3.687   5.608   4.761  2.2074  3.1760  0.3022
 8260TIP3   OH246270   5.794   4.847  17.179 -0.0895  0.6572  0.6294
 8260TIP3    H146271   5.777   4.780  17.113  1.4430  2.0541 -1.3237
 8260TIP3    H246272   5.747   4.817  17.257 -1.4477 -1.4113 -0.8798
 8261TIP3   OH246273   3.619   2.855  11.436 -0.0035  0.5922  0.4843
 8261TIP3    H146274   3.612   2.797  11.360 -0.3091  0.4896  0.5898
 8261TIP3    H246275   3.685   2.920  11.410  0.2389  0.2798  0.3146
 8262TIP3   OH246276   5.815   3.363   3.219  0.6439 -0.1299 -0.4162
 8262TIP3    H146277   5.894   3.343   3.169  0.2254  0.4602 -1.3706
 8262TIP3    H246278   5.745   3.361   3.153  0.2373  1.8239 -0.1036
 8263TIP3   OH246279   0.056   4.599  10.739  0.0477  0.0933  0.7626
 8263TIP3    H146280   0.149   4.619  10.744  0.1540 -0.1697 -0.0668
 8263TIP3    H246281   0.049   4.507  10.763  0.0082  0.1048  0.7960
 8264TIP3   OH246282   4.750   5.048   2.052  0.5046  0.0787 -0.0077
 8264TIP3    H146283   4.759   5.095   1.969  0.6707 -1.5269 -0.9325
 8264TIP3    H246284   4.682   4.983   2.035  0.1125  0.1103  1.3166
 8265TIP3   OH246285   2.581   2.858   5.700 -0.4101 -0.1589 -0.3881
 8265TIP3    H146286   2.653   2.910   5.665  0.5697 -0.4096  1.1887
 8265TIP3    H246287   2.619   2.771   5.713 -1.6527 -0.9549 -1.6912
 8266TIP3   OH246288   4.567   5.753   6.289 -0.1825 -0.3526 -0.1870
 8266TIP3    H146289   4.482   5.780   6.255 -0.5369 -0.9819  0.1831
 8266TIP3    H246290   4.555   5.662   6.315  1.2057 -1.2263 -2.2386
 8267TIP3   OH246291   5.094   1.510   5.257  0.5273 -0.7621 -0.1335
 8267TIP3    H146292   5.053   1.569   5.194 -0.3402 -3.1186 -1.9123
 8267TIP3    H246293   5.185   1.541   5.262 -0.2974  1.8767  0.5692
 8268TIP3   OH246294   4.461   0.101   2.105 -0.5985  0.4668 -0.3694
 8268TIP3    H146295   4.417   0.186   2.112 -0.3638  0.8152 -2.5258
 8268TIP3    H246296   4.426   0.062   2.025  1.4722 -0.1576 -1.0346
 8269TIP3   OH246297   2.675   3.976  13.122  0.0395 -0.1386  0.1838
 8269TIP3    H146298   2.756   3.960  13.170 -0.4942 -1.3052  0.7269
 8269TIP3    H246299   2.608   3.982  13.189 -0.1079  2.8714 -0.0725
 8270TIP3   OH246300   2.853   6.186   6.036  0.5875 -0.0200  0.3992
 8270TIP3    H146301   2.831   6.245   5.964 -1.9852 -3.3943 -1.9352
 8270TIP3    H246302   2.771   6.177   6.085  0.5445 -2.3522  0.0174
 8271TIP3   OH246303   6.752   3.711   3.397  0.4105  0.0747 -0.1956
 8271TIP3    H146304   6.810   3.642   3.431  0.2171 -0.9980 -1.9417
 8271TIP3    H246305   6.669   3.666   3.382  0.3008  0.6734 -1.4258
 8272TIP3   OH246306   5.720   4.947   2.562  0.1529  0.2955 -0.0307
 8272TIP3    H146307   5.676   4.927   2.645  0.0457  2.6254  0.5189
 8272TIP3    H246308   5.714   5.042   2.553  0.1110  0.1073 -2.7629
 8273TIP3   OH246309   4.525   0.421  11.929 -0.4745  0.6081  0.3418
 8273TIP3    H146310   4.487   0.490  11.875 -0.3096  1.5404  1.3897
 8273TIP3    H246311   4.581   0.467  11.992  0.2250 -0.5331  0.5942
 8274TIP3   OH246312   0.860   2.119   3.825  0.1093  0.1166  0.7141
 8274TIP3    H146313   0.883   2.037   3.780  0.9467  0.2543  0.8657
 8274TIP3    H246314   0.779   2.148   3.783 -0.4831 -1.0483  1.0007
 8275TIP3   OH246315   1.822   1.719  15.813 -0.1366 -0.7244 -0.1378
 8275TIP3    H146316   1.866   1.804  15.809  0.2694 -0.9822 -2.7148
 8275TIP3    H246317   1.734   1.735  15.779 -0.2430 -1.2193 -0.1113
 8276TIP3   OH246318   4.932   5.489   2.553  0.0356  0.1818 -0.2726
 8276TIP3    H146319   4.898   5.400   2.560  2.3119 -0.7216  0.3743
 8276TIP3    H246320   4.966   5.495   2.464  0.5922  0.1128 -0.0682
 8277TIP3   OH246321   2.508   0.027  11.803  0.2540 -0.4535  0.0176
 8277TIP3    H146322   2.474   0.061  11.720  0.2375 -0.6406 -0.0512
 8277TIP3    H246323   2.585  -0.023  11.779  0.5434 -0.0884  0.1661
 8278TIP3   OH246324   0.537   2.475   5.692  0.1167  0.3765 -0.0403
 8278TIP3    H146325   0.509   2.557   5.651 -0.4532 -0.0151 -0.4545
 8278TIP3    H246326   0.465   2.451   5.750  0.7221  0.6887  0.8654
 8279TIP3   OH246327   0.072   5.010  13.995  0.3352  0.1885 -0.4410
 8279TIP3    H146328  -0.024   5.010  13.993  0.3244  1.6477 -1.0282
 8279TIP3    H246329   0.098   5.061  13.919  1.5814  0.2657  0.0143
 8280TIP3   OH246330   4.221   4.261  15.167  0.2964 -0.4158  0.1959
 8280TIP3    H146331   4.129   4.270  15.193 -0.1316 -0.7472 -1.1122
 8280TIP3    H246332   4.261   4.344  15.191 -0.4209 -0.1563  0.5125
 8281TIP3   OH246333   1.490   0.821  16.061 -0.1532 -0.1127  0.0760
 8281TIP3    H146334   1.407   0.817  16.107 -0.3050  0.8086 -0.0876
 8281TIP3    H246335   1.532   0.736  16.077 -1.2766 -0.7250 -0.1521
 8282TIP3   OH246336   5.813   6.172  14.497  0.3084 -0.3320 -0.0959
 8282TIP3    H146337   5.732   6.124  14.513  0.1662 -0.0470  0.0377
 8282TIP3    H246338   5.829   6.222  14.577 -0.0410  0.5604 -0.5598
 8283TIP3   OH246339   6.038   3.517   6.622 -0.4432  0.4355  0.0465
 8283TIP3    H146340   5.946   3.522   6.598 -0.7459  1.9836  1.3788
 8283TIP3    H246341   6.055   3.423   6.631 -2.0233  0.1427  0.2300
 8284TIP3   OH246342   1.447   6.496   2.732 -0.4911 -0.0151 -0.2279
 8284TIP3    H146343   1.491   6.419   2.770  0.6521  0.6888 -0.0813
 8284TIP3    H246344   1.514   6.538   2.679 -1.6800 -0.2305 -1.9941
 8285TIP3   OH246345   1.165   6.125  15.205 -0.3167 -0.5778  0.1805
 8285TIP3    H146346   1.175   6.220  15.208  1.0912 -0.6762 -0.3913
 8285TIP3    H246347   1.222   6.092  15.274 -0.2969 -1.0286 -0.0440
 8286TIP3   OH246348   1.405   6.151  16.796 -0.3865 -0.8884 -0.1833
 8286TIP3    H146349   1.384   6.083  16.732  0.1000 -0.2952 -0.9931
 8286TIP3    H246350   1.395   6.233  16.748  0.5631 -0.4524  0.3262
 8287TIP3   OH246351   5.233   5.252  10.630  0.0498  0.2240  0.2149
 8287TIP3    H146352   5.325   5.251  10.602  0.5694 -0.9568  1.7995
 8287TIP3    H246353   5.193   5.178  10.583 -0.0234  0.5718 -0.2715
 8288TIP3   OH246354   0.473   4.980   0.519 -0.5277  0.0358 -0.0975
 8288TIP3    H146355   0.386   5.007   0.547  0.3364  2.6892  0.2878
 8288TIP3    H246356   0.493   4.903   0.573 -2.0404  0.2646  0.8396
 8289TIP3   OH246357   5.283   5.670   5.983  0.0928 -0.1979  0.3906
 8289TIP3    H146358   5.277   5.575   5.971  0.7766 -0.0815 -1.0910
 8289TIP3    H246359   5.348   5.698   5.918  0.5072  1.1810  1.3695
 8290TIP3   OH246360   2.701   1.634   6.275  0.2248  1.0111  0.2356
 8290TIP3    H146361   2.749   1.551   6.267 -0.3843  0.7816 -1.5085
 8290TIP3    H246362   2.760   1.692   6.323  1.5142  0.1893 -0.3173
 8291TIP3   OH246363   4.656   5.777   1.420  0.0849 -0.0097  0.3476
 8291TIP3    H146364   4.651   5.696   1.470  0.2981  0.8222  1.7616
 8291TIP3    H246365   4.578   5.776   1.364 -1.2504 -0.0647  2.1246
 8292TIP3   OH246366   5.728   0.385   3.009 -0.2491  0.7549 -0.7315
 8292TIP3    H146367   5.793   0.449   3.039 -0.2672  1.3369 -1.8868
 8292TIP3    H246368   5.775   0.302   3.008 -0.8980  0.1025  3.3718
 8293TIP3   OH246369   2.541   2.171   2.968  0.7835 -0.0997 -0.0360
 8293TIP3    H146370   2.593   2.251   2.960 -0.5185  0.5313 -4.2265
 8293TIP3    H246371   2.605   2.100   2.965  1.6948  0.7202 -0.3011
 8294TIP3   OH246372   2.952   4.952  13.806  0.3409  0.1072  0.3519
 8294TIP3    H146373   2.963   4.995  13.721 -1.0397  0.1599  0.1815
 8294TIP3    H246374   3.042   4.943  13.840  0.8893  0.3361 -0.9748
 8295TIP3   OH246375   4.515   3.787  16.045 -0.0997 -0.2189 -0.8164
 8295TIP3    H146376   4.545   3.711  15.994  0.6180 -0.7679  0.3796
 8295TIP3    H246377   4.537   3.863  15.990 -0.9653 -0.8668 -2.0896
 8296TIP3   OH246378   3.374   0.587   3.894  0.8023  0.0290 -0.1048
 8296TIP3    H146379   3.313   0.569   3.822 -0.4185 -0.8067  1.0844
 8296TIP3    H246380   3.363   0.680   3.913  1.1169  0.2490 -0.9608
 8297TIP3   OH246381   0.625   5.163  13.122  0.4781  0.1212 -0.0310
 8297TIP3    H146382   0.678   5.225  13.071  0.4285  1.0885  1.0239
 8297TIP3    H246383   0.620   5.085  13.068  1.9568  0.4447 -0.6993
 8298TIP3   OH246384   5.855   2.395  11.881 -0.6070 -0.1015 -0.4118
 8298TIP3    H146385   5.846   2.344  11.801  0.1838 -1.3729  0.2847
 8298TIP3    H246386   5.836   2.334  11.952  1.3846  0.2353  0.5008
 8299TIP3   OH246387   1.830   3.974   5.859 -0.0825 -0.6697  0.8887
 8299TIP3    H146388   1.829   3.909   5.789 -1.0570 -0.0054  0.2671
 8299TIP3    H246389   1.914   3.960   5.904  0.2360 -1.5683  0.0375
 8300TIP3   OH246390   1.009   2.168   2.319  0.2211  0.3266 -0.3421
 8300TIP3    H146391   1.055   2.252   2.326  0.3086  0.1213  2.3438
 8300TIP3    H246392   0.974   2.152   2.406  0.9711 -2.8765 -0.5254
 8301TIP3   OH246393   6.795   1.452  15.950  0.3288 -0.1598 -0.0328
 8301TIP3    H146394   6.846   1.376  15.979 -0.4718 -1.9150 -2.8469
 8301TIP3    H246395   6.846   1.489  15.878  0.6455  2.0268  1.2019
 8302TIP3   OH246396   1.001   4.459   5.356  0.1403  0.6151 -0.3435
 8302TIP3    H146397   1.042   4.451   5.442 -2.0926  0.3289  0.7762
 8302TIP3    H246398   0.952   4.541   5.360  1.0172  1.2533 -1.8463
 8303TIP3   OH246399   5.958   6.580  14.215  0.1174  0.2749  0.0438
 8303TIP3    H146400   6.036   6.619  14.176 -0.1942  0.1933 -0.6764
 8303TIP3    H246401   5.966   6.486  14.194 -0.7843  0.4372 -1.1330
 8304TIP3   OH246402   5.707   4.397   4.898  0.3853 -0.5026  0.5568
 8304TIP3    H146403   5.630   4.422   4.846  0.9158 -2.7775 -1.4827
 8304TIP3    H246404   5.670   4.365   4.981 -1.1648 -3.2364 -1.0259
 8305TIP3   OH246405   4.578   3.704  11.746 -0.0853 -0.5569  0.1251
 8305TIP3    H146406   4.603   3.789  11.785  0.0802 -0.8143  0.5914
 8305TIP3    H246407   4.621   3.704  11.661  0.1157 -0.2736  0.2223
 8306TIP3   OH246408   6.052   1.696  13.032  0.3139 -0.2542  0.2771
 8306TIP3    H146409   6.104   1.772  13.059  0.2548  0.7158 -2.0741
 8306TIP3    H246410   6.042   1.707  12.937 -1.6453 -2.0080  0.2158
 8307TIP3   OH246411   4.632   1.101   4.798 -0.4168  0.6281 -0.2960
 8307TIP3    H146412   4.606   1.135   4.884 -0.9887  2.3646 -1.0940
 8307TIP3    H246413   4.721   1.132   4.786 -0.5314  0.8711 -0.5412
 8308TIP3   OH246414   2.556   5.964   2.773 -0.2245  0.2248 -0.4248
 8308TIP3    H146415   2.610   5.997   2.701  1.3187 -0.6652  0.2740
 8308TIP3    H246416   2.536   5.874   2.748 -2.1186  0.7449 -1.0325
 8309TIP3   OH246417   6.393   2.970  13.494  0.1803  0.1313 -0.0517
 8309TIP3    H146418   6.479   2.963  13.536  0.1431 -1.0070 -0.1129
 8309TIP3    H246419   6.385   2.889  13.443 -1.1597 -0.0721  0.4259
 8310TIP3   OH246420   2.482   4.366   5.799 -0.6011  0.0482  0.1270
 8310TIP3    H146421   2.396   4.395   5.767 -0.3413  0.3923 -0.2592
 8310TIP3    H246422   2.486   4.273   5.775 -1.0376 -0.0763  0.5205
 8311TIP3   OH246423   1.021   1.162   3.081 -0.2759 -0.8285 -0.2436
 8311TIP3    H146424   1.064   1.215   3.012  1.6929 -1.4010  0.4634
 8311TIP3    H246425   0.932   1.148   3.048 -0.0610  0.7185 -1.6638
 8312TIP3   OH246426   3.489   1.450   0.910  0.2423  0.0128  0.0523
 8312TIP3    H146427   3.418   1.480   0.853  0.4777 -0.4250 -0.4748
 8312TIP3    H246428   3.565   1.502   0.883  0.1197  0.5173  0.6507
 8313TIP3   OH246429   2.752   5.458   0.833  0.0970  0.0738  0.0161
 8313TIP3    H146430   2.758   5.489   0.743  2.5449  0.5594  0.2755
 8313TIP3    H246431   2.680   5.394   0.832 -1.6896  1.9574 -1.6460
 8314TIP3   OH246432   5.128   3.633  13.470  0.5573  0.1368 -0.3315
 8314TIP3    H146433   5.188   3.569  13.506  1.1028  1.5551  1.4297
 8314TIP3    H246434   5.148   3.714  13.517 -0.9327  1.3014 -1.5900
 8315TIP3   OH246435   4.279   2.331  12.546  0.2126  0.7885  0.5132
 8315TIP3    H146436   4.223   2.255  12.525 -0.5771  1.6384 -0.5540
 8315TIP3    H246437   4.232   2.376  12.616  0.2022  0.8266  0.4810
 8316TIP3   OH246438   0.197   6.289   2.705 -0.4554 -0.1708 -0.5147
 8316TIP3    H146439   0.209   6.361   2.643  0.8164 -0.9760 -1.2604
 8316TIP3    H246440   0.237   6.320   2.786 -0.8352  0.3483 -0.5223
 8317TIP3   OH246441   2.231   5.979  13.568 -0.0201 -0.0553 -0.5109
 8317TIP3    H146442   2.217   6.074  13.564 -0.6379  0.0119  1.7890
 8317TIP3    H246443   2.325   5.969  13.574 -0.0447  0.6665  2.3161
 8318TIP3   OH246444   5.406   0.455  13.380 -0.6791 -0.0408  0.4030
 8318TIP3    H146445   5.474   0.400  13.340 -1.2178  0.4943 -1.3437
 8318TIP3    H246446   5.447   0.541  13.388 -0.3088 -0.3212  1.8190
 8319TIP3   OH246447   4.977   4.172  12.365 -0.5035 -0.6287  0.1310
 8319TIP3    H146448   4.893   4.217  12.353  0.8387  1.9329 -0.3645
 8319TIP3    H246449   5.028   4.196  12.287  1.0911 -1.1663  0.9708
 8320TIP3   OH246450   1.943   5.093  17.094  0.0421  0.0054 -0.3100
 8320TIP3    H146451   1.935   5.117  17.002  0.9374 -0.0609 -0.4135
 8320TIP3    H246452   2.029   5.128  17.120  0.4933 -1.3442  0.0711
 8321TIP3   OH246453   1.103   1.052  11.731 -0.4638 -0.1001 -0.0421
 8321TIP3    H146454   1.083   1.127  11.786 -0.2006  1.9873 -2.6012
 8321TIP3    H246455   1.191   1.070  11.697 -0.3439 -1.6253 -0.6072
 8322TIP3   OH246456   5.222   3.705   3.911 -0.8228 -0.0329  0.2617
 8322TIP3    H146457   5.276   3.781   3.887 -1.6993  0.6418  0.3412
 8322TIP3    H246458   5.276   3.629   3.891 -0.0522  0.6090 -0.1511
 8323TIP3   OH246459   6.412   6.535  17.049 -0.2249  0.3813  0.0382
 8323TIP3    H146460   6.492   6.556  17.096 -0.1980  0.0339  0.1530
 8323TIP3    H246461   6.346   6.596  17.083  0.2850  1.5461 -0.9711
 8324TIP3   OH246462   5.147   2.011   1.263 -0.0218  0.2744 -0.6261
 8324TIP3    H146463   5.185   2.023   1.350 -0.1183  1.1117 -0.6832
 8324TIP3    H246464   5.193   1.937   1.226  1.0230  0.7968 -0.4036
 8325TIP3   OH246465   4.085   1.533   0.935 -0.4783 -0.2500  0.1641
 8325TIP3    H146466   4.127   1.569   1.013 -0.8853 -0.2968  0.4064
 8325TIP3    H246467   4.112   1.592   0.864 -1.2251  0.6094  0.5707
 8326TIP3   OH246468   1.306   5.866  14.679  0.4825  0.2842  0.1152
 8326TIP3    H146469   1.381   5.818  14.713 -0.9409 -1.0008  1.6482
 8326TIP3    H246470   1.325   5.958  14.697  1.8468  0.0253  0.0786
 8327TIP3   OH246471   3.100   0.438   3.255 -0.1833 -0.0208 -0.6386
 8327TIP3    H146472   3.103   0.533   3.252 -2.2253  0.0862 -1.8327
 8327TIP3    H246473   3.082   0.417   3.347  1.6699  0.6233 -0.0918
 8328TIP3   OH246474   2.320   3.906   4.473 -0.1679  0.1211  0.3879
 8328TIP3    H146475   2.310   3.915   4.378  0.6659  1.5084  0.4142
 8328TIP3    H246476   2.380   3.833   4.484 -1.3129 -0.9266 -0.0908
 8329TIP3   OH246477   1.456   2.946   4.307  0.3623  0.3810 -0.2778
 8329TIP3    H146478   1.428   2.968   4.396  0.8583 -0.4754  0.0954
 8329TIP3    H246479   1.408   2.866   4.286  0.7374  0.2233 -0.5333
 8330TIP3   OH246480   4.761   2.832  13.895 -0.3467  0.3219 -0.3148
 8330TIP3    H146481   4.833   2.894  13.904  1.1464 -1.4889  0.7325
 8330TIP3    H246482   4.802   2.746  13.897 -2.3605 -0.7646 -1.6084
 8331TIP3   OH246483   4.774   5.015  13.516  0.0657  0.0554 -0.8252
 8331TIP3    H146484   4.863   5.049  13.526  0.1028 -0.1464 -0.4521
 8331TIP3    H246485   4.782   4.922  13.538  0.0335 -0.2836 -2.1502
 8332TIP3   OH246486   1.003   0.249   1.360  0.0887 -0.6884  0.2536
 8332TIP3    H146487   0.987   0.164   1.401 -3.1504  0.1235  0.9046
 8332TIP3    H246488   0.991   0.313   1.430 -0.2531  0.4462 -0.7947
 8333TIP3   OH246489   4.578   4.707  12.576  0.1221  0.2440 -0.2285
 8333TIP3    H146490   4.540   4.635  12.626  0.7770  0.5438  0.7178
 8333TIP3    H246491   4.656   4.733  12.625 -1.6281  3.5592  1.1934
 8334TIP3   OH246492   5.115   0.512  13.100 -0.8531 -0.0148  0.2727
 8334TIP3    H146493   5.089   0.602  13.076 -1.0426 -0.2850 -0.5664
 8334TIP3    H246494   5.201   0.501  13.061  0.2949  0.6311  2.4632
 8335TIP3   OH246495   2.812   2.372   5.053 -0.0826 -0.7090 -0.3038
 8335TIP3    H146496   2.775   2.424   5.124 -0.3656  0.3251 -1.1876
 8335TIP3    H246497   2.747   2.378   4.983  1.0320 -0.1855 -1.3131
 8336TIP3   OH246498   3.189   2.370   3.625 -0.2453  0.3270  0.1159
 8336TIP3    H146499   3.191   2.284   3.582  4.8781  0.2391 -0.1182
 8336TIP3    H246500   3.183   2.433   3.553 -1.9518  0.2316  0.1442
 8337TIP3   OH246501   2.685   6.627  15.298  0.1383 -0.4125 -0.0318
 8337TIP3    H146502   2.674   6.532  15.306 -0.7024 -0.2092  1.9198
 8337TIP3    H246503   2.624   6.664  15.363  0.9657  1.4376 -0.2373
 8338TIP3   OH246504   6.312   2.086   1.663 -0.1304  0.1210  0.7077
 8338TIP3    H146505   6.335   2.038   1.742 -0.1063  0.4608  0.9051
 8338TIP3    H246506   6.246   2.031   1.620 -1.4313  0.7592  1.8194
 8339TIP3   OH246507   6.393   0.066   2.443  0.5158 -0.1639 -0.0537
 8339TIP3    H146508   6.449   0.013   2.500  0.4262  1.0403  1.2145
 8339TIP3    H246509   6.306   0.062   2.484  0.6555  1.4748  0.4413
 8340TIP3   OH246510   6.779   1.672   0.744  0.4502  0.5990 -0.2275
 8340TIP3    H146511   6.807   1.763   0.746  0.1421  0.6848  0.4004
 8340TIP3    H246512   6.720   1.663   0.819  1.4687 -0.4223  0.4943
 8341TIP3   OH246513   5.599   6.588  16.974  0.5540 -0.2701 -0.0901
 8341TIP3    H146514   5.582   6.651  16.904  0.0555 -0.3508 -0.0454
 8341TIP3    H246515   5.545   6.618  17.047 -0.5684 -1.3769 -0.4351
 8342TIP3   OH246516   2.993   0.492  16.657  0.5225 -0.5823 -0.2607
 8342TIP3    H146517   2.931   0.420  16.666 -0.6317  0.3343 -0.6851
 8342TIP3    H246518   3.036   0.476  16.573  0.0638 -0.6308 -0.4896
 8343TIP3   OH246519   6.122   0.903  10.993  0.2850  0.0436 -0.1933
 8343TIP3    H146520   6.068   0.958  10.936  0.5793 -0.2046 -0.7152
 8343TIP3    H246521   6.179   0.855  10.933 -0.4669 -1.3707  0.1983
 8344TIP3   OH246522   3.484   5.360   1.186 -0.3647  0.1895  0.1982
 8344TIP3    H146523   3.481   5.390   1.276  3.9788  0.1337  0.5925
 8344TIP3    H246524   3.448   5.433   1.135  0.7219  1.9094  1.7552
 8345TIP3   OH246525   2.970   3.685  11.841 -0.1809 -0.7783  0.1442
 8345TIP3    H146526   3.053   3.662  11.884  0.1809 -0.3772 -0.3175
 8345TIP3    H246527   2.996   3.745  11.771 -0.9801  0.2293  0.6866
 8346TIP3   OH246528   0.640   3.864   5.295  0.2217  0.2343 -0.1623
 8346TIP3    H146529   0.549   3.835   5.294  0.0201  0.7542  1.1332
 8346TIP3    H246530   0.642   3.940   5.237 -0.1419  0.1227 -0.3185
 8347TIP3   OH246531   0.646   1.412  12.053 -0.4354  0.6299  0.0702
 8347TIP3    H146532   0.621   1.477  11.987 -0.6076  1.6883  1.1404
 8347TIP3    H246533   0.676   1.337  12.002 -0.7156  1.3487 -1.2119
 8348TIP3   OH246534   1.353   3.921   1.969  0.5216  0.8747 -0.2336
 8348TIP3    H146535   1.310   3.861   2.030  0.6496 -0.0988 -1.0747
 8348TIP3    H246536   1.434   3.877   1.944  0.5040  1.2737 -1.0568
 8349TIP3   OH246537   5.744   0.277  13.242 -0.4706  0.3770 -0.4761
 8349TIP3    H146538   5.774   0.351  13.295  0.2486  0.4225 -0.9384
 8349TIP3    H246539   5.684   0.317  13.179  0.8078  0.7758 -1.4838
 8350TIP3   OH246540   3.716   3.602  14.539  0.0673 -0.0204 -0.5586
 8350TIP3    H146541   3.731   3.512  14.510  1.6688  0.1211 -0.2968
 8350TIP3    H246542   3.788   3.619  14.600 -0.6073  1.2060 -0.0822
 8351TIP3   OH246543   6.286   1.801  15.119 -0.3269  0.0020  0.6272
 8351TIP3    H146544   6.265   1.892  15.098 -1.6724 -0.6271 -1.0570
 8351TIP3    H246545   6.315   1.763  15.035  2.2560 -0.6449  1.7062
 8352TIP3   OH246546   4.001   2.210  10.516 -0.5737  0.1663  0.3367
 8352TIP3    H146547   4.072   2.194  10.454 -0.1321 -1.4769  1.2132
 8352TIP3    H246548   3.957   2.288  10.482  0.6727  0.2971 -1.0959
 8353TIP3   OH246549   3.551   2.950  17.007  0.2154 -0.2833  0.8519
 8353TIP3    H146550   3.626   2.946  16.948  0.1360  0.7896  0.6549
 8353TIP3    H246551   3.587   2.932  17.093  0.5344 -0.7083  0.6303
 8354TIP3   OH246552   2.778   5.485   3.727  0.2951  0.3178 -0.1106
 8354TIP3    H146553   2.792   5.547   3.799  2.1827 -0.1388 -0.0331
 8354TIP3    H246554   2.866   5.455   3.704 -0.5144 -1.7972 -0.6279
 8355TIP3   OH246555   0.960   5.960   3.756  0.3588 -0.0466 -0.1059
 8355TIP3    H146556   1.050   5.984   3.733 -0.3043  1.5272 -1.1815
 8355TIP3    H246557   0.970   5.898   3.829  2.3284 -0.5766 -0.7687
 8356TIP3   OH246558   2.837   4.525   2.122  0.1771  0.3323 -0.8856
 8356TIP3    H146559   2.781   4.600   2.103 -0.3389  0.5680  1.3035
 8356TIP3    H246560   2.915   4.563   2.163 -0.0257 -0.2756  0.1048
 8357TIP3   OH246561   3.585   6.041  12.721  0.1539 -0.2390 -0.1058
 8357TIP3    H146562   3.541   6.027  12.638 -1.5306  0.3171  0.6535
 8357TIP3    H246563   3.656   5.977  12.721 -1.4310 -2.1028 -0.8436
 8358TIP3   OH246564   1.208   3.439  13.730 -0.2127 -0.0792 -1.0440
 8358TIP3    H146565   1.229   3.391  13.651  0.1227 -2.8168  0.5848
 8358TIP3    H246566   1.122   3.406  13.757  0.0605  0.1257  0.1784
 8359TIP3   OH246567   5.473   2.630  13.116  0.1199 -0.7611  0.8411
 8359TIP3    H146568   5.408   2.562  13.131 -2.9785  2.1162  1.5692
 8359TIP3    H246569   5.509   2.648  13.203 -0.5277 -0.1219  0.9782
 8360TIP3   OH246570   1.746   0.027   3.611 -0.1186 -0.4189 -0.4779
 8360TIP3    H146571   1.813  -0.005   3.672  1.6217  2.4399 -0.7105
 8360TIP3    H246572   1.778   0.002   3.525  0.4578  0.5345 -0.5558
 8361TIP3   OH246573   5.528   1.318   4.887  0.0637  0.4092  0.3288
 8361TIP3    H146574   5.529   1.288   4.796 -2.4277  0.0198  0.3437
 8361TIP3    H246575   5.435   1.316   4.911  0.6781  0.3506  2.9416
 8362TIP3   OH246576   2.071   2.187  13.209  0.2824 -0.3603 -0.1550
 8362TIP3    H146577   2.167   2.185  13.206  0.2674  0.1395 -1.3158
 8362TIP3    H246578   2.044   2.152  13.124 -0.5675 -0.3845  0.1202
 8363TIP3   OH246579   1.653   3.322   0.173  0.1089 -0.0294 -0.0298
 8363TIP3    H146580   1.677   3.362   0.257  0.5987  0.5305 -0.4273
 8363TIP3    H246581   1.720   3.352   0.112  0.0213 -0.8111 -0.5254
 8364TIP3   OH246582   0.835   2.964   2.342  0.1529 -1.0136 -0.0730
 8364TIP3    H146583   0.838   2.941   2.249 -2.6745  0.8194 -0.7082
 8364TIP3    H246584   0.827   2.880   2.387 -1.4242 -1.8008 -1.7194
 8365TIP3   OH246585   3.529   6.512   2.781 -1.0963 -0.2472  0.0883
 8365TIP3    H146586   3.457   6.571   2.762 -1.1874 -0.3923 -0.0180
 8365TIP3    H246587   3.598   6.537   2.719 -1.2640 -0.4868 -0.1946
 8366TIP3   OH246588   6.725   3.313  16.540 -0.0695 -0.3292 -0.2729
 8366TIP3    H146589   6.770   3.256  16.477  0.7289 -1.3138  1.1144
 8366TIP3    H246590   6.656   3.355  16.490  0.4598 -1.1671 -1.7685
 8367TIP3   OH246591   4.052   0.682  13.684  0.7737  0.4015 -0.2968
 8367TIP3    H146592   4.056   0.599  13.638  0.3555  0.7475 -0.9764
 8367TIP3    H246593   4.087   0.746  13.622 -0.4303  0.9786 -0.3996
 8368TIP3   OH246594   0.759   3.399  15.008 -0.2334  0.4751  0.4822
 8368TIP3    H146595   0.801   3.415  15.092  2.4926 -0.8697 -0.4755
 8368TIP3    H246596   0.832   3.395  14.946 -1.9628 -0.5294 -1.6132
 8369TIP3   OH246597   1.404   3.588   1.117  0.1950 -0.6119 -0.7747
 8369TIP3    H146598   1.343   3.660   1.102  0.0378 -0.0952  1.8677
 8369TIP3    H246599   1.348   3.511   1.128  0.0497 -0.3323  0.5829
 8370TIP3   OH246600   4.610   0.484   3.687 -0.1308  0.3337 -0.0335
 8370TIP3    H146601   4.618   0.486   3.782  0.3384  1.7108 -0.0745
 8370TIP3    H246602   4.684   0.536   3.656  0.4449 -1.1091 -1.2211
 8371TIP3   OH246603   0.905   3.927  15.083 -0.5524 -0.5977  0.4155
 8371TIP3    H146604   0.896   3.832  15.079 -0.8072 -0.5369 -2.3041
 8371TIP3    H246605   0.815   3.960  15.076 -0.2866 -0.1629 -1.1698
 8372TIP3   OH246606   1.117   1.886   5.786 -0.4271 -0.7085  0.1457
 8372TIP3    H146607   1.144   1.975   5.764 -0.3247 -0.5377  0.9327
 8372TIP3    H246608   1.033   1.897   5.831 -0.5571 -1.0288 -0.0184
 8373TIP3   OH246609   1.476   0.348   0.968 -0.0016 -0.1681 -0.1924
 8373TIP3    H146610   1.463   0.433   0.926 -0.2637  0.7607  1.6576
 8373TIP3    H246611   1.567   0.349   0.998  0.3161 -0.9963 -1.0817
 8374TIP3   OH246612   2.168   3.717   2.784  0.0573 -0.3870 -0.0997
 8374TIP3    H146613   2.109   3.743   2.714 -0.3247 -0.3462  0.2294
 8374TIP3    H246614   2.129   3.755   2.863  1.3697  0.9662 -0.0741
 8375TIP3   OH246615   3.770   2.171   3.009 -0.3664 -0.3243  0.1077
 8375TIP3    H146616   3.794   2.216   2.929  0.4856 -0.8662  0.0514
 8375TIP3    H246617   3.674   2.169   3.007 -0.4044  0.8992 -0.1910
 8376TIP3   OH246618   5.928   4.681   2.841 -0.4898 -0.4338  0.0923
 8376TIP3    H146619   5.887   4.614   2.786 -2.1089 -1.4215  2.3554
 8376TIP3    H246620   6.014   4.645   2.862  0.5142  0.3263 -2.3195
 8377TIP3   OH246621   5.460   4.148   3.371 -0.5630  0.0685  0.1206
 8377TIP3    H146622   5.420   4.199   3.441 -0.9107  1.8806 -1.3227
 8377TIP3    H246623   5.537   4.199   3.345  0.1322 -1.0881 -0.1719
 8378TIP3   OH246624   5.532   3.034   5.147  0.0806 -0.2281  0.1550
 8378TIP3    H146625   5.501   2.952   5.185 -1.8849 -0.2918 -1.4052
 8378TIP3    H246626   5.522   3.022   5.052  0.7871  1.4311 -0.1636
 8379TIP3   OH246627   1.414   6.579   1.218 -0.0381 -0.1730  0.2425
 8379TIP3    H146628   1.499   6.602   1.181  0.1578  1.2577  1.4631
 8379TIP3    H246629   1.433   6.556   1.309 -1.0429  1.0918  0.8003
 8380TIP3   OH246630   2.575   5.610  12.047 -0.4375 -0.6141  0.4904
 8380TIP3    H146631   2.628   5.583  11.972 -0.7150 -0.5926  0.2863
 8380TIP3    H246632   2.513   5.673  12.011  0.0901  0.1747  0.9322
 8381TIP3   OH246633   0.208   6.009  16.829  0.1611  0.8291 -0.4374
 8381TIP3    H146634   0.208   5.998  16.734  0.8257  2.0337 -0.6031
 8381TIP3    H246635   0.292   6.050  16.848 -0.1641  1.0375  0.6170
 8382TIP3   OH246636   3.979   5.086   4.958  0.0432 -0.8481 -0.2163
 8382TIP3    H146637   4.051   5.064   5.016  1.0194  0.1369 -1.0168
 8382TIP3    H246638   3.989   5.026   4.884  0.3203 -0.4184 -0.5332
 8383TIP3   OH246639   1.113   3.614  14.984  0.4696  0.2130 -0.0568
 8383TIP3    H146640   1.190   3.567  14.950 -0.3924 -0.3069 -1.3472
 8383TIP3    H246641   1.039   3.578  14.935 -0.4836  1.4425  0.4319
 8384TIP3   OH246642   6.604   2.496   2.862  0.0531 -0.0065 -0.1914
 8384TIP3    H146643   6.697   2.472   2.865 -0.4895 -2.2544  0.9138
 8384TIP3    H246644   6.571   2.455   2.783  0.0222  1.0344 -0.7391
 8385TIP3   OH246645   0.829   1.499   5.586 -0.6151 -0.2725 -0.2431
 8385TIP3    H146646   0.757   1.469   5.642 -0.4602 -0.7061 -0.2742
 8385TIP3    H246647   0.847   1.425   5.529 -0.4756  0.0149 -0.5738
 8386TIP3   OH246648   6.115   6.265   2.779 -0.3722 -0.2012  0.0972
 8386TIP3    H146649   6.186   6.204   2.798 -1.4116 -1.5191 -0.1345
 8386TIP3    H246650   6.153   6.327   2.717  2.2440  2.4735  3.8400
 8387TIP3   OH246651   6.000   1.027   4.505 -0.2840 -0.3308  0.2182
 8387TIP3    H146652   6.092   1.007   4.487  0.2680  1.6654  0.6265
 8387TIP3    H246653   5.963   0.943   4.534  1.3552 -1.2092 -0.0835
 8388TIP3   OH246654   1.542   3.583  16.469  0.5864  0.0139  0.5493
 8388TIP3    H146655   1.620   3.593  16.524  0.7022 -1.3630  0.6683
 8388TIP3    H246656   1.573   3.534  16.393  0.1320  0.7179 -0.0970
 8389TIP3   OH246657   4.267   1.141  14.343 -0.5864 -0.3406 -0.2395
 8389TIP3    H146658   4.264   1.148  14.439 -0.0372 -2.3851 -0.0429
 8389TIP3    H246659   4.212   1.065  14.322 -1.9816  0.9799 -1.7233
 8390TIP3   OH246660   3.018   5.180   5.832 -0.2088 -0.2869  0.5879
 8390TIP3    H146661   2.949   5.114   5.840  0.3824 -0.8862  0.8202
 8390TIP3    H246662   3.060   5.181   5.918 -0.8563  1.1390  0.9346
 8391TIP3   OH246663   2.767   3.924  16.608 -0.0992 -0.0923  0.2335
 8391TIP3    H146664   2.746   4.004  16.657 -2.9621 -1.6015  1.7603
 8391TIP3    H246665   2.739   3.943  16.518  0.8311  1.1564  0.1872
 8392TIP3   OH246666   2.882   3.142   0.334 -0.2381 -0.3134 -0.3069
 8392TIP3    H146667   2.868   3.105   0.247  0.8585 -0.5380 -0.4105
 8392TIP3    H246668   2.837   3.226   0.333  0.1052 -0.1248 -1.2428
 8393TIP3   OH246669   0.133   4.021   2.533  0.1570  0.1002  0.5429
 8393TIP3    H146670   0.141   4.095   2.473  0.5256  0.3501  0.8973
 8393TIP3    H246671   0.038   4.009   2.543 -0.0295  2.6725  3.0698
 8394TIP3   OH246672   5.858   6.416   4.555 -0.2173  0.1806 -0.3323
 8394TIP3    H146673   5.772   6.434   4.593 -0.3714  0.3398 -0.7517
 8394TIP3    H246674   5.846   6.428   4.461  0.5634  1.4562 -0.2927
 8395TIP3   OH246675   1.254   6.573  15.461  0.2327 -0.0538  0.5499
 8395TIP3    H146676   1.289   6.604  15.378  0.4750 -0.5905  0.4471
 8395TIP3    H246677   1.307   6.496  15.483  0.4277  0.3050  1.3972
 8396TIP3   OH246678   4.050   5.755  11.834 -0.1051 -0.0409 -0.2345
 8396TIP3    H146679   4.097   5.781  11.913 -0.0484  2.3436 -0.9627
 8396TIP3    H246680   4.106   5.688  11.794  2.1376  1.7760 -0.4075
 8397TIP3   OH246681   6.676   6.254  12.659  0.5347  0.3129 -0.2489
 8397TIP3    H146682   6.646   6.172  12.698 -0.9168 -0.0188 -1.9289
 8397TIP3    H246683   6.599   6.289  12.614  1.5733  1.7308 -1.0215
 8398TIP3   OH246684   3.482   5.481   1.442  0.2804  0.2921 -0.4986
 8398TIP3    H146685   3.447   5.402   1.484 -0.0304  0.4060 -0.5391
 8398TIP3    H246686   3.404   5.530   1.415  0.3825  1.7752  1.6220
 8399TIP3   OH246687   0.516   1.131   2.263 -0.2762 -0.3170 -0.6753
 8399TIP3    H146688   0.478   1.144   2.351 -1.4673 -0.4323 -1.1528
 8399TIP3    H246689   0.566   1.211   2.247 -0.3305 -0.1438 -0.0301
 8400TIP3   OH246690   3.324   1.773   5.523  0.0731 -0.4718 -0.4190
 8400TIP3    H146691   3.274   1.702   5.564 -1.1749  0.6474  0.0791
 8400TIP3    H246692   3.330   1.840   5.591 -4.2208  2.5393 -2.5393
 8401TIP3   OH246693   2.316   1.389   0.262 -0.3972 -0.7410  0.0351
 8401TIP3    H146694   2.289   1.428   0.345 -1.2709  0.7250 -0.9035
 8401TIP3    H246695   2.234   1.371   0.216  0.1047  0.2673 -1.3092
 8402TIP3   OH246696   4.513   1.162  10.690 -0.1321  0.1414 -0.0130
 8402TIP3    H146697   4.587   1.189  10.636 -0.1044 -1.8399 -1.0231
 8402TIP3    H246698   4.453   1.236  10.687  1.3230  1.3683 -0.0233
 8403TIP3   OH246699   1.537   3.598  15.845  0.2821  0.1949 -0.3257
 8403TIP3    H146700   1.605   3.539  15.877 -0.4723 -1.3970 -1.5534
 8403TIP3    H246701   1.488   3.623  15.924  0.9913 -0.3258  0.2900
 8404TIP3   OH246702   0.624   5.983  17.101 -0.2967  0.5891 -0.5805
 8404TIP3    H146703   0.542   6.024  17.075 -1.3588  0.2898  1.9837
 8404TIP3    H246704   0.688   6.054  17.100 -1.3932  1.6475  0.6799
 8405TIP3   OH246705   1.920   3.695   6.004 -0.6567 -0.4075 -0.0797
 8405TIP3    H146706   1.938   3.644   6.083  1.5212 -0.9773 -0.8991
 8405TIP3    H246707   1.963   3.779   6.019  0.4285 -0.7914 -0.9545
 8406TIP3   OH246708   2.300   0.141  16.819 -0.0404 -0.1250  0.1502
 8406TIP3    H146709   2.311   0.046  16.818 -1.3206 -0.3487  1.7105
 8406TIP3    H246710   2.224   0.157  16.764  0.1320 -0.0192 -0.0556
 8407TIP3   OH246711   5.665   1.277   3.948  0.5784 -0.8919  0.3537
 8407TIP3    H146712   5.638   1.355   3.996  1.7203  0.1538 -0.6358
 8407TIP3    H246713   5.684   1.212   4.016  1.3209  0.2669  1.2906
 8408TIP3   OH246714   3.659   6.532  12.379 -0.1511  0.5254 -0.0407
 8408TIP3    H146715   3.735   6.477  12.359 -0.8479 -0.5915  0.2538
 8408TIP3    H246716   3.632   6.567  12.294  2.1637  3.0383  0.1223
 8409TIP3   OH246717   1.897   1.816   2.012 -0.1407 -0.1749  0.0549
 8409TIP3    H146718   1.873   1.724   2.000 -0.4037  0.0470 -1.3564
 8409TIP3    H246719   1.985   1.813   2.051 -0.5143 -1.0020  0.8646
 8410TIP3   OH246720   3.931   3.872  10.573  1.0978  0.7486  0.3763
 8410TIP3    H146721   3.908   3.848  10.484  0.9609  0.2013  0.5512
 8410TIP3    H246722   3.882   3.810  10.628  1.4298  0.8654  0.8135
 8411TIP3   OH246723   2.143   3.329   4.189 -0.2256  0.0318 -0.8345
 8411TIP3    H146724   2.121   3.372   4.272 -1.5163  0.1076 -1.2023
 8411TIP3    H246725   2.234   3.355   4.173 -0.6247  1.7608 -0.4948
 8412TIP3   OH246726   2.452   0.402  15.359  0.2189 -0.2112  0.3466
 8412TIP3    H146727   2.374   0.352  15.386 -1.5417  1.7357 -0.8482
 8412TIP3    H246728   2.461   0.383  15.266 -0.7153  1.8910 -0.2207
 8413TIP3   OH246729   1.350   4.363  12.545 -0.2915 -0.9058 -0.3322
 8413TIP3    H146730   1.345   4.361  12.641 -0.0383 -1.1929 -0.3226
 8413TIP3    H246731   1.443   4.367  12.526 -0.3738  0.9359 -0.5537
 8414TIP3   OH246732   0.852   1.999   4.414 -0.3566  0.5295  0.9341
 8414TIP3    H146733   0.924   1.992   4.351  0.8097  1.8074  2.0724
 8414TIP3    H246734   0.780   2.037   4.364 -0.7807 -1.9801 -0.5758
 8415TIP3   OH246735   5.351   4.030  11.901 -0.1310 -0.0143  0.3583
 8415TIP3    H146736   5.416   3.989  11.843 -1.7650 -0.5363 -1.1995
 8415TIP3    H246737   5.375   3.999  11.989 -0.7805 -3.8285 -0.5960
 8416TIP3   OH246738   2.146   1.930  14.410  0.2677  0.0301  0.1906
 8416TIP3    H146739   2.079   1.883  14.460  0.3561  1.2058  1.4792
 8416TIP3    H246740   2.101   2.005  14.373  0.5858  0.0828 -0.1003
 8417TIP3   OH246741   1.179   5.757  13.196  0.3031 -0.5634 -0.8078
 8417TIP3    H146742   1.178   5.772  13.291  0.6398  2.2745 -1.1574
 8417TIP3    H246743   1.272   5.753  13.173  0.5074  3.4496 -1.4646
 8418TIP3   OH246744   3.300   0.001   2.032  0.1759  0.5373 -0.3472
 8418TIP3    H146745   3.263   0.081   1.994 -0.7629  0.2229 -0.1395
 8418TIP3    H246746   3.376   0.031   2.082 -1.1028  1.5782  1.1104
 8419TIP3   OH246747   0.840   0.023  15.446 -0.0803  0.0480 -0.4772
 8419TIP3    H146748   0.935   0.015  15.436 -0.3534 -1.2117 -2.4305
 8419TIP3    H246749   0.804   0.003  15.360 -2.0362  3.2506 -0.6008
 8420TIP3   OH246750   0.020   3.539  14.575  0.3946  0.4081 -0.8576
 8420TIP3    H146751   0.018   3.633  14.560  0.1349  0.4692 -0.4536
 8420TIP3    H246752  -0.015   3.528  14.663  0.4516 -0.0647 -0.8914
 8421TIP3   OH246753   4.620   5.681   0.054  0.4543 -0.1595 -0.1728
 8421TIP3    H146754   4.710   5.648   0.055  0.6462  0.3598  0.7078
 8421TIP3    H246755   4.566   5.602   0.045  1.0176 -0.3838 -1.8733
 8422TIP3   OH246756   3.157   6.144  14.081 -0.3918 -0.3693  0.1081
 8422TIP3    H146757   3.226   6.184  14.134 -0.2430  0.1635 -0.4770
 8422TIP3    H246758   3.188   6.055  14.064 -0.4420 -0.5432  0.9111
 8423TIP3   OH246759   4.291   6.121  15.171 -0.1937 -0.0149 -0.5803
 8423TIP3    H146760   4.370   6.089  15.216  0.7221  1.1399 -1.3049
 8423TIP3    H246761   4.320   6.199  15.123 -2.0222  1.0404 -0.0671
 8424TIP3   OH246762   0.015   1.393   5.282 -0.1178  0.3244 -0.2445
 8424TIP3    H146763   0.109   1.396   5.300 -0.2027 -0.7974  0.4187
 8424TIP3    H246764  -0.006   1.483   5.256  1.2225  0.4924 -0.8745
 8425TIP3   OH246765   3.497   4.662   1.272  0.0634  0.1341  0.3314
 8425TIP3    H146766   3.518   4.572   1.299  1.3312 -0.0698 -1.2043
 8425TIP3    H246767   3.447   4.652   1.191  0.1897  0.8158  0.1602
 8426TIP3   OH246768   6.021   4.251  16.152 -0.0660 -0.4116 -0.9777
 8426TIP3    H146769   6.113   4.230  16.169 -0.2140  0.5881  1.4177
 8426TIP3    H246770   5.973   4.205  16.221 -1.0179  1.8056 -0.0923
 8427TIP3   OH246771   3.654   1.701   4.853 -0.2821  0.6086  0.2941
 8427TIP3    H146772   3.605   1.687   4.933  0.9317 -0.0085  0.9514
 8427TIP3    H246773   3.707   1.779   4.870 -0.1602  0.5930  0.0037
 8428TIP3   OH246774   1.579   2.574   0.286 -0.8775 -0.2383  0.3516
 8428TIP3    H146775   1.493   2.533   0.297 -0.4533 -1.2507  0.0547
 8428TIP3    H246776   1.641   2.508   0.318 -0.1807  0.2504  0.0284
 8429TIP3   OH246777   2.221   4.700   5.394  0.3892 -0.5543 -0.3331
 8429TIP3    H146778   2.295   4.760   5.385  0.4497 -0.7827 -1.5777
 8429TIP3    H246779   2.249   4.636   5.459  0.8301  0.0142  0.0497
 8430TIP3   OH246780   4.988   6.805   1.782 -0.1637 -0.7217 -0.4132
 8430TIP3    H146781   4.912   6.750   1.801  1.3704 -2.2612  1.8464
 8430TIP3    H246782   5.062   6.756   1.818  1.4750  2.2461  0.6052
 8431TIP3   OH246783   4.599   2.317  15.002  0.0357 -0.2877 -0.1998
 8431TIP3    H146784   4.577   2.224  15.009  0.7395 -0.4358  0.1562
 8431TIP3    H246785   4.690   2.318  14.971  0.4834  0.2485  1.0521
 8432TIP3   OH246786   0.150   2.737  16.669 -0.3738 -0.1794  0.1109
 8432TIP3    H146787   0.119   2.803  16.607  0.7015  0.1053 -0.1448
 8432TIP3    H246788   0.158   2.783  16.752 -2.7458 -0.7826  0.7668
 8433TIP3   OH246789   4.319   2.419   5.240  0.2076 -0.0067  0.1869
 8433TIP3    H146790   4.282   2.501   5.273 -1.1741 -0.2477 -0.6629
 8433TIP3    H246791   4.254   2.388   5.176  0.9836 -1.4651  0.0704
 8434TIP3   OH246792   2.268   6.445   6.382 -0.0728 -0.5269 -0.4095
 8434TIP3    H146793   2.316   6.421   6.461  1.1995 -1.4045 -1.4103
 8434TIP3    H246794   2.334   6.478   6.322 -1.0219  0.1618 -1.1186
 8435TIP3   OH246795   3.665   0.093   2.854 -0.0481 -0.4045  0.0006
 8435TIP3    H146796   3.654   0.072   2.762  0.3573 -0.8348  0.0486
 8435TIP3    H246797   3.665   0.009   2.899 -3.7017 -0.1439  0.8201
 8436TIP3   OH246798   0.642   6.787  16.693  0.5266  0.3282 -0.2413
 8436TIP3    H146799   0.568   6.728  16.678 -2.3378  2.9988  1.8359
 8436TIP3    H246800   0.646   6.840  16.613  0.6705 -0.2583 -0.6315
 8437TIP3   OH246801   5.518   2.260  15.928  0.1334 -0.0281 -0.3220
 8437TIP3    H146802   5.567   2.214  15.995 -0.0506 -0.1117 -0.2446
 8437TIP3    H246803   5.448   2.305  15.976 -0.4841 -0.7426 -0.5492
 8438TIP3   OH246804   4.325   5.602   6.000  0.5813 -0.2364  0.8418
 8438TIP3    H146805   4.336   5.676   6.060 -3.1945  0.8316  0.5011
 8438TIP3    H246806   4.350   5.525   6.052  0.9677  0.9539  2.5176
 8439TIP3   OH246807   4.431   0.210  17.189  0.4010  0.1955 -0.2510
 8439TIP3    H146808   4.388   0.285  17.148 -0.9141  0.0612  0.8106
 8439TIP3    H246809   4.483   0.248  17.260  0.5950  0.1976 -0.3943
 8440TIP3   OH246810   0.881   5.065   5.165  0.3871  0.3417  0.0926
 8440TIP3    H146811   0.906   4.974   5.148  1.4148  0.4913  0.7085
 8440TIP3    H246812   0.901   5.111   5.083 -0.5612 -0.0509 -0.3764
 8441TIP3   OH246813   6.114   2.287  14.400  0.6527  0.0972 -0.3180
 8441TIP3    H146814   6.050   2.216  14.398 -1.2638  1.6970 -0.1983
 8441TIP3    H246815   6.117   2.319  14.310 -0.9745  1.8158  0.1598
 8442TIP3   OH246816   4.221   2.422   1.962  0.1965 -0.0780  0.9001
 8442TIP3    H146817   4.159   2.463   2.023 -1.3465  0.0729 -0.6678
 8442TIP3    H246818   4.171   2.349   1.924  0.1826  1.2407 -1.8819
 8443TIP3   OH246819   2.788   1.581   5.121  0.1900 -0.2246  0.1065
 8443TIP3    H146820   2.821   1.567   5.032  1.1025  0.2917  0.3470
 8443TIP3    H246821   2.803   1.498   5.165  0.6408 -0.1862  0.0381
 8444TIP3   OH246822   4.325   3.780  14.543 -0.3666 -0.1680 -0.4983
 8444TIP3    H146823   4.344   3.703  14.597  1.8033 -0.5879 -1.7532
 8444TIP3    H246824   4.254   3.825  14.589  1.8196 -0.0708  3.1177
 8445TIP3   OH246825   1.923   5.906   5.458  1.0066 -0.7888 -0.0189
 8445TIP3    H146826   1.845   5.868   5.419  0.9578 -1.2378  0.4933
 8445TIP3    H246827   1.915   6.000   5.443  0.9935 -0.9491 -1.0711
 8446TIP3   OH246828   1.473   0.545   4.523  0.1240 -0.3762  0.0507
 8446TIP3    H146829   1.512   0.539   4.436 -0.0759 -2.1061  0.0369
 8446TIP3    H246830   1.382   0.569   4.506  0.6845  1.9245 -0.0169
 8447TIP3   OH246831   5.844   2.715   1.859 -0.5718  0.1189  0.3540
 8447TIP3    H146832   5.825   2.650   1.791  0.9461  0.2790 -0.2610
 8447TIP3    H246833   5.759   2.754   1.880 -0.9235  1.0699 -2.4890
 8448TIP3   OH246834   4.059   3.960   3.785 -0.3873  0.4798  0.2859
 8448TIP3    H146835   4.115   3.943   3.709 -2.4764 -2.7665 -0.7229
 8448TIP3    H246836   3.999   4.028   3.755 -0.9099 -0.4580 -0.8801
 8449TIP3   OH246837   6.471   3.490  13.385  0.2352  0.0818  0.1435
 8449TIP3    H146838   6.446   3.505  13.294 -2.4974 -0.1539  0.7604
 8449TIP3    H246839   6.561   3.459  13.380  0.6707  1.4533 -2.3363
 8450TIP3   OH246840   4.347   5.846   0.590 -0.0223  0.0175 -0.3031
 8450TIP3    H146841   4.262   5.801   0.589 -0.7107  1.2115 -2.3169
 8450TIP3    H246842   4.364   5.868   0.498  1.1655  2.1798  0.3413
 8451TIP3   OH246843   0.367   1.983  15.707 -0.5402 -0.0119  0.0111
 8451TIP3    H146844   0.307   2.034  15.762 -1.1805  0.0770 -0.7590
 8451TIP3    H246845   0.319   1.903  15.688 -0.4212  0.0656 -0.6241
 8452TIP3   OH246846   0.468   6.534   6.198  0.3863  0.2671 -0.5277
 8452TIP3    H146847   0.466   6.475   6.123 -0.4260 -0.0359 -0.2796
 8452TIP3    H246848   0.524   6.607   6.170  0.6750 -0.1873 -1.1561
 8453TIP3   OH246849   5.806   5.966   1.648  0.2044 -0.2160 -0.0265
 8453TIP3    H146850   5.720   5.931   1.627  0.9284 -1.5458 -0.8814
 8453TIP3    H246851   5.836   5.914   1.722  0.5139 -0.1390 -0.0956
 8454TIP3   OH246852   2.039   1.190  11.278  0.1044  0.0576  0.0411
 8454TIP3    H146853   2.061   1.242  11.201 -3.0629  1.3118 -0.1645
 8454TIP3    H246854   1.968   1.132  11.249 -1.0252  0.4069  1.9131
 8455TIP3   OH246855   3.464   5.461  11.862 -0.2424  0.6948  0.7622
 8455TIP3    H146856   3.400   5.410  11.912  0.6372 -1.0879  0.1546
 8455TIP3    H246857   3.535   5.477  11.923  0.0144  0.1230  0.6191
 8456TIP3   OH246858   0.383   1.821  15.300 -0.1309  0.5862  0.5669
 8456TIP3    H146859   0.326   1.828  15.376 -1.8925 -3.4970 -0.1113
 8456TIP3    H246860   0.325   1.837  15.225  0.9942  1.9912 -0.0557
 8457TIP3   OH246861   2.956   1.109   5.550 -0.4883 -0.5733  0.2253
 8457TIP3    H146862   2.980   1.039   5.490 -0.1582  0.3808 -0.7897
 8457TIP3    H246863   2.898   1.165   5.499  0.7755  0.9242  0.3528
 8458TIP3   OH246864   6.564   3.910  12.849 -0.2170  0.0450 -0.0707
 8458TIP3    H146865   6.490   3.891  12.906  0.4996 -0.7960  0.6121
 8458TIP3    H246866   6.639   3.868  12.892  0.2836 -0.9554 -1.8043
 8459TIP3   OH246867   4.810   2.164  15.445  0.2042 -0.3962  0.5463
 8459TIP3    H146868   4.885   2.119  15.406 -0.3247 -2.0032  1.2893
 8459TIP3    H246869   4.737   2.103  15.435 -1.2984  1.5278 -1.0653
 8460TIP3   OH246870   5.143   5.644   1.828 -0.6950  0.1348 -0.4280
 8460TIP3    H146871   5.125   5.560   1.787 -2.2085  1.0637 -1.7626
 8460TIP3    H246872   5.150   5.706   1.756 -0.3384  1.2963  0.5577
 8461TIP3   OH246873   3.230   0.180   5.972 -0.1077 -0.1890 -0.6901
 8461TIP3    H146874   3.238   0.198   5.878 -0.1065 -0.4463 -0.7403
 8461TIP3    H246875   3.244   0.264   6.014 -0.3331 -0.0295 -0.9324
 8462TIP3   OH246876   0.259   0.885  12.349  0.1548 -0.0705 -0.2248
 8462TIP3    H146877   0.167   0.881  12.323  0.2478  0.9590 -0.7604
 8462TIP3    H246878   0.290   0.795  12.341 -0.9513 -0.5494  0.5550
 8463TIP3   OH246879   1.953   1.530  13.958  0.0047 -0.3510 -1.1199
 8463TIP3    H146880   1.893   1.490  13.896 -0.5460  0.5530 -1.1831
 8463TIP3    H246881   2.017   1.576  13.903  0.4859 -0.9173 -1.0430
 8464TIP3   OH246882   6.713   6.497  13.696 -0.2134  0.2860 -0.2595
 8464TIP3    H146883   6.781   6.453  13.746 -0.4623 -1.7383 -1.5783
 8464TIP3    H246884   6.707   6.448  13.614 -2.7566  0.8192 -0.4972
 8465TIP3   OH246885   1.274   0.025  14.364  0.2205  0.3525 -0.0420
 8465TIP3    H146886   1.352   0.071  14.333 -2.0941  2.6937 -3.0480
 8465TIP3    H246887   1.252  -0.034  14.293 -1.4014  0.6590  0.1825
 8466TIP3   OH246888   3.679   3.479   2.282 -0.2644 -0.1359  0.7777
 8466TIP3    H146889   3.712   3.490   2.192 -2.3594  0.5552  0.0378
 8466TIP3    H246890   3.751   3.434   2.328  0.9865 -0.2499 -1.1460
 8467TIP3   OH246891   5.243   3.993   2.354  0.6177 -0.1417 -0.0839
 8467TIP3    H146892   5.191   4.046   2.414  1.9527  0.1815  0.8255
 8467TIP3    H246893   5.296   3.938   2.411  1.9366  0.1929 -0.9602
 8468TIP3   OH246894   6.632   1.632   2.906  0.3981 -0.2631  0.1220
 8468TIP3    H146895   6.712   1.680   2.886  0.2732  0.1703  0.6294
 8468TIP3    H246896   6.591   1.682   2.977  0.6543 -1.5171  1.2135
 8469TIP3   OH246897   3.610   5.155   2.072 -0.4481 -0.1788  0.4343
 8469TIP3    H146898   3.545   5.193   2.013 -0.5914 -1.2384 -0.1312
 8469TIP3    H246899   3.675   5.223   2.084 -0.4585  0.0881 -0.8932
 8470TIP3   OH246900   3.508   5.667   5.218  0.1357 -0.4859 -0.0987
 8470TIP3    H146901   3.485   5.732   5.285  1.7613 -0.4778  0.4923
 8470TIP3    H246902   3.424   5.641   5.181 -0.6733  0.8338  0.7003
 8471TIP3   OH246903   1.489   0.815   5.853 -0.6473 -0.0632  0.1097
 8471TIP3    H146904   1.583   0.813   5.872 -0.5470 -0.8234 -0.4375
 8471TIP3    H246905   1.447   0.783   5.933 -0.5485  1.6145  0.8838
 8472TIP3   OH246906   1.194   4.270   5.558  0.5785  0.1102  0.1456
 8472TIP3    H146907   1.163   4.284   5.647  1.4948  1.0852  0.3415
 8472TIP3    H246908   1.153   4.189   5.530 -1.5645  0.9507  0.6244
 8473TIP3   OH246909   1.027   3.060   0.104 -0.3486  0.4159 -0.0408
 8473TIP3    H146910   1.074   3.046   0.021 -0.0678 -0.2707  0.2242
 8473TIP3    H246911   1.096   3.067   0.169 -0.5566  1.3696  0.0857
 8474TIP3   OH246912   5.608   1.379  11.401  0.0877  0.2548  0.3621
 8474TIP3    H146913   5.588   1.290  11.372  3.2049  0.1808 -1.9571
 8474TIP3    H246914   5.618   1.370  11.496 -2.5789 -1.1518  0.6332
 8475TIP3   OH246915   1.339   0.262  15.860 -0.0583 -0.3954  0.0205
 8475TIP3    H146916   1.404   0.192  15.868 -0.8982 -1.2137 -0.1123
 8475TIP3    H246917   1.334   0.301  15.948 -1.1187 -1.9334  0.6880
 8476TIP3   OH246918   4.643   0.970   0.643 -0.3595  0.0186  0.2743
 8476TIP3    H146919   4.716   1.029   0.625 -1.0437  0.6507 -0.5285
 8476TIP3    H246920   4.624   0.984   0.736 -0.3742  0.9136  0.1453
 8477TIP3   OH246921   4.888   0.027   4.973 -0.0653  0.5758  0.1109
 8477TIP3    H146922   4.865  -0.051   4.924  1.0654 -0.1449  0.6776
 8477TIP3    H246923   4.957   0.068   4.921  1.0593 -0.1319  1.0022
 8478TIP3   OH246924   6.048   1.152  13.436  0.3100 -0.2804 -0.1076
 8478TIP3    H146925   6.107   1.102  13.380 -0.7108 -1.4848 -0.1479
 8478TIP3    H246926   5.963   1.145  13.394 -0.3722 -0.7308  1.2701
 8479TIP3   OH246927   1.425   3.891   4.123  0.0971  0.3774 -0.6638
 8479TIP3    H146928   1.434   3.928   4.035  0.7344 -2.0475 -1.6935
 8479TIP3    H246929   1.339   3.850   4.124  0.8375 -1.2554 -0.8743
 8480TIP3   OH246930   0.803   6.692  15.206  0.2800  0.9548  0.3345
 8480TIP3    H146931   0.752   6.625  15.159  0.5360 -1.1413  2.8536
 8480TIP3    H246932   0.894   6.673  15.181  0.3605  0.2555  1.1136
 8481TIP3   OH246933   2.963   4.594   5.485 -0.2792  0.4218 -0.0375
 8481TIP3    H146934   3.014   4.554   5.414  0.9953 -0.2904  1.2353
 8481TIP3    H246935   3.017   4.667   5.514 -1.6579  1.8794 -0.9838
 8482TIP3   OH246936   3.792   4.477  11.331 -0.2401  0.0767 -0.0805
 8482TIP3    H146937   3.810   4.463  11.238  0.2251 -1.4203  0.1964
 8482TIP3    H246938   3.816   4.568  11.348  1.4026 -0.1559 -1.0376
 8483TIP3   OH246939   4.970   5.494  16.976  0.8385 -0.2907 -0.9508
 8483TIP3    H146940   4.951   5.421  17.035 -1.0046  1.1184  0.3228
 8483TIP3    H246941   4.957   5.458  16.888 -1.2885 -1.2158 -0.3229
 8484TIP3   OH246942   5.013   5.498  13.247  0.3457 -0.9299 -0.4566
 8484TIP3    H146943   5.075   5.561  13.209  0.0022 -0.9570 -1.0731
 8484TIP3    H246944   5.068   5.436  13.294  0.7062 -0.2903 -0.0121
 8485TIP3   OH246945   0.424   1.388   1.675  0.3935  0.6653  0.4471
 8485TIP3    H146946   0.434   1.481   1.695  1.2473  1.0681 -1.6603
 8485TIP3    H246947   0.346   1.362   1.725 -1.4293  3.1452 -0.8867
 8486TIP3   OH246948   4.231   5.597   3.967 -0.1050  0.0533  0.6460
 8486TIP3    H146949   4.215   5.568   3.877 -0.3655  1.3050  0.2762
 8486TIP3    H246950   4.305   5.657   3.960 -0.9706  1.2072  1.0498
 8487TIP3   OH246951   0.953   0.772  12.170 -0.0495  0.0162  0.2112
 8487TIP3    H146952   0.893   0.745  12.101 -0.7047 -1.3421  1.2444
 8487TIP3    H246953   1.041   0.760  12.132 -0.3481 -2.1655  0.0444
 8488TIP3   OH246954   6.119   4.481   0.028  0.2573  0.9029  0.3431
 8488TIP3    H146955   6.172   4.560   0.035  1.2415  0.2202  0.9071
 8488TIP3    H246956   6.155   4.434  -0.047  0.4356  0.4671  0.6908
 8489TIP3   OH246957   0.029   1.122   4.844  0.3081 -0.3549  0.0642
 8489TIP3    H146958   0.118   1.145   4.869  0.2247  0.9810 -0.7775
 8489TIP3    H246959  -0.026   1.166   4.908  0.2132  0.2044 -0.3918
 8490TIP3   OH246960   1.860   1.276   2.694 -0.1092  0.3865  0.1675
 8490TIP3    H146961   1.805   1.199   2.710  0.3691  0.4438  2.4969
 8490TIP3    H246962   1.899   1.295   2.780 -0.5211  3.4682 -0.2153
 8491TIP3   OH246963   4.660   4.082  12.682 -0.1034 -0.4031  0.2853
 8491TIP3    H146964   4.611   4.096  12.764  5.1043  2.7581  3.4562
 8491TIP3    H246965   4.653   4.165  12.635 -0.8071 -1.2605 -1.1915
 8492TIP3   OH246966   0.893   6.480  12.144  0.1572 -0.0207 -0.2736
 8492TIP3    H146967   0.913   6.522  12.061 -1.1453  1.3960  0.0929
 8492TIP3    H246968   0.973   6.490  12.196  1.0210 -1.0037 -1.3388
 8493TIP3   OH246969   0.147   4.387   5.453  0.2682 -0.4149  0.4318
 8493TIP3    H146970   0.177   4.471   5.418  2.1792 -1.9182 -1.8133
 8493TIP3    H246971   0.210   4.366   5.522  0.9444 -0.8786 -0.3197
 8494TIP3   OH246972   0.236   4.154   6.008  0.1206 -0.6540  0.5240
 8494TIP3    H146973   0.167   4.135   5.945  1.3228  0.5148 -1.2556
 8494TIP3    H246974   0.211   4.106   6.087 -2.5129 -0.5369 -0.1472
 8495TIP3   OH246975   3.494   0.904   5.768  0.1051  1.0703 -0.1050
 8495TIP3    H146976   3.485   0.966   5.696  0.6355  0.6046 -0.5858
 8495TIP3    H246977   3.404   0.884   5.793 -0.0817  1.4474 -0.4550
 8496TIP3   OH246978   6.056   2.417  14.724  0.2066  0.1672 -0.3461
 8496TIP3    H146979   6.079   2.479  14.793 -0.5350  0.8141 -0.6702
 8496TIP3    H246980   6.042   2.471  14.646  3.3153 -0.7251 -1.6612
 8497TIP3   OH246981   2.556   1.612  15.947 -0.2965  0.7741 -0.6864
 8497TIP3    H146982   2.600   1.547  16.001  0.6430  0.2387 -2.0472
 8497TIP3    H246983   2.514   1.671  16.010  1.4926  0.6954  0.6504
 8498TIP3   OH246984   4.521   4.360   5.899  0.0342  0.1017 -0.5892
 8498TIP3    H146985   4.440   4.309   5.900  0.9235 -1.5366 -2.6070
 8498TIP3    H246986   4.493   4.450   5.918 -1.9989 -0.6467  0.3126
 8499TIP3   OH246987   2.949   5.442   1.717 -0.3936 -0.4310  0.5249
 8499TIP3    H146988   2.901   5.504   1.771  0.9500  0.0566  1.2265
 8499TIP3    H246989   2.995   5.496   1.653 -0.9622 -0.9018 -0.2983
 8500TIP3   OH246990   3.646   0.773  16.376  0.0338  0.1305  0.0372
 8500TIP3    H146991   3.619   0.683  16.396  1.3012 -0.2250  0.2331
 8500TIP3    H246992   3.697   0.800  16.452 -0.9448  1.3000  0.3050
 8501TIP3   OH246993   2.527   3.877  13.724 -0.1985 -0.3521  0.1006
 8501TIP3    H146994   2.474   3.951  13.694  0.8282 -0.0625 -1.0975
 8501TIP3    H246995   2.477   3.840  13.796 -1.3770  0.7109 -0.1219
 8502TIP3   OH246996   0.249   5.139  13.499 -0.0581 -0.4286  0.4114
 8502TIP3    H146997   0.282   5.111  13.414  2.8610  0.8288  1.0051
 8502TIP3    H246998   0.298   5.086  13.563  2.6944  2.9502  1.4084
 8503TIP3   OH246999   3.576   0.122  14.312 -0.4025 -0.0699 -0.1688
 8503TIP3    H147000   3.522   0.083  14.381 -0.5210  2.0947  1.0601
 8503TIP3    H247001   3.560   0.216  14.319  2.1644  0.5149 -0.9302
 8504TIP3   OH247002   2.070   0.693  10.311 -0.0659 -0.0226  0.1766
 8504TIP3    H147003   2.053   0.781  10.344  0.0810  1.7317 -3.8718
 8504TIP3    H247004   1.983   0.656  10.294 -0.1036 -0.3769  1.0594
 8505TIP3   OH247005   5.238   3.705   1.415  0.5468 -0.2373  0.3326
 8505TIP3    H147006   5.255   3.611   1.409  0.2042 -0.2904  0.1391
 8505TIP3    H247007   5.308   3.745   1.363  0.0244 -0.4603 -0.5592
 8506TIP3   OH247008   3.102   2.720   2.515  0.3224  0.0503  0.6064
 8506TIP3    H147009   3.089   2.731   2.609 -1.2656 -0.2622  0.4515
 8506TIP3    H247010   3.183   2.669   2.508 -1.3995 -3.2296  2.0435
 8507TIP3   OH247011   5.975   5.321  17.128 -0.3208  0.6482  0.4816
 8507TIP3    H147012   6.042   5.256  17.107  0.1653  1.1155  0.5508
 8507TIP3    H247013   5.907   5.271  17.174  0.8689  0.4726  2.1506
 8508TIP3   OH247014   4.475   5.014  12.639 -0.7900  0.5079  0.2112
 8508TIP3    H147015   4.546   4.962  12.602 -1.0313  0.4728 -0.2078
 8508TIP3    H247016   4.444   5.069  12.566 -0.3078  1.4963  0.7302
 8509TIP3   OH247017   2.115   0.913  10.793 -0.1590 -0.4628  0.7199
 8509TIP3    H147018   2.127   0.828  10.750  1.9988  0.0451  0.2110
 8509TIP3    H247019   2.145   0.977  10.729 -1.2715  0.6871  1.2916
 8510TIP3   OH247020   1.797   0.374   3.921 -0.3271  0.5847 -0.3104
 8510TIP3    H147021   1.880   0.396   3.879 -0.7065  0.8667 -0.9230
 8510TIP3    H247022   1.746   0.454   3.918 -0.4728  0.5284  0.4422
 8511TIP3   OH247023   0.425   3.505   4.288  0.3604 -0.2459 -0.0307
 8511TIP3    H147024   0.491   3.503   4.358 -0.8763  0.9996  1.2526
 8511TIP3    H247025   0.417   3.597   4.266 -2.6567  0.0147  1.6335
 8512TIP3   OH247026   5.217   3.080   3.157 -0.2143 -0.2824 -0.0868
 8512TIP3    H147027   5.155   3.026   3.109  1.0771 -1.0367 -0.9603
 8512TIP3    H247028   5.247   3.023   3.229  0.8284 -0.6196 -0.7602
 8513TIP3   OH247029   5.732   1.531  13.219 -0.3514 -0.6333  0.1433
 8513TIP3    H147030   5.667   1.520  13.149 -0.3975 -1.2778  0.2811
 8513TIP3    H247031   5.747   1.625  13.223 -0.7881 -0.5382 -0.3392
 8514TIP3   OH247032   3.964   6.528  14.708  0.5619  0.1907 -1.3609
 8514TIP3    H147033   3.975   6.623  14.711 -0.7558  0.3472  0.5241
 8514TIP3    H247034   3.870   6.514  14.719  0.6231 -1.3375 -2.4254
 8515TIP3   OH247035   3.065   1.481   2.672  0.1828 -0.3091  0.3069
 8515TIP3    H147036   3.153   1.447   2.684  0.0509 -0.3124  1.3139
 8515TIP3    H247037   3.071   1.535   2.593  1.0852 -0.2926  0.3762
 8516TIP3   OH247038   4.369   0.727   4.836 -0.6730 -0.7060 -0.0308
 8516TIP3    H147039   4.301   0.783   4.873  0.8077 -1.0036  3.6079
 8516TIP3    H247040   4.328   0.641   4.828 -0.8645 -0.8469  1.9701
 8517TIP3   OH247041   6.084   0.745  16.904  0.6948  0.4113 -0.2697
 8517TIP3    H147042   6.077   0.667  16.958 -0.9078  0.1469 -0.7916
 8517TIP3    H247043   6.156   0.726  16.843 -1.4512 -1.9630 -2.3165
 8518TIP3   OH247044   2.274   3.580  15.571 -0.0963  0.4848 -0.1916
 8518TIP3    H147045   2.245   3.632  15.497 -1.1708  0.4828  0.2131
 8518TIP3    H247046   2.240   3.492  15.553 -0.1030  0.4153  0.1574
 8519TIP3   OH247047   2.138   3.158  11.721 -0.6347  0.2248  0.7150
 8519TIP3    H147048   2.060   3.201  11.688 -1.0610 -0.2479  1.0883
 8519TIP3    H247049   2.189   3.228  11.763 -1.0916  0.4423  0.9071
 8520TIP3   OH247050   4.480   6.644   1.561  0.1898  0.6748  0.2579
 8520TIP3    H147051   4.512   6.711   1.500  0.6130 -0.5992 -0.9938
 8520TIP3    H247052   4.385   6.652   1.558  0.2552  1.6353  0.6152
 8521TIP3   OH247053   4.049   2.440  15.748  0.0764 -0.4353 -0.6762
 8521TIP3    H147054   4.053   2.529  15.784  0.0211  0.3419 -2.4956
 8521TIP3    H247055   3.958   2.428  15.723  0.1594 -0.8702 -0.7750
 8522TIP3   OH247056   6.210   4.234  14.417 -0.4276 -0.1794  0.3266
 8522TIP3    H147057   6.125   4.199  14.389 -0.6447 -0.2628  1.0741
 8522TIP3    H247058   6.192   4.279  14.500  0.5629 -1.6919  1.4168
 8523TIP3   OH247059   6.218   6.783   4.350  0.0124 -0.3129 -0.2892
 8523TIP3    H147060   6.306   6.768   4.383  1.2237 -0.4453 -3.2332
 8523TIP3    H247061   6.181   6.696   4.338 -0.0258 -0.3014 -0.2520
 8524TIP3   OH247062   3.980   3.515   3.303 -1.0497 -0.2541  0.5875
 8524TIP3    H147063   3.936   3.532   3.219  0.4503 -1.2309 -0.4655
 8524TIP3    H247064   3.920   3.548   3.369 -3.0202 -0.8848 -0.7897
 8525TIP3   OH247065   2.908   0.516  16.297 -0.5053  0.1398  0.3792
 8525TIP3    H147066   2.908   0.589  16.235 -2.0857  0.1008  0.2812
 8525TIP3    H247067   2.815   0.497  16.311 -0.2059 -0.0015  2.5879
 8526TIP3   OH247068   4.121   4.021   1.905 -0.3583  0.1585 -0.3767
 8526TIP3    H147069   4.056   4.091   1.896  0.0502  0.3915 -1.6795
 8526TIP3    H247070   4.205   4.064   1.888  0.0835 -0.2868  0.5980
 8527TIP3   OH247071   5.956   0.045   2.917 -0.6796 -0.0608 -0.0639
 8527TIP3    H147072   5.870   0.026   2.881 -1.0808  1.3567  0.0700
 8527TIP3    H247073   6.010   0.067   2.841 -0.1283 -1.8907 -0.2527
 8528TIP3   OH247074   5.822   2.850   3.533  0.4691 -0.0905  0.1552
 8528TIP3    H147075   5.749   2.843   3.470 -0.6931 -3.0386  1.6664
 8528TIP3    H247076   5.810   2.936   3.572 -2.1617 -0.3852  0.2088
 8529TIP3   OH247077   2.964   4.941  11.418  0.0622  0.0759  0.4431
 8529TIP3    H147078   3.023   4.981  11.353 -1.7219 -0.4139 -1.6117
 8529TIP3    H247079   2.981   4.989  11.498  1.5431  1.5546 -0.6797
 8530TIP3   OH247080   4.008   4.838  13.587 -0.3898 -0.2136  0.5276
 8530TIP3    H147081   3.956   4.797  13.656 -0.8011  0.3325  0.5433
 8530TIP3    H247082   4.017   4.770  13.520 -0.5528 -0.5245  0.8142
 8531TIP3   OH247083   6.808   5.300  11.992  0.0528 -0.5708 -0.3774
 8531TIP3    H147084   6.879   5.341  12.042  0.2076 -0.6567 -0.5264
 8531TIP3    H247085   6.850   5.267  11.913 -0.6352  2.0248 -1.9624
 8532TIP3   OH247086   5.525   1.286  12.183  0.0507 -0.1433 -0.6069
 8532TIP3    H147087   5.581   1.229  12.236  3.6286 -0.2099 -3.9922
 8532TIP3    H247088   5.523   1.244  12.097 -1.9322  2.0389 -1.7240
 8533TIP3   OH247089   6.725   1.289   5.971  0.0613 -0.6507 -0.0584
 8533TIP3    H147090   6.730   1.319   5.880  1.7271 -1.6149 -0.3342
 8533TIP3    H247091   6.687   1.362   6.019  2.0239  1.1203 -1.0414
 8534TIP3   OH247092   0.803   5.475   5.790 -0.2546  0.1606 -0.1979
 8534TIP3    H147093   0.840   5.389   5.811 -0.2414  0.5205  1.3535
 8534TIP3    H247094   0.765   5.463   5.703  0.7667 -1.0802 -0.5105
 8535TIP3   OH247095   2.977   5.548   6.428 -0.3180 -0.1198 -0.0798
 8535TIP3    H147096   2.891   5.556   6.386  0.2467 -0.1673 -1.2982
 8535TIP3    H247097   2.990   5.453   6.437  0.1196 -0.1610 -1.0350
 8536TIP3   OH247098   0.337   5.347   3.984  0.0834  0.1566 -0.2524
 8536TIP3    H147099   0.242   5.358   3.978 -0.1028 -1.1949 -0.0858
 8536TIP3    H247100   0.365   5.337   3.893 -0.2756 -1.7544 -0.2047
 8537TIP3   OH247101   5.285   2.422   4.317 -0.4072 -0.1815 -0.0746
 8537TIP3    H147102   5.268   2.464   4.233 -1.5718 -3.3614 -1.5811
 8537TIP3    H247103   5.361   2.367   4.301 -0.8268 -1.0550  0.8239
 8538TIP3   OH247104   2.240   4.185  14.763  0.8681 -0.0790 -0.2123
 8538TIP3    H147105   2.336   4.187  14.765  0.8662  0.2441  1.4941
 8538TIP3    H247106   2.214   4.277  14.764  0.5910 -0.1176  2.3355
 8539TIP3   OH247107   2.269   5.201  14.381  0.0684  0.4082 -0.0697
 8539TIP3    H147108   2.271   5.184  14.476  0.0077  2.5623  0.3697
 8539TIP3    H247109   2.205   5.271  14.370  1.1826  1.2788 -1.4802
 8540TIP3   OH247110   6.191   1.102   5.048  0.4720 -0.0046 -0.2955
 8540TIP3    H147111   6.140   1.022   5.055 -0.2008  0.3956 -0.5512
 8540TIP3    H247112   6.282   1.074   5.059  0.1219 -0.5155  1.8704
 8541TIP3   OH247113   0.994   1.058  13.965 -0.6768 -0.1819  0.5404
 8541TIP3    H147114   1.061   1.094  14.023  0.1745 -1.2948  0.2916
 8541TIP3    H247115   0.965   1.132  13.912 -0.3842  0.5289  1.3468
 8542TIP3   OH247116   5.685   4.652   3.436  0.5433 -0.1921  0.4213
 8542TIP3    H147117   5.624   4.656   3.362 -1.5176 -0.6508  1.9864
 8542TIP3    H247118   5.698   4.744   3.461 -1.0113 -0.1437  1.1736
 8543TIP3   OH247119   0.351   2.512   6.574 -0.1333 -0.4091 -0.1964
 8543TIP3    H147120   0.443   2.537   6.579 -0.3296  0.4303 -0.7062
 8543TIP3    H247121   0.332   2.509   6.481 -0.8207  0.1401 -0.0775
 8544TIP3   OH247122   4.250   4.347  11.969  0.2276 -0.5905 -0.3863
 8544TIP3    H147123   4.184   4.334  12.037  1.8141 -2.0214  0.9537
 8544TIP3    H247124   4.208   4.313  11.889 -0.9211 -0.7839  0.2700
 8545TIP3   OH247125   5.561   3.940   4.153 -0.6105  0.0283 -0.0411
 8545TIP3    H147126   5.573   3.949   4.058  0.0065  1.1115  0.1162
 8545TIP3    H247127   5.650   3.936   4.187 -0.7887  1.1315  0.6019
 8546TIP3   OH247128   0.811   5.595   2.915  0.2857  0.5885  0.1118
 8546TIP3    H147129   0.766   5.678   2.895 -0.0396  0.0315 -1.5829
 8546TIP3    H247130   0.744   5.542   2.959 -0.9798 -0.3914 -2.7519
 8547TIP3   OH247131   2.214   1.858   4.787  0.0383  0.3132  0.0686
 8547TIP3    H147132   2.290   1.878   4.842  0.0813  0.2068  0.0480
 8547TIP3    H247133   2.250   1.846   4.699 -0.1606  1.5845 -0.2114
 8548TIP3   OH247134   4.034   6.004   1.092  0.2593 -0.3137 -0.0395
 8548TIP3    H147135   4.043   6.097   1.071  0.0797 -0.1759  0.4882
 8548TIP3    H247136   4.031   5.960   1.006 -1.0891  0.2869 -0.3236
 8549TIP3   OH247137   0.710   3.091  11.475  0.6687 -0.1798  0.4266
 8549TIP3    H147138   0.627   3.055  11.443  0.8422  0.3000 -0.5948
 8549TIP3    H247139   0.757   3.117  11.396  0.6997  1.9704  1.0781
 8550TIP3   OH247140   3.876   4.801   2.956 -0.3774 -0.1382  0.7236
 8550TIP3    H147141   3.807   4.849   3.002 -0.3588  0.5811  0.0123
 8550TIP3    H247142   3.852   4.709   2.967 -1.9778  0.1111 -0.2978
 8551TIP3   OH247143   4.478   1.018  16.719 -0.8349  0.0435  0.3618
 8551TIP3    H147144   4.478   1.092  16.780 -0.6418  0.5520 -0.2431
 8551TIP3    H247145   4.446   0.944  16.771 -1.4107  0.6379  0.8702
 8552TIP3   OH247146   2.730   4.026  13.501  0.5012  0.1415 -0.0500
 8552TIP3    H147147   2.812   3.977  13.497 -0.1422 -1.1944  1.9862
 8552TIP3    H247148   2.741   4.086  13.575  0.2192  1.1481 -0.7914
 8553TIP3   OH247149   4.496   3.099  12.936 -0.6571  0.4477 -0.1852
 8553TIP3    H147150   4.401   3.101  12.932 -0.6370  1.8270 -0.6655
 8553TIP3    H247151   4.522   3.191  12.929  0.6997  0.1175  0.2316
 8554TIP3   OH247152   6.443   1.603  15.359  0.0449  0.6716  0.3341
 8554TIP3    H147153   6.487   1.534  15.309  2.5228  1.1644  1.6681
 8554TIP3    H247154   6.387   1.647  15.294  0.3951 -0.9257 -1.1325
 8555TIP3   OH247155   1.923   3.196  12.185  0.3877 -0.1109  0.1155
 8555TIP3    H147156   1.986   3.143  12.137 -0.0611 -1.0712  0.5685
 8555TIP3    H247157   1.975   3.268  12.221  0.7668  0.5337 -1.6327
 8556TIP3   OH247158   1.572   2.224   0.932  0.6101  0.1536 -0.4990
 8556TIP3    H147159   1.477   2.232   0.926  0.6034  0.9891  0.4237
 8556TIP3    H247160   1.588   2.131   0.945 -0.1930  0.1496  0.6722
 8557TIP3   OH247161   2.226   6.506  16.166  0.0398  0.8679  0.4565
 8557TIP3    H147162   2.279   6.441  16.119 -1.4642  0.0524 -0.2131
 8557TIP3    H247163   2.279   6.531  16.241  0.6347 -1.2433  0.8050
 8558TIP3   OH247164   6.032   5.355  13.024  0.1502 -0.8784 -0.7690
 8558TIP3    H147165   6.044   5.263  13.047 -0.3829 -0.4850  1.2638
 8558TIP3    H247166   6.081   5.403  13.090 -0.1500  0.3274 -1.3836
 8559TIP3   OH247167   5.196   2.912   4.603 -0.2489  0.8266 -0.2183
 8559TIP3    H147168   5.288   2.936   4.616 -0.1572 -0.4269  1.9918
 8559TIP3    H247169   5.190   2.887   4.511  2.0735 -0.7276 -0.0371
 8560TIP3   OH247170   4.076   1.834   3.901  0.3295 -0.0969 -0.6698
 8560TIP3    H147171   3.994   1.825   3.949  0.6846 -0.1273 -0.0604
 8560TIP3    H247172   4.142   1.852   3.969  1.1045 -1.6401 -0.9587
 8561TIP3   OH247173   2.294   3.164  16.578 -0.0171  0.0451  0.4282
 8561TIP3    H147174   2.354   3.237  16.596  1.0659 -0.6680 -0.1555
 8561TIP3    H247175   2.327   3.092  16.631  0.5852 -0.8016 -1.0461
 8562TIP3   OH247176   4.069   3.252   6.467 -0.0585  0.6277  1.0005
 8562TIP3    H147177   4.063   3.186   6.397  1.4430 -0.1122  1.5165
 8562TIP3    H247178   4.038   3.206   6.545  1.6710  0.2458  1.5073
 8563TIP3   OH247179   1.716   5.308   2.305 -0.5180  0.3861  0.0168
 8563TIP3    H147180   1.791   5.284   2.250 -0.2851  2.9956 -0.9629
 8563TIP3    H247181   1.742   5.390   2.346 -3.0051  1.6962 -0.8183
 8564TIP3   OH247182   3.606   2.104  12.929 -0.0628  0.2989 -0.1147
 8564TIP3    H147183   3.550   2.103  12.851  1.3626  0.3171 -1.1852
 8564TIP3    H247184   3.676   2.042  12.909  1.1309  1.3966  0.5241
 8565TIP3   OH247185   6.725   3.700  13.753 -0.0504  0.0158 -0.3143
 8565TIP3    H147186   6.674   3.663  13.681  1.1906 -0.2115 -1.1215
 8565TIP3    H247187   6.792   3.753  13.709  0.1440  0.6584  0.7209
 8566TIP3   OH247188   6.230   1.757   0.453  0.3135 -0.2102  0.0676
 8566TIP3    H147189   6.250   1.837   0.500 -0.0031 -0.1143  0.0376
 8566TIP3    H247190   6.141   1.769   0.420  0.7472 -0.0114 -1.0887
 8567TIP3   OH247191   3.315   0.625   3.521  0.1003 -0.0700  0.5840
 8567TIP3    H147192   3.385   0.563   3.539 -0.6268 -0.7538  1.1607
 8567TIP3    H247193   3.245   0.600   3.582  0.0261  1.7303  1.3127
 8568TIP3   OH247194   3.151   1.484  12.774 -0.1069 -0.1351 -0.3685
 8568TIP3    H147195   3.098   1.464  12.851  0.1984  1.7577  0.3771
 8568TIP3    H247196   3.108   1.559  12.733  0.6128 -0.1297 -1.1481
 8569TIP3   OH247197   2.182   6.013   0.068  0.3320 -0.3891 -0.1857
 8569TIP3    H147198   2.198   6.050   0.155 -0.5772  1.6871 -0.8455
 8569TIP3    H247199   2.101   5.962   0.078 -0.5611  1.0049 -0.0995
 8570TIP3   OH247200   3.500   6.325   2.996 -0.4237  0.0367 -0.0872
 8570TIP3    H147201   3.509   6.378   2.917 -0.1761 -0.5895 -0.4922
 8570TIP3    H247202   3.496   6.388   3.068 -1.8541  0.6715 -0.6854
 8571TIP3   OH247203   2.308   2.254  12.306  0.5441  0.3852 -0.2161
 8571TIP3    H147204   2.224   2.269  12.262  0.5665  0.1961 -0.3269
 8571TIP3    H247205   2.284   2.208  12.387  0.5855 -0.1864 -0.5223
 8572TIP3   OH247206   5.222   6.528  17.078 -0.4071  0.3063  0.0077
 8572TIP3    H147207   5.177   6.527  16.993  0.5336 -2.4879 -0.5804
 8572TIP3    H247208   5.270   6.610  17.079 -1.2356  0.8726 -1.7029
 8573TIP3   OH247209   5.085   1.640  13.890 -0.0154 -1.0359  0.2277
 8573TIP3    H147210   5.016   1.706  13.896 -0.1872 -1.0760 -1.0303
 8573TIP3    H247211   5.163   1.689  13.864  0.4674 -0.9800  1.7193
 8574TIP3   OH247212   5.471   5.987  16.058  0.0508  0.1990  0.2226
 8574TIP3    H147213   5.515   6.024  15.981  0.0740  0.0748  0.1766
 8574TIP3    H247214   5.409   5.924  16.022 -0.8774  1.0822  0.2238
 8575TIP3   OH247215   1.960   4.333   5.314 -0.1250  0.3804 -0.0335
 8575TIP3    H147216   2.033   4.272   5.324 -0.4047 -0.0129 -0.3974
 8575TIP3    H247217   1.951   4.373   5.400  1.2669  1.2782 -0.2610
 8576TIP3   OH247218   0.989   5.809   0.118 -0.5966  0.3596 -0.6802
 8576TIP3    H147219   0.952   5.722   0.102 -4.2951  2.1152 -2.9026
 8576TIP3    H247220   1.047   5.823   0.043  2.2306 -1.0518  1.0599
 8577TIP3   OH247221   4.691   2.811   5.343  0.2490  0.3553 -0.6112
 8577TIP3    H147222   4.690   2.757   5.422 -0.0428  1.5137  0.2033
 8577TIP3    H247223   4.676   2.749   5.272  0.0847 -0.6584  0.2734
 8578TIP3   OH247224   6.121   5.989   3.428  0.1191 -0.4644  0.0080
 8578TIP3    H147225   6.110   6.083   3.443 -0.7803 -1.0010  3.7213
 8578TIP3    H247226   6.211   5.971   3.455  0.4669 -0.6125 -1.2191
 8579TIP3   OH247227   5.456   3.416   1.984  0.2381 -0.7971 -0.0913
 8579TIP3    H147228   5.425   3.353   1.919  1.1772 -3.3928  1.8142
 8579TIP3    H247229   5.379   3.468   2.006 -0.2809 -0.3757 -2.6047
 8580TIP3   OH247230   3.220   2.292  13.169  0.4491 -0.2893 -0.5607
 8580TIP3    H147231   3.190   2.203  13.189  2.0992 -0.5347  1.2183
 8580TIP3    H247232   3.314   2.282  13.150  0.2176  0.8296 -2.5661
 8581TIP3   OH247233   4.248   5.453   2.654  0.1398 -0.0333 -0.1337
 8581TIP3    H147234   4.275   5.414   2.571  1.7081  0.5492  0.0624
 8581TIP3    H247235   4.326   5.500   2.685 -0.3356 -0.3985  1.7619
 8582TIP3   OH247236   6.696   4.985  14.254  0.0662 -0.9884  0.2062
 8582TIP3    H147237   6.717   4.895  14.230 -3.0373 -1.9213  0.6278
 8582TIP3    H247238   6.601   4.993  14.242  0.3788  2.7470 -1.3966
 8583TIP3   OH247239   6.242   2.631   1.567  0.7996  0.0559 -0.0305
 8583TIP3    H147240   6.215   2.715   1.530  1.7239  0.1718 -0.4431
 8583TIP3    H247241   6.162   2.597   1.608 -0.0096  0.3403 -1.3301
 8584TIP3   OH247242   4.978   3.059   5.474  0.8687  0.4988  0.2072
 8584TIP3    H147243   4.916   3.102   5.415  1.5167 -1.7830 -2.3219
 8584TIP3    H247244   5.064   3.086   5.442  1.2336  0.0455  0.7814
 8585TIP3   OH247245   6.715   3.736  12.234 -0.0823  0.2755  0.0508
 8585TIP3    H147246   6.697   3.739  12.140 -1.4890  0.5174  0.2933
 8585TIP3    H247247   6.808   3.755  12.242  0.2333 -0.5989 -1.3457
 8586TIP3   OH247248   1.224   5.300  12.186 -0.1127  0.3722  1.1173
 8586TIP3    H147249   1.203   5.278  12.096  1.0172  1.3040  0.5989
 8586TIP3    H247250   1.147   5.274  12.236 -0.7566 -0.1536 -0.1079
 8587TIP3   OH247251   0.690   3.509  14.609 -0.5094  0.3958  0.1331
 8587TIP3    H147252   0.651   3.462  14.682  0.5777 -0.2768  0.3069
 8587TIP3    H247253   0.675   3.452  14.533  0.1063  0.1405  0.1990
 8588TIP3   OH247254   2.630   2.373   0.496 -0.0829 -0.3326  0.3984
 8588TIP3    H147255   2.554   2.336   0.451  0.5378 -1.5591  0.3138
 8588TIP3    H247256   2.601   2.460   0.525 -1.4683 -0.7385  0.2907
 8589TIP3   OH247257   0.981   3.234  12.182 -0.4229  0.0139  0.3098
 8589TIP3    H147258   0.948   3.216  12.094  1.2255 -1.5485 -0.0406
 8589TIP3    H247259   1.053   3.295  12.170  0.4834 -1.0074  0.4388
 8590TIP3   OH247260   5.906   6.013  15.990  0.1171  0.0990  0.1220
 8590TIP3    H147261   5.873   5.925  16.008 -2.5337  1.2870  1.7683
 8590TIP3    H247262   5.832   6.059  15.952  1.1276  1.9028  0.2146
 8591TIP3   OH247263   4.845   3.859   0.049  0.1579 -0.7534 -0.6607
 8591TIP3    H147264   4.857   3.857  -0.046 -0.3961 -0.5350 -0.7370
 8591TIP3    H247265   4.839   3.952   0.071 -0.6812 -0.8210 -0.5468
 8592TIP3   OH247266   2.705   3.728   1.151 -0.1132 -0.4484 -0.9270
 8592TIP3    H147267   2.634   3.789   1.130 -0.4837  0.1167  1.6183
 8592TIP3    H247268   2.688   3.702   1.242  2.1844 -1.3668 -0.6923
 8593TIP3   OH247269   1.406   6.353  15.434  0.2425 -0.4857  0.4583
 8593TIP3    H147270   1.497   6.333  15.452 -0.2245 -1.6846  1.7191
 8593TIP3    H247271   1.360   6.271  15.449 -0.9661 -0.1074 -0.9249
 8594TIP3   OH247272   3.084   3.170   3.329  0.1052 -0.0180 -0.8745
 8594TIP3    H147273   3.014   3.226   3.361  0.8843  1.2606 -1.3225
 8594TIP3    H247274   3.050   3.134   3.247  0.0543  0.7582 -1.1960
 8595TIP3   OH247275   2.296   0.896   1.876  0.6250  0.1270  0.2035
 8595TIP3    H147276   2.310   0.803   1.894 -0.0842 -0.5853 -2.5229
 8595TIP3    H247277   2.223   0.898   1.815  0.0523  2.5824  0.8537
 8596TIP3   OH247278   6.155   1.402   5.630  0.2334 -0.2570  0.3164
 8596TIP3    H147279   6.068   1.379   5.664  0.1131 -2.2381 -1.1831
 8596TIP3    H247280   6.137   1.448   5.548  0.6129  0.5606  0.6772
 8597TIP3   OH247281   3.415   5.865   3.114  0.3770 -0.3577  0.6525
 8597TIP3    H147282   3.418   5.806   3.038 -0.3300 -0.2895  0.5682
 8597TIP3    H247283   3.402   5.806   3.189  0.3825 -0.3616  0.6504
 8598TIP3   OH247284   3.565   0.327  12.804  0.1785 -0.0225 -0.4840
 8598TIP3    H147285   3.585   0.282  12.722  0.2033  0.4745 -0.7609
 8598TIP3    H247286   3.619   0.284  12.870  0.9038  0.2177 -0.9166
 8599TIP3   OH247287   4.376   0.855  14.227 -0.4868 -0.5679 -0.0786
 8599TIP3    H147288   4.342   0.863  14.138  0.9231 -0.3697 -0.6256
 8599TIP3    H247289   4.317   0.792  14.270 -2.1835  0.5868 -0.6077
 8600TIP3   OH247290   2.130   4.433  14.730  0.2937 -0.0837 -0.0362
 8600TIP3    H147291   2.191   4.458  14.660  0.3121  1.5818  0.5203
 8600TIP3    H247292   2.043   4.444  14.691  0.3081  0.6187  0.1175
 8601TIP3   OH247293   5.175   5.916   1.944 -0.2189 -0.4167 -0.3421
 8601TIP3    H147294   5.093   5.963   1.937  0.4295  0.6254 -1.2116
 8601TIP3    H247295   5.178   5.886   2.035 -1.7276 -0.8261 -0.4003
 8602TIP3   OH247296   0.023   0.972  12.854 -0.1148 -0.2396 -0.2841
 8602TIP3    H147297   0.074   1.024  12.792 -0.2354 -1.3148 -1.3283
 8602TIP3    H247298  -0.068   0.991  12.832 -0.2159  1.2534  1.2147
 8603TIP3   OH247299   1.378   5.239   4.758 -0.3314 -0.0220 -0.4628
 8603TIP3    H147300   1.413   5.193   4.835 -0.3977  0.5986 -0.0543
 8603TIP3    H247301   1.345   5.169   4.701 -0.6147 -0.4727  0.2393
 8604TIP3   OH247302   6.540   4.565  14.687 -0.2796  0.4424 -0.7212
 8604TIP3    H147303   6.594   4.592  14.761  0.0456  0.1129 -0.8347
 8604TIP3    H247304   6.533   4.644  14.633 -0.1059  0.5485 -0.5893
 8605TIP3   OH247305   5.111   2.319  15.951  0.3749  0.0809 -0.2836
 8605TIP3    H147306   5.193   2.352  15.989  0.8248 -2.3033  1.0347
 8605TIP3    H247307   5.132   2.229  15.926 -2.0703 -0.8799  0.8778
 8606TIP3   OH247308   3.512   0.280   1.936 -0.1545 -0.1394 -0.4019
 8606TIP3    H147309   3.467   0.356   1.899 -0.0371 -1.1045 -2.6869
 8606TIP3    H247310   3.597   0.279   1.892  0.3603 -0.8590  0.5788
 8607TIP3   OH247311   3.832   2.379  13.502 -0.5186  0.8509 -0.0706
 8607TIP3    H147312   3.898   2.320  13.464 -0.7763  2.2309 -2.9367
 8607TIP3    H247313   3.875   2.416  13.579  0.8182 -0.7006 -0.0225
 8608TIP3   OH247314   4.280   4.566   4.008  0.5785  0.9557 -0.5791
 8608TIP3    H147315   4.307   4.488   3.960 -0.6547  0.2380 -0.1694
 8608TIP3    H247316   4.280   4.539   4.100 -1.5545  0.8332 -0.5527
 8609TIP3   OH247317   5.802   4.252  11.798 -0.3893 -0.3067  0.3686
 8609TIP3    H147318   5.840   4.273  11.883 -1.8347 -0.9604  1.2155
 8609TIP3    H247319   5.821   4.328  11.744 -0.2687  0.5415  1.5603
 8610TIP3   OH247320   0.349   6.619   3.373 -0.0960 -0.3683  0.0830
 8610TIP3    H147321   0.437   6.620   3.411  0.0841  0.5635 -0.3233
 8610TIP3    H247322   0.344   6.699   3.321 -0.9480 -0.7504 -0.4580
 8611TIP3   OH247323   5.373   6.340   1.920 -0.3005 -0.3204 -0.2409
 8611TIP3    H147324   5.412   6.408   1.865 -0.9676  1.1338  1.0149
 8611TIP3    H247325   5.373   6.262   1.865  0.9241  0.5691 -1.5656
 8612TIP3   OH247326   2.076   2.865  16.026  0.2598 -0.2186 -0.0816
 8612TIP3    H147327   2.054   2.958  16.019  1.0236  0.1042  1.3316
 8612TIP3    H247328   2.172   2.864  16.031  0.2010 -0.9261  1.4792
 8613TIP3   OH247329   5.438   4.501  14.888 -0.2031  0.2845  0.3074
 8613TIP3    H147330   5.514   4.560  14.887 -0.1036  0.1728 -0.9458
 8613TIP3    H247331   5.365   4.557  14.860 -0.3762  0.1472  0.4906
 8614TIP3   OH247332   3.471   2.185  15.833  0.4706 -0.0425 -0.4118
 8614TIP3    H147333   3.564   2.163  15.836  0.5304  0.1106 -0.9429
 8614TIP3    H247334   3.468   2.280  15.834  0.1593  0.0335  3.2218
 8615TIP3   OH247335   3.174   3.049  15.840  0.1614 -0.0715  0.1133
 8615TIP3    H147336   3.121   3.092  15.907 -1.5156  2.5775 -2.6839
 8615TIP3    H247337   3.265   3.065  15.868 -0.4313 -0.6915  2.6124
 8616TIP3   OH247338   0.535   6.588  12.474 -0.0750  0.5637  0.2691
 8616TIP3    H147339   0.618   6.600  12.518  0.7461 -0.1134 -1.0173
 8616TIP3    H247340   0.554   6.606  12.382 -1.0417 -0.7717 -0.2302
 8617TIP3   OH247341   3.084   6.597   1.682 -0.4987 -0.0460  0.7076
 8617TIP3    H147342   2.993   6.571   1.687 -0.2506 -1.2173 -0.5541
 8617TIP3    H247343   3.134   6.517   1.697  0.3143  0.3298  0.1432
 8618TIP3   OH247344   2.445   5.687  15.006 -0.0994  0.8652  0.5063
 8618TIP3    H147345   2.375   5.686  14.941 -0.6673 -1.2533  1.0713
 8618TIP3    H247346   2.513   5.631  14.969  0.9825  2.2450  0.3324
 8619TIP3   OH247347   0.197   0.092   3.461 -0.4348 -0.8687 -0.0946
 8619TIP3    H147348   0.163   0.063   3.376  1.0921 -1.8597 -0.4182
 8619TIP3    H247349   0.135   0.058   3.525 -1.4122 -0.4225 -0.7872
 8620TIP3   OH247350   6.092   5.893   2.601 -0.5593  0.3169  0.2925
 8620TIP3    H147351   6.079   5.938   2.684 -1.5365 -1.3963  1.1507
 8620TIP3    H247352   6.119   5.804   2.626 -0.7966 -0.2106 -1.2057
 8621TIP3   OH247353   6.666   3.053   4.375  0.1469 -0.4444  0.7587
 8621TIP3    H147354   6.680   3.025   4.466 -0.3121  1.9648  1.6405
 8621TIP3    H247355   6.751   3.042   4.334  0.8998  0.2551  2.0482
 8622TIP3   OH247356   4.099   0.559   5.600 -0.2742 -0.0117 -0.8351
 8622TIP3    H147357   4.015   0.523   5.569 -0.1754 -0.5937 -0.4387
 8622TIP3    H247358   4.144   0.585   5.519 -0.7757  0.1760 -1.0622
 8623TIP3   OH247359   3.177   3.453  16.138 -0.4966 -0.1312 -0.1387
 8623TIP3    H147360   3.231   3.522  16.177  1.1663 -0.0619 -2.3296
 8623TIP3    H247361   3.241   3.389  16.106 -1.7505 -0.4890 -2.0755
 8624TIP3   OH247362   6.657   2.801  16.764  0.3494  0.4066 -0.0870
 8624TIP3    H147363   6.735   2.809  16.709 -1.2009 -1.6730 -2.8500
 8624TIP3    H247364   6.667   2.717  16.808 -0.3978 -0.0018 -0.6657
 8625TIP3   OH247365   2.036   0.683  15.427  0.6965 -0.5205 -0.5987
 8625TIP3    H147366   2.013   0.762  15.380  1.4714  0.6406  0.8652
 8625TIP3    H247367   1.985   0.614  15.386 -0.4545  0.8387 -1.5298
 8626TIP3   OH247368   1.906   1.129   4.091  0.6688  0.1312 -0.0263
 8626TIP3    H147369   1.949   1.074   4.156  1.0480  0.0240 -0.3650
 8626TIP3    H247370   1.967   1.132   4.017 -0.7971 -1.8207 -1.4379
 8627TIP3   OH247371   2.593   1.108  15.539 -0.2615  0.4650 -0.8296
 8627TIP3    H147372   2.637   1.095  15.623 -3.2822  0.0496  0.8064
 8627TIP3    H247373   2.513   1.155  15.561 -1.6470 -0.5385 -3.3359
 8628TIP3   OH247374   1.042   1.914   3.332 -0.0438  0.8401  0.3756
 8628TIP3    H147375   0.971   1.960   3.287 -0.1726  1.7087  1.4320
 8628TIP3    H247376   1.042   1.827   3.293 -1.3375  0.9954 -0.0276
 8629TIP3   OH247377   0.097   0.947  13.137  0.0474  0.0106  0.2606
 8629TIP3    H147378   0.038   1.006  13.184  0.9790  0.4741  0.9083
 8629TIP3    H247379   0.064   0.946  13.048 -2.3455 -1.6435  1.0689
 8630TIP3   OH247380   3.107   0.378  16.433 -0.2354 -0.3203  0.3627
 8630TIP3    H147381   3.058   0.397  16.353 -1.0023 -2.0893  0.3597
 8630TIP3    H247382   3.066   0.298  16.467  1.9668 -1.2435  0.9631
 8631TIP3   OH247383   1.512   0.498   0.182  0.4253 -0.8001  0.4575
 8631TIP3    H147384   1.603   0.507   0.156 -0.0463  2.4854 -0.4030
 8631TIP3    H247385   1.508   0.537   0.269 -0.2861 -0.1967  0.1610
 8632TIP3   OH247386   3.910   2.722   3.681 -0.2146  0.4115 -0.5628
 8632TIP3    H147387   3.900   2.742   3.588  0.3286  0.5421 -0.5964
 8632TIP3    H247388   3.885   2.803   3.726  1.2806  0.9816 -0.6733
 8633TIP3   OH247389   4.410   1.946  15.620  0.2512  0.2516 -0.1367
 8633TIP3    H147390   4.423   1.974  15.710 -2.3650 -1.8114  1.0102
 8633TIP3    H247391   4.331   1.992  15.591 -0.9025 -1.6254 -0.1200
 8634TIP3   OH247392   5.645   2.564  11.696  0.0718  0.0344  0.0928
 8634TIP3    H147393   5.719   2.573  11.756  0.5921  1.5203 -0.7274
 8634TIP3    H247394   5.675   2.605  11.615 -0.9327 -1.1522 -0.9131
 8635TIP3   OH247395   6.587   0.883   1.742  0.2704 -0.1418 -0.4087
 8635TIP3    H147396   6.508   0.842   1.776  1.2884 -0.2401  2.1160
 8635TIP3    H247397   6.627   0.925   1.818  0.4713  3.6863 -2.3831
 8636TIP3   OH247398   3.392   6.723   4.353  0.7893  0.2343  0.2987
 8636TIP3    H147399   3.466   6.782   4.334  1.1647  0.0189  1.0401
 8636TIP3    H247400   3.333   6.776   4.406  0.7031  0.2161  0.2205
 8637TIP3   OH247401   0.554   5.926  16.700  0.4583  0.6968  0.0147
 8637TIP3    H147402   0.496   5.888  16.766  2.2847  2.7820  3.0667
 8637TIP3    H247403   0.621   5.860  16.687  0.9315  0.8338  1.5206
 8638TIP3   OH247404   4.633   0.704  15.838  0.4635 -0.3632 -0.0999
 8638TIP3    H147405   4.626   0.741  15.927  1.9621  1.8284 -0.7910
 8638TIP3    H247406   4.602   0.774  15.781  3.6760  0.0998 -1.5236
 8639TIP3   OH247407   3.438   4.090  16.192  0.3188  0.0579 -0.6352
 8639TIP3    H147408   3.375   4.152  16.229  1.1955  0.0952  0.8587
 8639TIP3    H247409   3.393   4.005  16.196 -0.3339  0.3593 -1.3400
 8640TIP3   OH247410   1.422   3.167   5.672  0.0919  0.4124 -0.2426
 8640TIP3    H147411   1.463   3.237   5.621 -2.9558  1.9245 -0.8748
 8640TIP3    H247412   1.437   3.088   5.620  1.7560  0.9336 -0.6225
 8641TIP3   OH247413   3.961   0.443   4.166  0.0235  0.1369 -0.3239
 8641TIP3    H147414   4.043   0.415   4.207 -0.2386 -0.8216 -0.4252
 8641TIP3    H247415   3.986   0.518   4.112  0.4438  1.2081  1.2771
 8642TIP3   OH247416   5.691   0.478  13.679 -0.0682 -0.8097  1.0654
 8642TIP3    H147417   5.598   0.470  13.659  0.1129  0.9267 -0.7890
 8642TIP3    H247418   5.698   0.563  13.724  0.9432  0.7366 -1.7611
 8643TIP3   OH247419   6.614   1.858  11.304  0.3075  0.4915  0.5357
 8643TIP3    H147420   6.625   1.880  11.211  0.8310 -1.0424  0.1973
 8643TIP3    H247421   6.596   1.764  11.304  0.2181  0.4852  1.9881
 8644TIP3   OH247422   6.539   0.704   0.615 -0.5378  0.3001  0.3513
 8644TIP3    H147423   6.510   0.649   0.542 -0.3833 -1.0714  1.2923
 8644TIP3    H247424   6.513   0.793   0.590 -1.3662 -0.2729 -0.9179
 8645TIP3   OH247425   0.237   0.709   1.146  0.1061 -0.6617  0.2861
 8645TIP3    H147426   0.297   0.672   1.082  0.7930 -0.4001  0.7630
 8645TIP3    H247427   0.283   0.703   1.229  0.2083  1.1215  0.4094
 8646TIP3   OH247428   0.317   1.554   2.973  0.1583  0.2507 -0.2495
 8646TIP3    H147429   0.370   1.502   3.034  0.8169 -1.6484 -2.3262
 8646TIP3    H247430   0.350   1.644   2.984  2.4912 -0.5557 -0.0573
 8647TIP3   OH247431   2.180   3.671  16.978  0.1921 -0.1056 -0.2782
 8647TIP3    H147432   2.144   3.637  17.060 -1.0475  0.6643 -0.4921
 8647TIP3    H247433   2.274   3.654  16.985  0.3227  1.1363  1.9075
 8648TIP3   OH247434   1.826   1.705   3.387  0.1599  0.3777  0.3490
 8648TIP3    H147435   1.788   1.730   3.303  1.0956 -0.2194 -0.2675
 8648TIP3    H247436   1.809   1.779   3.445  1.1873  1.6178 -0.8884
 8649TIP3   OH247437   2.090   2.142   1.346 -0.2196 -1.0841 -0.2343
 8649TIP3    H147438   2.033   2.110   1.416 -1.1461 -0.4551 -0.6762
 8649TIP3    H247439   2.104   2.066   1.290 -0.4327 -1.3065  0.0074
 8650TIP3   OH247440   0.370   2.183  11.449 -0.4057  0.0591 -0.5206
 8650TIP3    H147441   0.333   2.266  11.418  1.1032  1.0697  0.2463
 8650TIP3    H247442   0.375   2.128  11.370  0.5936  1.4904 -1.5076
 8651TIP3   OH247443   2.722   0.676  12.268 -0.1576 -0.3616  0.0383
 8651TIP3    H147444   2.813   0.672  12.237  0.7795  1.6933  2.2156
 8651TIP3    H247445   2.716   0.605  12.332  0.9403  1.2587  2.0740
 8652TIP3   OH247446   3.161   2.013  13.158  0.1265  0.5380  0.5562
 8652TIP3    H147447   3.069   2.037  13.172  0.4568  0.5299  3.4246
 8652TIP3    H247448   3.157   1.921  13.130 -0.7358  0.6033  0.4331
 8653TIP3   OH247449   1.580   0.808   5.200 -0.2056  0.3274  0.6419
 8653TIP3    H147450   1.544   0.739   5.144 -1.9255  0.6608  1.2588
 8653TIP3    H247451   1.605   0.763   5.281  2.3586 -0.1677 -0.3536
 8654TIP3   OH247452   0.080   4.034   0.950 -0.0106 -0.2898  0.3978
 8654TIP3    H147453   0.133   4.055   1.027  0.1804 -0.7005  0.3813
 8654TIP3    H247454   0.044   3.948   0.968 -3.0719  1.1114  1.7221
 8655TIP3   OH247455   0.958   5.238  11.369 -0.5031 -0.6432 -0.0983
 8655TIP3    H147456   1.027   5.190  11.325 -1.2150 -1.2148 -0.6204
 8655TIP3    H247457   0.960   5.207  11.460  0.7835  0.3317  0.2316
 8656TIP3   OH247458   0.521   2.309   6.118  0.5020  0.0978  0.2970
 8656TIP3    H147459   0.539   2.232   6.064 -1.9505 -0.5359  0.2563
 8656TIP3    H247460   0.579   2.376   6.084 -0.1803 -0.5834 -2.4753
 8657TIP3   OH247461   2.049   4.672   4.441 -0.3948  0.2789 -0.0235
 8657TIP3    H147462   1.979   4.714   4.491  0.5105  1.9112 -0.0681
 8657TIP3    H247463   2.054   4.584   4.477 -1.0498  0.8018  1.4432
 8658TIP3   OH247464   0.178   0.328   0.039 -0.0437  0.1639 -0.3686
 8658TIP3    H147465   0.165   0.325  -0.056 -0.2614  0.4243 -0.3496
 8658TIP3    H247466   0.114   0.267   0.074  1.1414 -1.1868 -0.4782
 8659TIP3   OH247467   3.635   3.801  12.590  0.4238  0.0632 -0.9798
 8659TIP3    H147468   3.611   3.865  12.656  1.1532 -0.5024 -0.1468
 8659TIP3    H247469   3.559   3.744  12.583  0.2708  0.2435 -0.7762
 8660TIP3   OH247470   4.630   1.261  14.257 -0.5957 -0.2208 -0.2373
 8660TIP3    H147471   4.622   1.167  14.268 -1.3722 -0.0763  0.5030
 8660TIP3    H247472   4.695   1.287  14.323 -1.7588  0.0040  0.8443
 8661TIP3   OH247473   2.240   4.599   1.486  0.2777  0.3178 -0.4556
 8661TIP3    H147474   2.234   4.536   1.558 -0.5848  0.0389 -0.7609
 8661TIP3    H247475   2.311   4.658   1.512  0.8659 -0.5640 -0.0056
 8662TIP3   OH247476   4.033   5.825   0.853 -0.3426  0.1372 -0.2932
 8662TIP3    H147477   3.949   5.851   0.816 -0.2077 -1.1995 -1.6274
 8662TIP3    H247478   4.091   5.813   0.778  0.9793  0.7699  0.5878
 8663TIP3   OH247479   0.437   2.246  16.529  0.1820  0.1871 -0.1340
 8663TIP3    H147480   0.527   2.230  16.558  0.0494 -0.3613 -0.0031
 8663TIP3    H247481   0.384   2.191  16.588 -0.2834  0.9599  0.1796
 8664TIP3   OH247482   1.190   1.284  13.970 -0.2374 -0.5590 -0.1496
 8664TIP3    H147483   1.234   1.335  13.902 -0.3888 -1.5531 -1.0127
 8664TIP3    H247484   1.097   1.289  13.948 -0.4994  0.7464  1.1293
 8665TIP3   OH247485   6.286   3.698   6.035 -0.0675 -0.5422  0.0215
 8665TIP3    H147486   6.258   3.611   6.063  0.5626 -0.8310 -0.2376
 8665TIP3    H247487   6.340   3.731   6.106 -0.7114 -0.1444  0.3442
 8666TIP3   OH247488   4.054   6.150  15.308 -0.0494 -0.0737  0.1827
 8666TIP3    H147489   4.064   6.087  15.379 -2.0576 -0.9058 -0.2169
 8666TIP3    H247490   4.137   6.145  15.261 -0.4933 -3.3424 -0.5145
 8667TIP3   OH247491   3.005   5.721   1.081 -0.1603  0.0523  0.0225
 8667TIP3    H147492   3.028   5.777   1.007 -0.1990  0.5943  0.4114
 8667TIP3    H247493   3.022   5.632   1.051 -0.2457  0.2627 -0.6605
 8668TIP3   OH247494   2.089   6.178  16.497  0.0179  0.2845  0.1556
 8668TIP3    H147495   2.034   6.196  16.421  0.7052 -1.3752 -0.7988
 8668TIP3    H247496   2.026   6.154  16.566 -0.5403 -1.5367 -0.9046
 8669TIP3   OH247497   1.851   5.636  13.744  0.3382 -0.2911  0.6973
 8669TIP3    H147498   1.839   5.548  13.780  0.6285 -0.3094  0.7586
 8669TIP3    H247499   1.783   5.645  13.677 -0.1298 -0.2997  1.1720
 8670TIP3   OH247500   0.279   1.265  16.360  0.0761  0.4581 -0.5480
 8670TIP3    H147501   0.348   1.235  16.301  0.4520  0.6025 -0.1811
 8670TIP3    H247502   0.311   1.349  16.394  0.3848 -0.1743  0.7549
 8671TIP3   OH247503   1.643   0.522  12.946  0.0986  0.1065  0.1167
 8671TIP3    H147504   1.653   0.564  12.861  0.7340 -0.8806 -0.3111
 8671TIP3    H247505   1.553   0.542  12.973 -0.4217 -0.3772 -1.2261
 8672TIP3   OH247506   5.424   6.462  14.191  0.5655  0.2028 -0.2777
 8672TIP3    H147507   5.394   6.398  14.127 -0.9393 -0.5210  1.0571
 8672TIP3    H247508   5.519   6.461  14.184  0.6844 -2.9575  0.3650
 8673TIP3   OH247509   3.910   2.495  17.202 -0.2253 -0.2231 -0.4662
 8673TIP3    H147510   3.839   2.431  17.213  0.3042 -0.4995  1.5894
 8673TIP3    H247511   3.984   2.458  17.250  0.0101  2.0443  1.0503
 8674TIP3   OH247512   6.285   4.122   3.103 -0.4220 -1.0204  0.0308
 8674TIP3    H147513   6.306   4.040   3.148  1.9641 -1.4591 -1.6367
 8674TIP3    H247514   6.321   4.110   3.015 -1.1588  1.3419 -0.6583
 8675TIP3   OH247515   4.798   2.073   5.640 -0.4800 -0.8156  0.1578
 8675TIP3    H147516   4.881   2.120   5.653 -0.4406 -1.1834  1.3549
 8675TIP3    H247517   4.814   2.018   5.563 -0.2552  0.4807 -0.7669
 8676TIP3   OH247518   4.013   3.342  13.815  0.3335  0.0373 -0.0961
 8676TIP3    H147519   4.018   3.425  13.862 -0.2719 -0.1905  0.3838
 8676TIP3    H247520   3.969   3.362  13.733  3.4380  0.9123 -1.7028
 8677TIP3   OH247521   4.167   3.148  11.708 -0.1830 -0.0829 -0.1436
 8677TIP3    H147522   4.072   3.137  11.704 -0.1164 -0.8713  0.2937
 8677TIP3    H247523   4.185   3.182  11.795  0.0043 -0.7283  0.0755
 8678TIP3   OH247524   0.182   6.447   3.497 -0.4952  0.2116 -0.1410
 8678TIP3    H147525   0.245   6.508   3.458  1.1852 -1.2112  0.2163
 8678TIP3    H247526   0.206   6.362   3.461 -1.3010 -0.5698  1.1154
 8679TIP3   OH247527   4.362   2.657  11.647  0.1840  0.1075 -0.0961
 8679TIP3    H147528   4.340   2.671  11.555  0.4385 -2.2546 -0.5909
 8679TIP3    H247529   4.448   2.615  11.645 -0.4995 -1.4467  1.0844
 8680TIP3   OH247530   0.543   3.793   4.698  0.3730 -0.0549 -0.4464
 8680TIP3    H147531   0.544   3.888   4.711 -0.6988  0.2700 -2.3395
 8680TIP3    H247532   0.483   3.760   4.765 -0.2204  0.7724 -0.5591
 8681TIP3   OH247533   0.294   6.369  14.158 -0.2678 -0.4272 -0.3276
 8681TIP3    H147534   0.382   6.362  14.122 -0.0301 -1.6907  0.4628
 8681TIP3    H247535   0.304   6.425  14.235 -0.1649 -0.5303 -0.2657
 8682TIP3   OH247536   4.040   1.232  10.673 -0.0615 -0.0707  0.0677
 8682TIP3    H147537   3.965   1.277  10.635  0.6132  0.4401 -0.7199
 8682TIP3    H247538   4.062   1.283  10.751  1.4680  1.8451 -1.4816
 8683TIP3   OH247539   6.325   5.466   3.598  0.5395 -0.2546  0.0467
 8683TIP3    H147540   6.321   5.515   3.515 -0.9412 -0.0986  0.1909
 8683TIP3    H247541   6.234   5.446   3.619  0.9049 -0.4602  1.5518
 8684TIP3   OH247542   5.025   0.715   1.005 -0.7064  0.0295 -0.3071
 8684TIP3    H147543   5.065   0.627   1.006  1.7372  1.0296 -1.8918
 8684TIP3    H247544   4.941   0.702   0.962 -0.2539 -1.4981 -0.8286
 8685TIP3   OH247545   4.424   2.186  16.731 -0.3785 -0.2488  0.0324
 8685TIP3    H147546   4.452   2.129  16.802  0.2892  1.2174  0.9912
 8685TIP3    H247547   4.497   2.185  16.669  0.4063  0.9317  0.9096
 8686TIP3   OH247548   5.805   4.295   1.002 -0.1098 -0.0760  0.6784
 8686TIP3    H147549   5.818   4.216   0.950  0.1630  0.0920  0.4881
 8686TIP3    H247550   5.891   4.314   1.040  0.0970  0.7563 -0.1818
 8687TIP3   OH247551   4.996   1.784   1.566  0.1463  0.5437  0.4059
 8687TIP3    H147552   4.944   1.813   1.641  0.8451 -1.1137  1.5920
 8687TIP3    H247553   4.966   1.695   1.548  0.1030  0.8559 -1.2231
 8688TIP3   OH247554   0.613   5.888   2.772  0.2184 -0.5081 -0.0433
 8688TIP3    H147555   0.611   5.891   2.867  1.0058 -1.5377  0.0248
 8688TIP3    H247556   0.596   5.978   2.744  1.2756  0.0650  1.0952
 8689TIP3   OH247557   1.826   2.561  15.249  0.3817  0.1825  0.2563
 8689TIP3    H147558   1.802   2.607  15.169  0.4911  1.3226  0.8497
 8689TIP3    H247559   1.750   2.572  15.306  1.1225  1.3137  1.0931
 8690TIP3   OH247560   6.509   3.656  14.711  0.2662  0.2367  0.6948
 8690TIP3    H147561   6.561   3.634  14.634 -0.5467 -2.5634  0.8166
 8690TIP3    H247562   6.475   3.743  14.693  1.1666  0.2078 -1.5080
 8691TIP3   OH247563   4.312   4.933  15.957  0.7363 -0.2138 -1.3155
 8691TIP3    H147564   4.249   4.893  15.896 -1.2316  1.0897 -0.2529
 8691TIP3    H247565   4.258   4.972  16.025  2.6681  1.7622 -0.7960
 8692TIP3   OH247566   3.570   1.723  14.381 -0.3893 -0.3290 -0.2135
 8692TIP3    H147567   3.600   1.714  14.291 -0.8213 -0.2178 -0.3675
 8692TIP3    H247568   3.625   1.794  14.417  1.2416 -1.7523  0.2470
 8693TIP3   OH247569   4.615   3.952  11.851 -0.5099 -0.2454 -0.2226
 8693TIP3    H147570   4.652   3.899  11.921  1.5402  0.7146 -0.4965
 8693TIP3    H247571   4.563   4.018  11.895 -0.3454 -0.4682  0.3109
 8694TIP3   OH247572   1.299   3.626  12.061 -0.0311 -0.2286 -0.2482
 8694TIP3    H147573   1.257   3.711  12.046  1.3062  0.3637 -0.7626
 8694TIP3    H247574   1.389   3.647  12.084  0.6264 -1.5418 -1.4644
 8695TIP3   OH247575   0.987   5.604   5.179 -0.4627 -0.1546 -0.4116
 8695TIP3    H147576   1.023   5.590   5.091 -2.1896  1.7168 -1.4982
 8695TIP3    H247577   0.914   5.542   5.185 -0.7132  0.1231 -0.5492
 8696TIP3   OH247578   6.589   3.522   5.980 -0.1814  0.3824  0.0284
 8696TIP3    H147579   6.496   3.547   5.983 -0.1172  0.5373  0.8574
 8696TIP3    H247580   6.600   3.460   6.052 -0.1593 -1.5206 -1.5384
 8697TIP3   OH247581   4.709   1.000  17.027  0.1649 -0.3519  0.2053
 8697TIP3    H147582   4.719   0.921  16.973  1.0944  0.0421 -0.2364
 8697TIP3    H247583   4.642   0.978  17.091 -2.5322 -0.1665 -2.3644
 8698TIP3   OH247584   0.284   3.073  14.341 -0.0720 -0.0662 -0.4050
 8698TIP3    H147585   0.202   3.113  14.311 -0.1070 -0.5466 -0.9498
 8698TIP3    H247586   0.290   3.099  14.434 -1.0785 -0.4211 -0.2297
 8699TIP3   OH247587   4.817   1.574   3.999 -0.1085  0.0655 -0.0791
 8699TIP3    H147588   4.878   1.509   3.964  0.8374  0.1327  1.3734
 8699TIP3    H247589   4.775   1.611   3.922  0.1009 -1.5178 -0.9987
 8700TIP3   OH247590   0.144   1.579  13.733 -0.5113 -0.6749  0.1883
 8700TIP3    H147591   0.224   1.630  13.744  1.2370 -2.8011 -1.4872
 8700TIP3    H247592   0.089   1.632  13.675  0.5291  0.0398 -0.1803
 8701TIP3   OH247593   3.158   2.781  17.094  0.1849 -0.2612  0.7056
 8701TIP3    H147594   3.184   2.873  17.099  1.0470 -0.4671  0.2324
 8701TIP3    H247595   3.236   2.735  17.062 -0.5859 -0.9915 -0.2067
 8702TIP3   OH247596   6.022   2.216   4.216 -0.3340  0.2607  0.0117
 8702TIP3    H147597   6.039   2.280   4.148 -0.2404 -0.1578 -0.3641
 8702TIP3    H247598   5.935   2.239   4.251 -1.3780 -0.8121 -1.7343
 8703TIP3   OH247599   3.201   1.402   4.934 -0.2821 -0.1983  0.6358
 8703TIP3    H147600   3.227   1.433   5.021 -2.3247  2.6201  0.3803
 8703TIP3    H247601   3.211   1.307   4.938  0.3531 -0.0975  3.7114
 8704TIP3   OH247602   2.731   0.331  15.120 -0.5926  0.1572  0.3677
 8704TIP3    H147603   2.638   0.350  15.108 -0.8316 -0.7181  0.7426
 8704TIP3    H247604   2.764   0.403  15.173 -0.5626  1.6078 -1.5273
 8705TIP3   OH247605   5.743   6.018  11.895  0.1503 -0.3162 -0.1092
 8705TIP3    H147606   5.737   6.057  11.982  0.4280 -0.7902  0.1244
 8705TIP3    H247607   5.823   5.965  11.897  1.8585  2.0017 -1.5968
 8706TIP3   OH247608   2.676   2.582   2.252  0.2250 -0.6908 -0.1547
 8706TIP3    H147609   2.734   2.543   2.186  0.3862 -0.7784  0.0373
 8706TIP3    H247610   2.725   2.575   2.334  1.0176  1.4401 -0.3596
 8707TIP3   OH247611   0.256   3.787   2.837 -0.4665 -0.1569  0.2288
 8707TIP3    H147612   0.327   3.845   2.810  0.9553 -1.6185  0.6352
 8707TIP3    H247613   0.241   3.731   2.761 -1.6488  0.5227 -0.0717
 8708TIP3   OH247614   6.152   6.560   5.774 -0.3352 -0.0562  0.0122
 8708TIP3    H147615   6.075   6.528   5.822  1.1833 -2.1805  1.2304
 8708TIP3    H247616   6.134   6.538   5.683 -1.2505 -0.3711  0.2576
 8709TIP3   OH247617   0.967   4.424   6.047 -0.0451 -0.3871  0.4107
 8709TIP3    H147618   0.960   4.384   6.134 -1.1125  0.1146  0.5705
 8709TIP3    H247619   0.926   4.360   5.989  0.4859 -0.6311  0.3001
 8710TIP3   OH247620   5.760   5.170  10.323 -0.2379  0.2810 -0.0336
 8710TIP3    H147621   5.797   5.100  10.377  0.4891  0.0452 -0.8219
 8710TIP3    H247622   5.702   5.125  10.261 -0.9628  0.5368  0.4488
 8711TIP3   OH247623   1.044   6.073  16.661  0.3648  0.3215  0.6013
 8711TIP3    H147624   0.987   6.122  16.601 -0.2479 -0.3926  0.5816
 8711TIP3    H247625   1.008   6.090  16.748  1.5250  1.7221  0.8414
 8712TIP3   OH247626   4.875   4.711   0.561 -0.2892  0.5096 -0.1814
 8712TIP3    H147627   4.793   4.699   0.608  0.9324 -0.5877  1.8369
 8712TIP3    H247628   4.902   4.800   0.583 -1.2046  1.1156 -1.3887
 8713TIP3   OH247629   5.781   2.976  15.194 -0.2615  0.1760  0.0192
 8713TIP3    H147630   5.797   2.922  15.271  0.4456 -0.9741 -0.8956
 8713TIP3    H247631   5.779   2.914  15.121 -1.3624  1.1805 -0.8512
 8714TIP3   OH247632   6.772   5.326   5.350  0.2774  0.1739  0.3068
 8714TIP3    H147633   6.687   5.288   5.376 -0.2805  0.8951 -0.4254
 8714TIP3    H247634   6.815   5.346   5.433  0.0197 -0.8234  0.6989
 8715TIP3   OH247635   6.047   4.725   3.749 -0.2131  0.3955  0.0465
 8715TIP3    H147636   5.956   4.752   3.762  0.3458  1.6251  1.8466
 8715TIP3    H247637   6.085   4.726   3.837  1.7808  0.7950 -0.7673
 8716TIP3   OH247638   3.327   1.764   6.303 -0.3622 -0.0663 -0.6210
 8716TIP3    H147639   3.420   1.766   6.279 -0.5101  0.4403 -1.1933
 8716TIP3    H247640   3.316   1.683   6.352  0.4007 -0.0858 -0.4778
 8717TIP3   OH247641   2.127   5.585   3.986  0.2051  0.2193 -0.1317
 8717TIP3    H147642   2.053   5.574   3.927  1.0052 -4.4350 -0.6527
 8717TIP3    H247643   2.096   5.548   4.069  0.8118  1.7222  0.7958
 8718TIP3   OH247644   2.936   4.910  16.155  0.0590  0.2170 -0.5406
 8718TIP3    H147645   2.960   4.980  16.216  0.5570  0.7552 -1.3329
 8718TIP3    H247646   2.944   4.830  16.206  0.7245  0.6316  0.0242
 8719TIP3   OH247647   0.432   2.596   0.400  0.4048 -0.0093  0.1288
 8719TIP3    H147648   0.491   2.662   0.364 -0.4696 -0.3408 -2.0911
 8719TIP3    H247649   0.346   2.617   0.362 -0.6788 -0.2931  2.2581
 8720TIP3   OH247650   6.570   0.174  14.597 -0.3725 -0.5174 -0.2003
 8720TIP3    H147651   6.662   0.149  14.601  0.0069  0.9818  1.9713
 8720TIP3    H247652   6.534   0.147  14.681 -1.0407  1.9007  0.3753
 8721TIP3   OH247653   1.706   1.906   0.105 -0.1767 -0.0450  0.7329
 8721TIP3    H147654   1.790   1.915   0.150  0.3308 -2.0356  0.3029
 8721TIP3    H247655   1.641   1.909   0.175  0.4462 -0.7837  1.3716
 8722TIP3   OH247656   2.834   2.124   5.188 -0.0483 -0.2463  0.2950
 8722TIP3    H147657   2.823   2.214   5.159 -1.6284 -0.0439  1.4094
 8722TIP3    H247658   2.801   2.071   5.116 -1.2206  0.1587  0.5110
 8723TIP3   OH247659   2.554   4.811  13.609  0.2055 -0.6672 -0.1033
 8723TIP3    H147660   2.642   4.779  13.628  0.6165  0.1805 -0.4913
 8723TIP3    H247661   2.513   4.818  13.695  0.5702 -0.9310  0.0985
 8724TIP3   OH247662   6.441   0.073  14.120 -0.4067 -0.1822  0.0286
 8724TIP3    H147663   6.353   0.041  14.101 -0.0090 -1.7671  0.7338
 8724TIP3    H247664   6.439   0.096  14.213 -0.1892  0.1961 -0.0558
 8725TIP3   OH247665   6.496   6.132   4.684 -0.7144 -0.1136 -0.5269
 8725TIP3    H147666   6.404   6.111   4.664 -1.1838 -2.0115  2.8568
 8725TIP3    H247667   6.493   6.172   4.771  1.6439  0.0154 -0.4576
 8726TIP3   OH247668   6.628   2.464  13.678  0.2905  0.0919  0.3120
 8726TIP3    H147669   6.650   2.492  13.589  0.0287  0.5220  0.3822
 8726TIP3    H247670   6.666   2.376  13.685 -0.4220 -0.3098 -0.5259
 8727TIP3   OH247671   0.477   4.277  15.838 -0.9392  0.3359 -0.1788
 8727TIP3    H147672   0.436   4.311  15.759 -1.2238  0.8568  0.1824
 8727TIP3    H247673   0.564   4.318  15.840 -0.7446 -0.0614 -0.4758
 8728TIP3   OH247674   0.900   2.436  11.148  0.3995  0.0750 -0.2287
 8728TIP3    H147675   0.995   2.427  11.149  0.3345 -0.7836 -0.9434
 8728TIP3    H247676   0.871   2.393  11.229  0.6733  1.1855  0.4770
 8729TIP3   OH247677   6.181   1.310  10.439 -0.2287 -0.0892 -0.0686
 8729TIP3    H147678   6.186   1.404  10.418  0.2388 -0.5979 -2.5135
 8729TIP3    H247679   6.271   1.286  10.463 -0.2264 -0.0400 -0.0266
 8730TIP3   OH247680   0.759   0.963   1.279 -0.1611  0.4044  0.4352
 8730TIP3    H147681   0.676   1.010   1.273 -0.4044 -0.0532  0.1658
 8730TIP3    H247682   0.741   0.891   1.340  0.3375  0.9237  1.2088
 8731TIP3   OH247683   1.655   1.806   5.035 -0.2126 -0.1644 -0.2045
 8731TIP3    H147684   1.660   1.891   5.079  3.1784  0.6400 -1.8065
 8731TIP3    H247685   1.622   1.826   4.947 -0.4615 -0.7154 -0.2447
 8732TIP3   OH247686   4.230   3.481  16.075 -0.6518  0.6734  0.3872
 8732TIP3    H147687   4.243   3.565  16.119 -1.6473  0.7322  0.5836
 8732TIP3    H247688   4.221   3.504  15.982  1.0682  0.5833  0.1731
 8733TIP3   OH247689   3.303   1.459   1.391 -0.2978 -0.2025 -0.0254
 8733TIP3    H147690   3.347   1.424   1.314  1.0091 -0.6977  0.9093
 8733TIP3    H247691   3.372   1.502   1.441 -1.3820  1.4058  0.1841
 8734TIP3   OH247692   3.055   3.160   2.934 -0.0061  0.1874 -0.5219
 8734TIP3    H147693   3.013   3.238   2.971  0.0713 -0.0780  0.1337
 8734TIP3    H247694   3.123   3.137   2.997  0.6839  0.2183 -1.2506
 8735TIP3   OH247695   1.164   1.504  12.461  0.4991 -0.7113  0.2138
 8735TIP3    H147696   1.110   1.537  12.390 -0.4961 -1.8980  0.3912
 8735TIP3    H247697   1.249   1.547  12.449 -0.1806  0.4219 -0.6463
 8736TIP3   OH247698   5.350   2.268   0.709  0.1651 -0.2096  0.4700
 8736TIP3    H147699   5.383   2.214   0.782 -1.3837 -1.0949  0.5454
 8736TIP3    H247700   5.260   2.289   0.733  1.0634  3.7008  1.1387
 8737TIP3   OH247701   4.295   0.454   3.845  0.1198 -0.0765 -0.1118
 8737TIP3    H147702   4.355   0.481   3.914 -1.2724  1.2087  0.6427
 8737TIP3    H247703   4.337   0.483   3.764  0.3584  1.1524  0.4349
 8738TIP3   OH247704   0.368   3.536   0.171  0.0000 -0.2606 -0.3212
 8738TIP3    H147705   0.330   3.606   0.224  1.2955 -1.6639  2.7280
 8738TIP3    H247706   0.296   3.475   0.155 -0.7921  0.9911 -1.7329
 8739TIP3   OH247707   1.048   4.178  16.143  0.0002 -0.3561  0.1956
 8739TIP3    H147708   1.041   4.091  16.183 -0.9237 -1.2768 -1.8196
 8739TIP3    H247709   0.964   4.191  16.099  0.4401  1.2087 -0.2251
 8740TIP3   OH247710   0.175   5.115   4.558 -0.6655  0.0274 -0.3128
 8740TIP3    H147711   0.197   5.153   4.473 -1.7936  0.0705 -0.5914
 8740TIP3    H247712   0.209   5.178   4.622 -0.3342  0.2804 -0.7339
 8741TIP3   OH247713   6.753   1.239  12.750 -0.4795 -0.1116  0.1176
 8741TIP3    H147714   6.755   1.284  12.835  1.5551  0.1779 -0.0225
 8741TIP3    H247715   6.792   1.302  12.689 -0.5274 -0.8751 -0.7238
 8742TIP3   OH247716   0.961   1.304  16.872 -0.0313 -1.3619  0.1654
 8742TIP3    H147717   1.023   1.231  16.880 -0.1073 -1.5513 -0.8397
 8742TIP3    H247718   0.879   1.263  16.845 -0.3776 -1.0201  0.6895
 8743TIP3   OH247719   3.632   6.306  14.224  0.1002  0.2910  0.1580
 8743TIP3    H147720   3.663   6.305  14.134 -0.2709  0.1668  0.0315
 8743TIP3    H247721   3.653   6.395  14.255  1.2106 -0.0065  0.3036
 8744TIP3   OH247722   2.880   1.028   1.995  0.0785  0.4849  0.1118
 8744TIP3    H147723   2.866   0.935   2.017 -1.2896  0.3921 -0.9927
 8744TIP3    H247724   2.845   1.075   2.070  0.9221  0.1232  0.7514
 8745TIP3   OH247725   4.186   4.700   5.092  0.2726  0.2778  0.6691
 8745TIP3    H147726   4.249   4.658   5.151  0.8631  1.1074  0.6362
 8745TIP3    H247727   4.215   4.674   5.004 -0.8225 -1.2632  0.7196
 8746TIP3   OH247728   3.486   4.670  15.534 -0.5594 -0.1000 -0.5116
 8746TIP3    H147729   3.501   4.726  15.610 -1.6874 -1.1106  0.4952
 8746TIP3    H247730   3.498   4.581  15.566  0.4759 -0.5196 -1.9120
 8747TIP3   OH247731   0.926   1.612   0.925  0.2004  0.1101 -0.0778
 8747TIP3    H147732   0.958   1.587   0.839  1.5785  0.0553  0.4299
 8747TIP3    H247733   0.833   1.630   0.912  0.2545 -0.5056 -1.4396
 8748TIP3   OH247734   6.820   6.565  14.449 -0.2123  0.5271 -0.2820
 8748TIP3    H147735   6.789   6.495  14.390 -1.8034 -0.0025  1.1139
 8748TIP3    H247736   6.741   6.598  14.491  0.6124  2.6463 -0.2900
 8749TIP3   OH247737   2.712   0.962   2.828  0.1125 -0.6252 -0.0277
 8749TIP3    H147738   2.788   0.916   2.863  2.0029  0.6030 -2.2237
 8749TIP3    H247739   2.686   0.912   2.751 -0.6021 -0.4163  0.0693
 8750TIP3   OH247740   3.917   1.290   4.076  0.3154 -0.5398  0.0839
 8750TIP3    H147741   3.855   1.328   4.139  2.0258  0.4479  1.2294
 8750TIP3    H247742   3.906   1.342   3.996  0.5866  0.4931  0.7084
 8751TIP3   OH247743   3.245   3.818   4.105  0.4944  0.2338 -0.6467
 8751TIP3    H147744   3.260   3.888   4.041  0.0033  0.0071 -1.0171
 8751TIP3    H247745   3.331   3.804   4.145  0.1813  2.5863  1.0586
 8752TIP3   OH247746   1.392   5.144  12.390  0.2647  0.0263  0.0480
 8752TIP3    H147747   1.352   5.179  12.469 -0.2846 -2.0046  0.7417
 8752TIP3    H247748   1.351   5.191  12.319 -0.3046  0.8806  0.9186
 8753TIP3   OH247749   3.286   4.574  15.813 -0.4385  0.0359  0.1318
 8753TIP3    H147750   3.366   4.574  15.761 -0.7752 -0.5286 -0.4079
 8753TIP3    H247751   3.219   4.541  15.753 -0.5368 -2.2033  1.3821
 8754TIP3   OH247752   1.007   0.754   6.023  0.1351  0.4147  0.3787
 8754TIP3    H147753   0.968   0.806   6.093 -0.1169  1.0051 -0.1898
 8754TIP3    H247754   0.964   0.784   5.944  1.0428  0.3746 -0.1406
 8755TIP3   OH247755   1.136   6.564  10.257  0.0563 -0.1106  0.2673
 8755TIP3    H147756   1.054   6.527  10.288 -0.3088 -0.0384 -0.5748
 8755TIP3    H247757   1.181   6.491  10.214  0.4865 -0.1757  0.8115
 8756TIP3   OH247758   2.951   5.679   6.149  0.0443 -0.1989 -0.7253
 8756TIP3    H147759   2.985   5.598   6.111 -0.9682 -2.3694  2.5618
 8756TIP3    H247760   3.011   5.699   6.221 -0.9213  0.7543 -0.1613
 8757TIP3   OH247761   4.965   0.077   3.912 -0.5747  0.1554  0.5054
 8757TIP3    H147762   4.935   0.138   3.845  0.2446  1.4617  1.2848
 8757TIP3    H247763   5.005   0.005   3.863  0.4853  1.3364 -0.4263
 8758TIP3   OH247764   3.221   6.398  13.144 -0.0077 -0.3772 -0.2359
 8758TIP3    H147765   3.159   6.443  13.087  1.7394  2.9751  0.2419
 8758TIP3    H247766   3.179   6.399  13.230  0.2017  0.8824 -0.1324
 8759TIP3   OH247767   2.554   0.549  10.615 -0.2834  0.4291 -0.4600
 8759TIP3    H147768   2.512   0.627  10.578  0.5039  1.6351  1.0643
 8759TIP3    H247769   2.646   0.558  10.590 -0.2564 -0.2055 -0.5859
 8760TIP3   OH247770   4.654   1.422   0.151  0.9202  0.2063  0.8463
 8760TIP3    H147771   4.664   1.390   0.062 -0.4926  0.7661  0.4637
 8760TIP3    H247772   4.732   1.474   0.166  0.7268  0.9065 -0.4315
 8761TIP3   OH247773   1.142   3.003  14.669 -0.2323 -0.0114 -0.4732
 8761TIP3    H147774   1.181   3.059  14.601  2.3788 -1.2186 -0.1116
 8761TIP3    H247775   1.216   2.953  14.703 -1.7039 -0.4989  2.2782
 8762TIP3   OH247776   5.494   3.824  16.592  0.1098  0.1258 -0.3356
 8762TIP3    H147777   5.417   3.802  16.644 -0.1935 -1.2722 -1.3362
 8762TIP3    H247778   5.536   3.740  16.572 -0.5883  0.4064 -3.5305
 8763TIP3   OH247779   3.421   4.646  11.875  0.1690 -0.1810  0.0743
 8763TIP3    H147780   3.472   4.572  11.908 -0.0713 -0.4000 -0.0408
 8763TIP3    H247781   3.388   4.689  11.954  0.0845 -0.3569  0.1365
 8764TIP3   OH247782   3.551   4.877   1.986  0.4327  0.1287  0.3298
 8764TIP3    H147783   3.593   4.907   1.906 -0.4474  0.8882  0.1344
 8764TIP3    H247784   3.545   4.956   2.041  1.7781 -0.5440  1.4962
 8765TIP3   OH247785   4.853   2.220  17.151  0.6509  0.1549 -0.1222
 8765TIP3    H147786   4.842   2.257  17.063  0.7332 -1.5067 -0.8749
 8765TIP3    H247787   4.945   2.234  17.171  0.6526  0.4633 -0.3372
 8766TIP3   OH247788   4.721   3.563  11.541 -0.3206 -0.7181  0.8160
 8766TIP3    H147789   4.703   3.525  11.627 -0.5037  1.3407  1.7549
 8766TIP3    H247790   4.636   3.597  11.512  0.4619  2.5411  1.9230
 8767TIP3   OH247791   0.727   5.916  14.252  0.0562  0.3397 -0.4136
 8767TIP3    H147792   0.669   5.885  14.322 -1.0294  0.8141 -1.0793
 8767TIP3    H247793   0.698   5.869  14.174 -0.3789  1.6176 -1.0449
 8768TIP3   OH247794   4.810   3.773  15.878  0.0888 -0.6997  0.6361
 8768TIP3    H147795   4.796   3.842  15.814 -0.4235  0.3624  1.8365
 8768TIP3    H247796   4.902   3.780  15.902 -0.0711 -0.1048  1.0991
 8769TIP3   OH247797   0.275   3.323  14.766  0.2573  0.1719  0.3233
 8769TIP3    H147798   0.250   3.361  14.851 -0.9351 -0.5551  0.3119
 8769TIP3    H247799   0.206   3.260  14.747  1.7968 -1.4719 -0.0302
 8770TIP3   OH247800   1.874   6.230  10.948 -0.2545 -0.1882  0.4317
 8770TIP3    H147801   1.896   6.164  11.014  0.9607  0.3529  0.5953
 8770TIP3    H247802   1.805   6.189  10.895 -1.1720 -0.6671  1.9452
 8771TIP3   OH247803   6.662   3.816  16.364 -0.0327  0.1385  0.3441
 8771TIP3    H147804   6.636   3.896  16.410 -1.1273  0.0113 -0.0087
 8771TIP3    H247805   6.587   3.757  16.374 -0.1052 -0.0696 -1.1636
 8772TIP3   OH247806   1.348   5.997  11.800 -0.3253 -0.1138 -0.1560
 8772TIP3    H147807   1.341   6.017  11.893 -2.2826 -0.5574 -0.1488
 8772TIP3    H247808   1.310   5.910  11.791 -1.5982  0.5316 -1.5364
 8773TIP3   OH247809   4.819   4.152   1.266 -0.2287  0.1975  0.0024
 8773TIP3    H147810   4.776   4.191   1.191 -0.2975  0.4154  0.1548
 8773TIP3    H247811   4.843   4.226   1.322 -1.7109 -0.0436  1.0193
 8774TIP3   OH247812   4.645   5.536  12.623  0.5198 -0.0006  0.0843
 8774TIP3    H147813   4.607   5.624  12.627 -0.5054 -0.4087  3.8403
 8774TIP3    H247814   4.569   5.478  12.610  0.5522 -0.4703  1.6714
 8775TIP3   OH247815   6.593   5.804   4.873 -0.3249 -0.3072 -0.3682
 8775TIP3    H147816   6.672   5.820   4.822 -1.0343  2.0412 -0.8319
 8775TIP3    H247817   6.600   5.863   4.948 -0.3693 -2.0973  1.1122
 8776TIP3   OH247818   1.458   5.272   3.435 -0.5149 -0.1222  0.1563
 8776TIP3    H147819   1.449   5.283   3.341  2.0565 -0.7206 -0.2418
 8776TIP3    H247820   1.393   5.331   3.473 -1.1248  0.6624 -1.9676
 8777TIP3   OH247821   5.237   0.915   3.662 -0.5249 -0.1262 -0.1210
 8777TIP3    H147822   5.243   0.824   3.691 -0.4845 -0.1728 -0.2765
 8777TIP3    H247823   5.257   0.912   3.569  3.3869  0.5187  0.5211
 8778TIP3   OH247824   5.488   2.522   2.711  0.5815 -0.0764  0.0600
 8778TIP3    H147825   5.478   2.440   2.662  1.9559 -0.8364  0.9766
 8778TIP3    H247826   5.583   2.535   2.716  0.5232 -0.0966  2.5683
 8779TIP3   OH247827   1.204   5.047  10.306  0.0337 -0.2026  0.0122
 8779TIP3    H147828   1.297   5.034  10.321 -0.0810 -0.7011  0.3404
 8779TIP3    H247829   1.198   5.128  10.256  0.5052  0.9585  1.7480
 8780TIP3   OH247830   0.345   2.760   0.918  0.1329 -0.4241  0.4288
 8780TIP3    H147831   0.440   2.760   0.914  0.2438  0.8834  1.8718
 8780TIP3    H247832   0.324   2.714   1.000 -0.3980  0.2503  0.6867
 8781TIP3   OH247833   6.215   2.873  14.124  0.8184  0.3558 -0.2560
 8781TIP3    H147834   6.258   2.874  14.038  1.0577  1.5346 -0.1348
 8781TIP3    H247835   6.135   2.925  14.112  0.1322 -0.6336 -0.1098
 8782TIP3   OH247836   3.778   2.786  14.711  0.3119  0.4404 -0.1953
 8782TIP3    H147837   3.758   2.708  14.660 -0.4022  0.8240 -0.5196
 8782TIP3    H247838   3.821   2.753  14.790 -0.4598 -0.3185 -0.0781
 8783TIP3   OH247839   0.682   3.967  17.035 -0.5361 -0.1723  0.3546
 8783TIP3    H147840   0.647   3.993  16.950 -0.0877 -0.0924  0.1898
 8783TIP3    H247841   0.622   4.006  17.099  0.2172  1.4787  0.1284
 8784TIP3   OH247842   6.657   2.395   0.768 -0.1963  0.4025 -0.0158
 8784TIP3    H147843   6.587   2.457   0.748 -0.6178 -0.5407 -1.5959
 8784TIP3    H247844   6.652   2.383   0.862 -0.4575  2.3315  0.2648
 8785TIP3   OH247845   3.277   0.109   0.398  0.1363  0.1258 -0.0643
 8785TIP3    H147846   3.217   0.172   0.358  0.0085  0.2125  0.2636
 8785TIP3    H247847   3.334   0.162   0.453 -1.1358 -0.2118  1.6727
 8786TIP3   OH247848   3.224   0.273  11.298  0.0447 -0.1192 -0.4528
 8786TIP3    H147849   3.281   0.309  11.366 -0.8759 -1.7568  1.2627
 8786TIP3    H247850   3.281   0.263  11.222  1.7796 -0.6733  0.8645
 8787TIP3   OH247851   1.380   2.616  16.954  0.4055  0.0678 -0.2001
 8787TIP3    H147852   1.296   2.609  16.908 -1.1558 -0.7295  2.5584
 8787TIP3    H247853   1.434   2.548  16.914 -0.9523 -0.7500 -0.7355
 8788TIP3   OH247854   0.864   4.562   3.940 -0.3200  0.4201  0.0453
 8788TIP3    H147855   0.869   4.654   3.916 -3.2167  1.5983  3.1753
 8788TIP3    H247856   0.926   4.552   4.012  0.9740 -0.4874 -1.1532
 8789TIP3   OH247857   4.046   3.650   6.712 -0.3776  0.1770  0.0569
 8789TIP3    H147858   4.102   3.661   6.789  0.4079 -0.9326 -0.3123
 8789TIP3    H247859   4.103   3.674   6.638 -0.6123 -0.2673 -0.2741
 8790TIP3   OH247860   0.632   6.076  13.562 -0.5091  0.0001 -0.5345
 8790TIP3    H147861   0.685   6.074  13.641  1.3359 -1.4849 -1.7059
 8790TIP3    H247862   0.658   6.156  13.517  0.5376 -0.5368 -0.9234
 8791TIP3   OH247863   2.597   5.512  16.883  0.2563 -0.2716 -0.1845
 8791TIP3    H147864   2.662   5.507  16.813 -1.0492  1.1973 -1.5919
 8791TIP3    H247865   2.513   5.515  16.838 -0.6629  0.3634  1.4712
 8792TIP3   OH247866   0.278   2.957   0.020  0.4401 -0.5320  0.1941
 8792TIP3    H147867   0.183   2.966   0.011  0.6806 -0.0951 -2.8089
 8792TIP3    H247868   0.290   2.873   0.064 -1.3099  0.6034  3.1515
 8793TIP3   OH247869   0.381   2.126   2.371 -0.5963  0.3812  0.5640
 8793TIP3    H147870   0.418   2.213   2.389 -0.8817  0.8246 -0.8203
 8793TIP3    H247871   0.290   2.144   2.346 -0.1495 -0.0599 -1.6207
 8794TIP3   OH247872   6.820   4.162   3.345  0.8760  0.0972  0.0764
 8794TIP3    H147873   6.855   4.179   3.432  0.1354 -0.7132  0.5610
 8794TIP3    H247874   6.766   4.083   3.357 -0.2316  0.6938 -0.8444
 8795TIP3   OH247875   6.748   5.338   0.037  0.4806  0.5066  0.0205
 8795TIP3    H147876   6.761   5.310  -0.054 -1.9371 -0.3493 -0.1253
 8795TIP3    H247877   6.697   5.268   0.077 -0.7860  2.0870  1.2898
 8796TIP3   OH247878   1.166   0.891  14.680 -0.1392  0.0238 -0.3551
 8796TIP3    H147879   1.129   0.847  14.757 -1.3053 -0.1833 -1.0168
 8796TIP3    H247880   1.218   0.824  14.636  1.4082  0.4174  0.7857
 8797TIP3   OH247881   1.864   0.400  15.780  0.3322  0.1014  0.0132
 8797TIP3    H147882   1.778   0.403  15.821  0.6861  1.7288  0.7230
 8797TIP3    H247883   1.892   0.309  15.790 -0.6875 -0.1235  1.0846
 8798TIP3   OH247884   0.970   1.642  16.392 -0.1009 -0.4877  1.1033
 8798TIP3    H147885   0.945   1.629  16.484 -0.0899 -0.8684  1.0551
 8798TIP3    H247886   1.016   1.561  16.368 -0.6493 -0.6476  0.5804
 8799TIP3   OH247887   5.801   3.746   5.354 -0.1419  0.6202  0.0404
 8799TIP3    H147888   5.706   3.753   5.350 -0.1683 -0.1044 -1.6936
 8799TIP3    H247889   5.822   3.743   5.447 -1.7959  0.9149  0.4480
 8800TIP3   OH247890   1.289   3.557   0.047 -0.3750 -0.3239  0.2133
 8800TIP3    H147891   1.324   3.596   0.127  0.4865 -0.2379 -0.1947
 8800TIP3    H247892   1.260   3.470   0.073  0.2518 -0.4355  0.5357
 8801TIP3   OH247893   5.215   1.851  14.929  0.1755 -0.3596  0.4818
 8801TIP3    H147894   5.261   1.767  14.922 -1.0054 -1.2157  2.1304
 8801TIP3    H247895   5.128   1.827  14.961 -0.6825  1.3966 -0.4423
 8802TIP3   OH247896   0.708   4.232  14.084  0.5157  0.7046 -0.0922
 8802TIP3    H147897   0.643   4.270  14.025 -0.7949  1.9339  1.9876
 8802TIP3    H247898   0.691   4.275  14.168  1.5905 -1.6814  1.4505
 8803TIP3   OH247899   5.650   1.082   2.611 -0.1041  0.4891  0.0393
 8803TIP3    H147900   5.639   0.997   2.568 -2.1227  0.5163  0.4119
 8803TIP3    H247901   5.644   1.062   2.705  1.0833  0.8564  0.2171
 8804TIP3   OH247902   1.137   0.006  15.458 -0.5410 -0.4015 -0.1699
 8804TIP3    H147903   1.197  -0.068  15.458  1.4790  1.1298  0.4651
 8804TIP3    H247904   1.138   0.039  15.368  0.5499  0.3067  0.0762
 8805TIP3   OH247905   2.343   0.130   5.659  0.3026 -0.5864 -0.5444
 8805TIP3    H147906   2.378   0.141   5.748 -0.1055  2.9061 -0.6731
 8805TIP3    H247907   2.416   0.154   5.602 -0.1114 -0.6298 -1.0897
 8806TIP3   OH247908   6.440   0.817  14.317 -0.0218 -0.2183 -0.0362
 8806TIP3    H147909   6.499   0.892  14.326  2.3021 -1.5955 -2.3901
 8806TIP3    H247910   6.475   0.751  14.377  0.3180 -0.7308 -0.7836
 8807TIP3   OH247911   6.755   0.034   1.603  0.4214  0.2609  0.7654
 8807TIP3    H147912   6.722   0.120   1.632  0.1617  0.6040 -0.4638
 8807TIP3    H247913   6.714  -0.029   1.662 -2.4364  0.6724 -0.5895
 8808TIP3   OH247914   1.815   2.463   5.450  0.6046  0.0843  0.3885
 8808TIP3    H147915   1.726   2.457   5.485  0.9522  0.1445  1.3170
 8808TIP3    H247916   1.871   2.452   5.527  1.3785  1.8801  0.1182
 8809TIP3   OH247917   5.992   1.091   5.363  0.3775 -0.0033  0.1195
 8809TIP3    H147918   5.986   1.047   5.447 -0.9735 -0.0252  0.0292
 8809TIP3    H247919   5.958   1.028   5.300 -1.6918  1.1410  0.0063
 8810TIP3   OH247920   0.534   4.743  13.727 -0.1904 -0.1781 -0.7848
 8810TIP3    H147921   0.571   4.714  13.810 -0.2248 -1.1736 -1.1047
 8810TIP3    H247922   0.534   4.839  13.732  0.2453 -0.2248  0.1624
 8811TIP3   OH247923   5.304   6.324   3.914 -0.0504 -0.6626  0.7305
 8811TIP3    H147924   5.287   6.291   3.826 -1.2470  1.2129  0.1974
 8811TIP3    H247925   5.220   6.315   3.960 -0.2461  0.9132  0.7578
 8812TIP3   OH247926   5.858   1.055   1.407  0.0096 -0.3449 -0.1684
 8812TIP3    H147927   5.857   1.077   1.313  1.8988  1.1695  0.1127
 8812TIP3    H247928   5.880   0.962   1.409 -1.3177 -0.7238 -1.2340
 8813TIP3   OH247929   5.460   5.766   3.834 -0.1553  0.5822 -0.2507
 8813TIP3    H147930   5.450   5.860   3.819 -1.4790  0.4683 -0.1783
 8813TIP3    H247931   5.457   5.755   3.929  0.0304  0.4623 -0.2560
 8814TIP3   OH247932   2.683   6.303   5.785  0.1011  0.3807 -0.5631
 8814TIP3    H147933   2.705   6.371   5.849 -0.8273 -0.8782  1.1957
 8814TIP3    H247934   2.682   6.348   5.701  0.7099  2.2632  0.3845
 8815TIP3   OH247935   2.954   2.726   3.340 -0.7268 -0.3267  0.3033
 8815TIP3    H147936   2.887   2.720   3.407 -0.5989 -0.1245  0.4489
 8815TIP3    H247937   2.918   2.677   3.265 -1.6882  1.0570 -0.1717
 8816TIP3   OH247938   3.479   4.981   1.638  0.4525 -0.1892 -0.0952
 8816TIP3    H147939   3.441   4.906   1.683  1.6173 -0.9323 -0.3091
 8816TIP3    H247940   3.527   5.029   1.706 -0.1962  0.3134  0.0189
 8817TIP3   OH247941   5.942   2.086   2.234 -0.0709  0.1134  0.0202
 8817TIP3    H147942   5.971   1.995   2.243 -0.7261 -0.2462 -1.1999
 8817TIP3    H247943   5.969   2.128   2.315  3.0925 -0.3798 -0.6568
 8818TIP3   OH247944   2.853   2.063   1.071 -0.3405  0.0651  0.0499
 8818TIP3    H147945   2.937   2.103   1.093  0.3284 -0.9705 -0.5069
 8818TIP3    H247946   2.859   1.975   1.108 -0.3284 -0.7377 -1.7512
 8819TIP3   OH247947   4.944   1.789  11.295  0.3961  0.5116  0.0318
 8819TIP3    H147948   4.955   1.838  11.214 -0.7697  1.0739  0.1930
 8819TIP3    H247949   4.912   1.853  11.359  1.4411  0.1171  0.9996
 8820TIP3   OH247950   2.588   6.722  10.710  0.3388  0.1070  0.3893
 8820TIP3    H147951   2.525   6.782  10.671  0.2884 -0.0484  0.2297
 8820TIP3    H247952   2.556   6.635  10.688  1.1964  0.0312 -0.6655
 8821TIP3   OH247953   1.339   2.066  16.238  0.2956 -0.5489  0.3844
 8821TIP3    H147954   1.319   2.153  16.273  1.7275 -1.4150  3.7404
 8821TIP3    H247955   1.255   2.022  16.232 -0.1978  0.2537  1.1629
 8822TIP3   OH247956   6.741   1.190   5.089  0.0081 -0.2234 -0.0434
 8822TIP3    H147957   6.773   1.248   5.158 -0.3907 -1.4642  1.2147
 8822TIP3    H247958   6.651   1.219   5.073  0.1153  0.0928 -0.0889
 8823TIP3   OH247959   0.063   2.435   3.897 -0.2619 -0.1937  0.4297
 8823TIP3    H147960   0.158   2.436   3.910  0.2231  0.0940 -2.5638
 8823TIP3    H247961   0.039   2.528   3.894 -0.1609 -0.2005 -1.4881
 8824TIP3   OH247962   0.372   2.643  17.024  0.1494 -0.4180  0.0627
 8824TIP3    H147963   0.299   2.586  17.048  1.0579 -1.1800  1.1118
 8824TIP3    H247964   0.413   2.666  17.107  1.0759  0.0342 -0.5011
 8825TIP3   OH247965   1.673   3.520  17.122 -0.3948  0.0151 -0.5478
 8825TIP3    H147966   1.608   3.588  17.141 -0.2478 -0.2001  0.8446
 8825TIP3    H247967   1.745   3.539  17.182 -0.3041 -1.3078 -0.2218
 8826TIP3   OH247968   0.350   3.254  15.714 -0.3055 -0.8816 -0.2445
 8826TIP3    H147969   0.272   3.253  15.770 -0.5459 -1.6930 -0.5738
 8826TIP3    H247970   0.334   3.185  15.649  0.4010 -0.6172 -0.7140
 8827TIP3   OH247971   3.942   2.361  14.590  0.0781 -0.3468 -0.1340
 8827TIP3    H147972   3.873   2.421  14.617 -0.6160 -0.8420 -0.7642
 8827TIP3    H247973   4.012   2.374  14.654 -1.4425 -1.3849  1.8436
 8828TIP3   OH247974   2.042   3.406   4.931  0.0127  0.5350  0.1164
 8828TIP3    H147975   2.034   3.501   4.920 -0.1078  0.4723 -0.3368
 8828TIP3    H247976   2.102   3.378   4.862  0.6681  0.3820  0.7263
 8829TIP3   OH247977   3.633   6.406   5.732 -0.0208 -0.6628 -0.6091
 8829TIP3    H147978   3.636   6.454   5.815  1.2630  0.8535 -1.4628
 8829TIP3    H247979   3.665   6.318   5.754  0.3358 -0.2759  0.4943
 8830TIP3   OH247980   3.646   3.242  13.002  0.6739  0.2799  0.0244
 8830TIP3    H147981   3.708   3.292  13.054  4.1739 -2.6503 -0.8966
 8830TIP3    H247982   3.645   3.286  12.917 -1.0772  2.1159  0.9181
 8831TIP3   OH247983   6.492   4.787  16.776  0.1985 -0.1242 -0.2755
 8831TIP3    H147984   6.513   4.750  16.863  1.4331 -2.2302 -1.3762
 8831TIP3    H247985   6.576   4.789  16.730 -0.5194  0.4326 -1.6140
 8832TIP3   OH247986   0.063   2.737  13.488  0.0370  0.2781  0.2959
 8832TIP3    H147987   0.154   2.754  13.511  0.3883 -1.1834  0.0973
 8832TIP3    H247988   0.012   2.787  13.551  0.9909 -0.2033  1.4892
 8833TIP3   OH247989   2.295   2.011   5.697  0.5619  0.1339  0.1378
 8833TIP3    H147990   2.281   2.078   5.763 -0.2311 -0.3068  0.4220
 8833TIP3    H247991   2.218   1.955   5.702  0.6534 -0.1160 -0.9103
 8834TIP3   OH247992   6.244   0.017   2.052  0.1969  0.3732 -0.1897
 8834TIP3    H147993   6.202  -0.047   2.110  2.6406 -0.2476  1.0346
 8834TIP3    H247994   6.259   0.093   2.108  1.7859  0.0988 -0.2000
 8835TIP3   OH247995   1.648   1.515  12.097 -0.5110 -0.1819  0.0614
 8835TIP3    H147996   1.654   1.447  12.165  1.7227  1.1001  1.2560
 8835TIP3    H247997   1.718   1.576  12.118 -1.4166  1.6648 -1.9306
 8836TIP3   OH247998   2.029   3.752  16.174 -0.3380  0.4436 -0.2076
 8836TIP3    H147999   1.942   3.754  16.214 -0.5599  0.8246 -0.6963
 8836TIP3    H248000   2.075   3.827  16.212  0.0902 -0.2755  0.7272
 8837TIP3   OH248001   5.064   0.826  15.366  0.7699  0.1069  0.2809
 8837TIP3    H148002   5.118   0.747  15.355  1.4228  0.7531 -1.5912
 8837TIP3    H248003   5.008   0.828  15.288 -0.5311  0.5607  1.1904
 8838TIP3   OH248004   0.049   1.874  14.591 -0.3101  0.3098  0.2440
 8838TIP3    H148005   0.006   1.893  14.508  2.2246 -1.5943 -1.6853
 8838TIP3    H248006   0.112   1.946  14.602  0.2322 -0.0921 -0.1823
 8839TIP3   OH248007   1.958   4.549   3.581 -0.2333 -0.4072 -0.2874
 8839TIP3    H148008   2.027   4.560   3.646  0.8746 -0.8730 -1.3354
 8839TIP3    H248009   1.943   4.454   3.578  1.2028 -0.6337 -2.1211
 8840TIP3   OH248010   2.319   4.000  13.332  0.1320  0.2822 -0.1245
 8840TIP3    H148011   2.389   3.945  13.366 -1.3256 -0.8878  1.1090
 8840TIP3    H248012   2.246   3.988  13.393 -0.5395  2.9809 -0.2499
 8841TIP3   OH248013   2.960   0.234   4.735 -0.5965 -0.0424 -0.3827
 8841TIP3    H148014   3.015   0.312   4.750 -1.0366  0.3135 -0.5939
 8841TIP3    H248015   2.900   0.261   4.666 -1.0989 -0.3990 -0.0834
 8842TIP3   OH248016   5.084   3.650  16.304  0.2407  0.5136 -0.6242
 8842TIP3    H148017   5.133   3.663  16.223 -0.6395  1.8228 -0.9652
 8842TIP3    H248018   5.120   3.715  16.365  0.1487  0.2675 -0.3035
 8843TIP3   OH248019   3.676   3.075   5.105 -0.3675  0.0884 -0.1569
 8843TIP3    H148020   3.618   3.009   5.067  1.3387 -1.6424  0.0623
 8843TIP3    H248021   3.739   3.095   5.036 -0.7791  1.4143 -0.1716
 8844TIP3   OH248022   6.395   4.880  12.084 -0.1987  0.1455 -0.2256
 8844TIP3    H148023   6.432   4.925  12.008 -1.2653  1.1638 -0.1777
 8844TIP3    H248024   6.376   4.791  12.053  1.4288 -0.1458 -0.4846
 8845TIP3   OH248025   5.267   6.550  16.001  0.5074  0.3654 -0.1845
 8845TIP3    H148026   5.266   6.637  16.041 -0.1958 -0.7725  2.5182
 8845TIP3    H248027   5.175   6.525  15.994  0.7183 -0.4962 -0.0505
 8846TIP3   OH248028   0.204   2.956   2.125  0.2016  0.5944 -0.7398
 8846TIP3    H148029   0.180   3.030   2.069 -0.2956  0.6503 -0.4610
 8846TIP3    H248030   0.148   2.884   2.095  0.0424  0.5834 -0.4225
 8847TIP3   OH248031   4.043   1.796  11.495 -0.2868 -0.5037 -0.1495
 8847TIP3    H148032   3.977   1.778  11.562 -0.5706  0.8834 -0.0378
 8847TIP3    H248033   4.122   1.820  11.545  0.3167 -2.0957 -0.2827
 8848TIP3   OH248034   4.058   1.040   4.209  0.0606  0.0328 -0.4542
 8848TIP3    H148035   4.066   1.055   4.303 -0.6514 -1.2108 -0.1633
 8848TIP3    H248036   3.983   1.093   4.182  0.0706  0.1449 -0.2559
 8849TIP3   OH248037   3.814   4.226  17.037 -0.2288 -0.4751 -0.2228
 8849TIP3    H148038   3.834   4.260  17.124 -1.6609 -2.8727  1.1335
 8849TIP3    H248039   3.888   4.169  17.016  0.2556  0.3207 -0.7612
 8850TIP3   OH248040   0.516   0.481  11.001  0.7774 -0.1771  0.1657
 8850TIP3    H148041   0.488   0.554  11.055  0.5148 -1.7283  2.2732
 8850TIP3    H248042   0.609   0.497  10.984  1.4102 -0.6121  2.8676
 8851TIP3   OH248043   1.520   0.378  10.638 -0.2529  0.0350  0.2812
 8851TIP3    H148044   1.608   0.346  10.621 -0.4727  0.0465 -0.9405
 8851TIP3    H248045   1.493   0.420  10.557 -1.4353 -0.0733  0.5921
 8852TIP3   OH248046   2.634   0.603  14.924 -0.2092 -0.2427  0.5305
 8852TIP3    H148047   2.588   0.557  14.854 -0.8818  0.4813  0.4782
 8852TIP3    H248048   2.567   0.660  14.963  0.3127 -0.1706  1.3470
 8853TIP3   OH248049   1.708   3.519  11.930 -0.2563 -0.6537 -0.2902
 8853TIP3    H148050   1.749   3.480  11.853 -0.8165 -0.5567 -0.6404
 8853TIP3    H248051   1.778   3.571  11.971 -0.5092  1.1153 -1.9593
 8854TIP3   OH248052   5.047   6.163   3.589 -0.2096  0.5994 -0.6483
 8854TIP3    H148053   5.039   6.103   3.515 -1.6250  0.2171 -0.2215
 8854TIP3    H248054   4.980   6.230   3.573  0.2893  1.1878 -0.3181
 8855TIP3   OH248055   4.788   2.850   6.201  0.4242  0.3519 -0.2821
 8855TIP3    H148056   4.782   2.863   6.295 -0.1216 -2.8116  0.2334
 8855TIP3    H248057   4.702   2.876   6.167  0.5105  1.1706  0.1064
 8856TIP3   OH248058   5.215   5.632  11.775  0.3460  0.3583  0.0078
 8856TIP3    H148059   5.288   5.628  11.714  0.3605 -1.0761  0.0809
 8856TIP3    H248060   5.241   5.577  11.849 -1.0583 -0.7980 -0.2947
 8857TIP3   OH248061   2.088   3.091  11.997  0.4234 -0.2032  0.0446
 8857TIP3    H148062   2.084   3.111  11.904  0.1543 -0.5085 -0.0090
 8857TIP3    H248063   2.093   2.996  12.002  0.7539 -0.1756  0.3337
 8858TIP3   OH248064   0.228   5.343   3.359  0.1935  0.0013 -0.1995
 8858TIP3    H148065   0.227   5.248   3.366  1.4194 -0.0096  0.0522
 8858TIP3    H248066   0.171   5.362   3.285 -0.3245 -0.8989 -0.0504
 8859TIP3   OH248067   5.095   2.996   2.479 -0.5019  0.5206  0.2955
 8859TIP3    H148068   5.030   2.930   2.504  1.8519 -1.8073  0.6796
 8859TIP3    H248069   5.058   3.037   2.401 -1.5661 -2.1032 -0.7103
 8860TIP3   OH248070   2.951   6.525   4.509 -0.2937  0.2569 -0.6300
 8860TIP3    H148071   2.987   6.445   4.471  0.8498  0.8813 -0.9040
 8860TIP3    H248072   3.021   6.590   4.499 -1.1612  1.2625 -0.3110
 8861TIP3   OH248073   5.669   0.274  10.857  0.2695 -0.0097  0.0800
 8861TIP3    H148074   5.704   0.191  10.888  0.3545 -0.3260 -0.8199
 8861TIP3    H248075   5.578   0.275  10.885  0.2534 -0.4341  0.0409
 8862TIP3   OH248076   2.798   3.180  12.578 -1.0104 -0.9291 -0.2350
 8862TIP3    H148077   2.704   3.194  12.564 -0.9385  0.2180  0.3369
 8862TIP3    H248078   2.824   3.249  12.638  0.3348 -0.8574 -0.8652
 8863TIP3   OH248079   1.635   6.331  13.454  0.3950  0.2879  0.0929
 8863TIP3    H148080   1.598   6.311  13.368  1.5469 -0.6279 -0.2115
 8863TIP3    H248081   1.591   6.412  13.480 -0.0469  0.5391 -1.3177
 8864TIP3   OH248082   0.769   4.436   3.148 -1.0561  0.0870  0.4533
 8864TIP3    H148083   0.736   4.474   3.067  0.6924 -0.8688 -0.7690
 8864TIP3    H248084   0.722   4.352   3.155 -1.2556  0.1988  0.4821
 8865TIP3   OH248085   5.170   4.343   5.900  0.6480 -0.2532  0.7270
 8865TIP3    H148086   5.263   4.347   5.878  0.2709 -0.3182 -0.9607
 8865TIP3    H248087   5.132   4.284   5.835 -0.4537 -0.8686  1.8809
 8866TIP3   OH248088   6.452   6.035   6.362 -0.1113  0.1215 -0.3943
 8866TIP3    H148089   6.462   6.077   6.447 -1.6792  1.0121 -0.5952
 8866TIP3    H248090   6.505   5.956   6.367 -0.8948 -0.3249  1.7440
 8867TIP3   OH248091   3.320   3.641  17.196 -0.0351 -0.6065  0.0434
 8867TIP3    H148092   3.248   3.699  17.220  0.9454  1.2668 -1.2950
 8867TIP3    H248093   3.390   3.662  17.259 -0.3300 -1.8229  0.8147
 8868TIP3   OH248094   2.661   6.121  16.441  0.3670 -0.5888  0.1943
 8868TIP3    H148095   2.663   6.182  16.514 -0.3632 -0.8950  0.4844
 8868TIP3    H248096   2.578   6.140  16.396  0.7687 -0.4570 -0.5130
 8869TIP3   OH248097   0.295   2.485   5.427 -0.3806  0.2241 -0.1230
 8869TIP3    H148098   0.209   2.475   5.468 -0.7507 -0.0910 -0.9502
 8869TIP3    H248099   0.342   2.545   5.485 -0.9182 -0.1303  0.7021
 8870TIP3   OH248100   5.858   5.601   5.898 -0.3507 -0.3224  0.2241
 8870TIP3    H148101   5.802   5.628   5.826 -1.0391  0.1004  0.8908
 8870TIP3    H248102   5.843   5.668   5.965  2.3113  0.8356 -0.2233
 8871TIP3   OH248103   6.153   4.516  13.088 -0.1479 -0.1353 -0.3419
 8871TIP3    H148104   6.061   4.520  13.060 -0.2459  1.8326  0.1240
 8871TIP3    H248105   6.185   4.433  13.053 -1.3418  0.3819 -2.8539
 8872TIP3   OH248106   4.977   5.568   2.837  0.8373  0.3419  0.0369
 8872TIP3    H148107   5.007   5.540   2.750 -0.0029 -0.1866 -0.0988
 8872TIP3    H248108   4.912   5.502   2.862 -0.8027  1.8657 -0.0445
 8873TIP3   OH248109   3.869   4.770  12.286  0.3413 -0.2302  0.0712
 8873TIP3    H148110   3.811   4.714  12.338  1.3722 -1.2383  0.1942
 8873TIP3    H248111   3.912   4.709  12.225  1.6512  0.3772  0.3470
 8874TIP3   OH248112   0.352   5.585   0.302  0.2294 -0.3479 -0.1824
 8874TIP3    H148113   0.432   5.628   0.274  0.4297 -0.6077 -0.0182
 8874TIP3    H248114   0.376   5.493   0.311 -0.0005 -0.3737  0.1947
 8875TIP3   OH248115   2.288   4.486  12.530  0.6021 -0.9897  0.2016
 8875TIP3    H148116   2.270   4.574  12.562 -2.2568 -0.7476 -1.7018
 8875TIP3    H248117   2.332   4.443  12.603  1.0117  1.6317  1.6256
 8876TIP3   OH248118   4.435   1.086   3.879 -0.1005  0.0147 -0.6168
 8876TIP3    H148119   4.400   1.052   3.961 -0.8444  0.5960 -0.6826
 8876TIP3    H248120   4.361   1.131   3.839  0.7054  1.2254 -0.7842
 8877TIP3   OH248121   1.040   1.758   6.326 -0.1010  0.2255 -0.5378
 8877TIP3    H148122   1.069   1.730   6.413 -2.1999 -0.7916 -0.0851
 8877TIP3    H248123   1.098   1.713   6.265  0.4958 -0.2025  0.3292
 8878TIP3   OH248124   1.928   5.409   5.928 -0.4091 -0.7055 -0.1794
 8878TIP3    H148125   1.878   5.366   5.859 -0.9341  0.3842 -0.4938
 8878TIP3    H248126   1.894   5.371   6.009 -0.4999 -1.2467 -0.4693
 8879TIP3   OH248127   3.884   5.696  16.333 -0.2136  0.7115 -0.7785
 8879TIP3    H148128   3.973   5.667  16.351  0.2461  1.1760 -2.2043
 8879TIP3    H248129   3.830   5.646  16.394  1.0467  0.7598  0.4296
 8880TIP3   OH248130   0.632   3.232   5.782  0.7137  0.0296 -0.1894
 8880TIP3    H148131   0.702   3.168   5.796  1.9763  0.8395 -2.2581
 8880TIP3    H248132   0.555   3.180   5.759  0.7530 -0.8582  1.5515
 8881TIP3   OH248133   2.040   4.366   4.031  0.0921 -0.1310 -0.1219
 8881TIP3    H148134   2.041   4.447   4.081 -1.0660 -0.4410  0.4336
 8881TIP3    H248135   1.981   4.308   4.080 -2.5999  0.1662 -2.7879
 8882TIP3   OH248136   2.191   5.976  13.258  0.1694 -0.0717 -0.0327
 8882TIP3    H148137   2.246   5.913  13.304 -0.4699 -0.1961  0.5646
 8882TIP3    H248138   2.149   5.925  13.189 -0.2036 -0.2604  0.3327
 8883TIP3   OH248139   5.392   4.543  14.133 -0.1587 -0.4671  0.2116
 8883TIP3    H148140   5.303   4.517  14.109 -0.0971 -0.3784 -0.1075
 8883TIP3    H248141   5.446   4.467  14.111 -0.6604 -2.2134  4.1210
 8884TIP3   OH248142   1.772   5.090   0.109 -0.7136 -0.2289 -0.2663
 8884TIP3    H148143   1.763   5.001   0.075  1.7639 -0.9953  0.8587
 8884TIP3    H248144   1.841   5.130   0.056 -0.3846  0.3052  0.5387
 8885TIP3   OH248145   2.908   4.261   1.708 -0.2751 -0.4351  0.0166
 8885TIP3    H148146   2.853   4.303   1.642 -1.4360 -1.2684  0.4354
 8885TIP3    H248147   2.881   4.301   1.790 -0.8846 -1.4639  0.3322
 8886TIP3   OH248148   2.635   1.875  13.643 -0.8341 -0.1726  0.0683
 8886TIP3    H148149   2.602   1.785  13.644 -2.7720  0.4930  0.1852
 8886TIP3    H248150   2.570   1.924  13.593 -0.1626  1.2890  0.5680
 8887TIP3   OH248151   6.796   1.997   2.164  0.0462  0.3805  0.2160
 8887TIP3    H148152   6.887   2.027   2.169  0.4299 -0.6432 -0.3487
 8887TIP3    H248153   6.780   1.956   2.249  1.3262 -2.6489 -0.8709
 8888TIP3   OH248154   4.843   6.737  15.532  0.8583 -0.2380 -0.6433
 8888TIP3    H148155   4.893   6.682  15.593  0.8959 -0.4200 -0.8345
 8888TIP3    H248156   4.796   6.674  15.477  0.4173 -0.0692 -0.4649
 8889TIP3   OH248157   6.385   5.783  13.834 -0.0518 -0.0009  0.1585
 8889TIP3    H148158   6.308   5.726  13.834 -0.6169  0.6852  1.8935
 8889TIP3    H248159   6.423   5.773  13.746 -1.3504 -1.3696 -0.2843
 8890TIP3   OH248160   4.298   5.882   0.906  0.5657 -0.5007  0.2936
 8890TIP3    H148161   4.332   5.837   0.983  0.7388 -2.4084 -0.8545
 8890TIP3    H248162   4.205   5.861   0.905  0.6691 -0.9298 -0.3166
 8891TIP3   OH248163   2.736   1.984   1.790 -0.0570  0.0158 -0.5211
 8891TIP3    H148164   2.709   1.988   1.882 -1.2780 -1.9512 -0.7438
 8891TIP3    H248165   2.684   2.051   1.746  1.2361  1.6394  0.3422
 8892TIP3   OH248166   2.578   3.067  13.828  0.0080  0.4959 -0.0385
 8892TIP3    H148167   2.539   3.081  13.914 -0.5238 -3.0319  0.4646
 8892TIP3    H248168   2.671   3.054  13.845 -0.2238 -1.0718  0.2102
 8893TIP3   OH248169   6.145   5.609  12.655 -0.5388  0.3369 -0.0259
 8893TIP3    H148170   6.070   5.566  12.696  1.6191 -1.1476  2.7648
 8893TIP3    H248171   6.179   5.667  12.723  2.6247 -1.4420  0.1468
 8894TIP3   OH248172   1.501   3.456   5.574 -0.2506 -0.1026  0.3202
 8894TIP3    H148173   1.462   3.519   5.634  0.3755  0.9890 -0.3943
 8894TIP3    H248174   1.454   3.469   5.491 -0.7854 -1.2676  0.4093
 8895TIP3   OH248175   4.083   2.829  14.224  0.1026 -0.0817  0.4808
 8895TIP3    H148176   4.131   2.777  14.288 -0.0960 -1.3955 -0.4142
 8895TIP3    H248177   4.151   2.863  14.165  0.2162  0.5875  0.9811
 8896TIP3   OH248178   5.682   3.749  13.477  0.0419 -0.9369 -0.4939
 8896TIP3    H148179   5.704   3.679  13.538  0.4107 -0.3843  0.0110
 8896TIP3    H248180   5.586   3.749  13.474 -0.1683  0.9717  2.4198
 8897TIP3   OH248181   1.718   1.120   2.934 -0.0511 -0.9169 -0.5103
 8897TIP3    H148182   1.794   1.175   2.951  0.1755 -0.2719 -3.1495
 8897TIP3    H248183   1.645   1.168   2.971  0.6049 -0.7262  0.5757
 8898TIP3   OH248184   2.979   0.268  15.383  0.7390  0.2683 -0.2992
 8898TIP3    H148185   2.982   0.364  15.391 -1.2399  0.4272 -0.8698
 8898TIP3    H248186   2.942   0.253  15.296  3.2676 -1.0880 -1.2201
 8899TIP3   OH248187   1.969   4.183  12.138 -0.2382 -0.4413 -0.0717
 8899TIP3    H148188   1.990   4.267  12.178 -0.2603 -0.9170  0.9736
 8899TIP3    H248189   1.942   4.205  12.049 -1.0486  0.7347  0.4367
 8900TIP3   OH248190   5.664   4.628  11.789  0.4973 -0.3774 -0.0558
 8900TIP3    H148191   5.746   4.617  11.741 -0.7625 -1.3115 -2.0899
 8900TIP3    H248192   5.624   4.706  11.751 -0.5507 -1.1630 -0.6177
 8901TIP3   OH248193   3.923   4.573   5.236 -0.5645 -0.0197 -0.1891
 8901TIP3    H148194   4.002   4.622   5.258  0.2909 -0.7651 -1.4619
 8901TIP3    H248195   3.867   4.581   5.314  0.3822  1.2587  0.3938
 8902TIP3   OH248196   2.136   5.364  10.687  0.2638  0.6320  0.1005
 8902TIP3    H148197   2.151   5.321  10.604  2.4868  2.2490 -0.4243
 8902TIP3    H248198   2.140   5.294  10.752  2.3150 -0.1820 -0.8352
 8903TIP3   OH248199   4.383   5.429   1.001 -0.2539 -0.1286 -0.2562
 8903TIP3    H148200   4.449   5.483   1.044 -0.9267  1.7105 -1.4335
 8903TIP3    H248201   4.364   5.474   0.919 -1.8779 -1.4195 -0.6486
 8904TIP3   OH248202   6.311   3.138   3.859 -0.4010  0.0111 -0.1970
 8904TIP3    H148203   6.228   3.185   3.870  0.5655  1.7037  0.1780
 8904TIP3    H248204   6.287   3.046   3.870 -2.3299  0.3954 -0.7255
 8905TIP3   OH248205   0.267   1.939   1.196 -0.6666  0.0990 -0.6626
 8905TIP3    H148206   0.358   1.958   1.171 -0.6328 -0.1355 -0.7178
 8905TIP3    H248207   0.268   1.846   1.219 -0.1672  0.7830  2.5336
 8906TIP3   OH248208   2.707   0.850  10.402 -0.2350 -0.4684 -0.1421
 8906TIP3    H148209   2.665   0.925  10.362  0.1142 -0.6834 -0.9315
 8906TIP3    H248210   2.643   0.780  10.396 -0.4032 -0.3463  0.2142
 8907TIP3   OH248211   3.885   5.942   6.349  0.1528 -0.3830 -0.1233
 8907TIP3    H148212   3.835   5.868   6.383  0.1090 -0.9989 -1.4941
 8907TIP3    H248213   3.975   5.925   6.376  0.0224 -0.5351  0.2231
 8908TIP3   OH248214   5.967   4.053   3.394 -0.0670 -0.3036 -0.4004
 8908TIP3    H148215   6.055   4.038   3.429 -0.7678 -1.1207  1.1203
 8908TIP3    H248216   5.937   4.132   3.441 -0.2859 -0.2484 -0.6374
 8909TIP3   OH248217   6.286   2.407   4.891  0.0452 -0.2447 -0.0645
 8909TIP3    H148218   6.260   2.483   4.840  0.1108  0.4006  0.8400
 8909TIP3    H248219   6.338   2.442   4.963  0.3203 -1.1712  0.2129
 8910TIP3   OH248220   6.801   0.127  14.812  0.2523 -0.6463 -0.6645
 8910TIP3    H148221   6.798   0.222  14.807 -1.0050 -0.6619 -0.4338
 8910TIP3    H248222   6.894   0.105  14.801  1.0974  0.7852  2.5903
 8911TIP3   OH248223   6.776   1.850  16.442  0.9032  0.6681  0.4434
 8911TIP3    H148224   6.829   1.910  16.390  0.3559  0.4342 -0.3984
 8911TIP3    H248225   6.709   1.817  16.381  0.0673  0.6130  1.3662
 8912TIP3   OH248226   5.222   6.520   3.384  0.6852 -0.0704 -0.7733
 8912TIP3    H148227   5.302   6.496   3.432  0.7058 -0.5205 -1.0233
 8912TIP3    H248228   5.249   6.518   3.292  0.2939 -0.5879 -0.8790
 8913TIP3   OH248229   0.219   3.809   3.535  0.2862  0.5684  0.4662
 8913TIP3    H148230   0.186   3.758   3.461 -1.3431 -0.2178  1.6738
 8913TIP3    H248231   0.240   3.894   3.497  0.5958 -0.1678 -1.1103
 8914TIP3   OH248232   6.533   1.480   0.676  0.1071  0.7389  0.1430
 8914TIP3    H148233   6.502   1.530   0.601  1.6269 -0.3301 -1.2896
 8914TIP3    H248234   6.615   1.441   0.646  0.7285  0.1955  2.3533
 8915TIP3   OH248235   4.891   3.427  12.934 -0.0529 -0.5377 -0.5315
 8915TIP3    H148236   4.807   3.466  12.907  0.4080  0.8372 -0.0843
 8915TIP3    H248237   4.877   3.399  13.024  0.5567  1.7175  0.3355
 8916TIP3   OH248238   1.909   3.603   4.408  0.1270 -0.1104  0.1564
 8916TIP3    H148239   1.829   3.656   4.408  0.1585 -0.0626  0.1105
 8916TIP3    H248240   1.878   3.513   4.404  0.0183 -0.1860  1.9500
 8917TIP3   OH248241   4.374   2.009  11.568  0.0413  0.0701  0.2731
 8917TIP3    H148242   4.456   2.053  11.590  0.9130 -1.2759 -0.1631
 8917TIP3    H248243   4.394   1.961  11.488 -1.3257  0.0868 -0.0934
 8918TIP3   OH248244   4.527   5.565   4.075 -0.3010 -0.1581 -0.8582
 8918TIP3    H148245   4.565   5.484   4.111 -1.4899 -0.3688  0.0196
 8918TIP3    H248246   4.570   5.577   3.991  3.0728  0.6704  0.8229
 8919TIP3   OH248247   3.041   3.350   4.236 -0.0018  0.3503  0.4641
 8919TIP3    H148248   2.964   3.305   4.199  0.9320 -1.5560  0.6973
 8919TIP3    H248249   3.050   3.313   4.323  1.0954  0.6753  0.4931
 8920TIP3   OH248250   2.111   3.459  12.532 -0.9149 -0.2341  0.1778
 8920TIP3    H148251   2.153   3.534  12.491 -0.5642 -0.2288  0.5439
 8920TIP3    H248252   2.020   3.486  12.545 -0.8634  0.0107  0.0240
 8921TIP3   OH248253   0.317   2.878   0.448 -0.4420 -0.8675 -0.1307
 8921TIP3    H148254   0.225   2.880   0.423 -0.5574 -4.1012 -0.3010
 8921TIP3    H248255   0.365   2.876   0.365 -0.3401 -1.6240 -0.0553
 8922TIP3   OH248256   0.735   3.072   0.178 -0.2568  0.4859  1.0775
 8922TIP3    H148257   0.829   3.072   0.163  0.0322  1.0677  2.6584
 8922TIP3    H248258   0.699   3.015   0.111  1.3715 -0.8411  1.2937
 8923TIP3   OH248259   5.943   2.930  13.655 -0.2955  0.4515 -0.3828
 8923TIP3    H148260   6.012   2.869  13.628 -0.3608 -0.2197  0.9128
 8923TIP3    H248261   5.958   3.008  13.601  1.3096  0.2249 -0.3161
 8924TIP3   OH248262   5.109   0.593   0.703  0.2162  0.3180 -0.0666
 8924TIP3    H148263   5.082   0.538   0.630 -0.5243  1.7163 -0.8859
 8924TIP3    H248264   5.086   0.543   0.781 -0.3631 -0.5563 -0.7834
 8925TIP3   OH248265   6.355   2.672   5.583 -0.8160  0.2807 -0.1599
 8925TIP3    H148266   6.262   2.688   5.602 -0.1448  2.6054  1.6460
 8925TIP3    H248267   6.387   2.625   5.660 -0.3478  0.1415 -0.4408
 8926TIP3   OH248268   3.427   5.235   1.866  0.0086  0.4503 -0.2120
 8926TIP3    H148269   3.381   5.259   1.786  0.1204  1.5283  0.0356
 8926TIP3    H248270   3.367   5.175   1.911 -0.8826  1.3192 -0.2064
 8927TIP3   OH248271   2.754   3.843  11.332 -0.0801 -0.3436  0.1042
 8927TIP3    H148272   2.838   3.888  11.320  0.4795 -1.2790  0.4665
 8927TIP3    H248273   2.689   3.914  11.331  0.7185  0.4070 -0.0228
 8928TIP3   OH248274   0.335   1.725  15.934 -0.1622 -0.1729  0.7066
 8928TIP3    H148275   0.389   1.705  15.858 -0.2378  0.2787  0.5317
 8928TIP3    H248276   0.383   1.793  15.981 -0.8278  0.6361  0.2527
 8929TIP3   OH248277   0.954   6.166   2.706 -0.4051  0.5745  0.4835
 8929TIP3    H148278   0.982   6.245   2.659  0.5175  1.3374  2.2323
 8929TIP3    H248279   0.984   6.094   2.650  1.5672  1.4339  0.3399
 8930TIP3   OH248280   4.838   1.042  14.515  0.0124  0.1450  0.0343
 8930TIP3    H148281   4.913   1.052  14.455 -0.2371  2.9976  0.0502
 8930TIP3    H248282   4.771   0.998  14.462  0.8311 -0.1290 -0.8075
 8931TIP3   OH248283   5.961   0.712  11.805  0.8040 -0.5519  0.0823
 8931TIP3    H148284   5.866   0.714  11.791  0.7288 -0.0110  0.6240
 8931TIP3    H248285   5.977   0.628  11.847  0.6856 -1.0305 -0.8087
 8932TIP3   OH248286   5.430   5.492  13.234 -0.1995  0.1301  0.0405
 8932TIP3    H148287   5.363   5.450  13.182 -0.4760  0.5741  0.0332
 8932TIP3    H248288   5.493   5.422  13.253  0.8061  0.2876 -2.3028
 8933TIP3   OH248289   0.519   5.598  15.972  0.1849  0.4416  0.3843
 8933TIP3    H148290   0.523   5.626  16.063  0.3666 -1.6028  1.0639
 8933TIP3    H248291   0.605   5.558  15.956 -0.0217  0.3408 -0.5311
 8934TIP3   OH248292   2.038   1.590   2.600 -0.2144 -0.5730  0.4314
 8934TIP3    H148293   1.970   1.625   2.543 -0.2828 -0.5245  0.5428
 8934TIP3    H248294   2.115   1.582   2.544  0.8165  2.9020  1.1327
 8935TIP3   OH248295   5.126   1.723   3.093  0.6056 -0.3844 -0.5753
 8935TIP3    H148296   5.133   1.679   3.009  0.0649  1.0105 -1.3771
 8935TIP3    H248297   5.072   1.800   3.076  2.9584  1.5978  0.3588
 8936TIP3   OH248298   6.520   5.309   5.863 -0.0510  0.1668  0.0163
 8936TIP3    H148299   6.575   5.365   5.808  0.3315 -0.9468 -0.7800
 8936TIP3    H248300   6.431   5.335   5.840  0.1167  0.3308 -0.4717
 8937TIP3   OH248301   3.774   3.016   4.226 -0.5341  0.1117 -0.2694
 8937TIP3    H148302   3.813   2.945   4.276 -1.0598  0.3576  0.5102
 8937TIP3    H248303   3.833   3.029   4.152 -0.0686 -0.6651 -0.0404
 8938TIP3   OH248304   2.050   1.476   0.315  0.6524  0.5034 -0.5690
 8938TIP3    H148305   2.046   1.545   0.382 -1.1593 -0.1186  0.0195
 8938TIP3    H248306   2.025   1.521   0.234  0.3187  0.7290 -0.3458
 8939TIP3   OH248307   1.872   1.867  15.194  0.0971 -0.1818 -0.0140
 8939TIP3    H148308   1.870   1.958  15.222 -0.5202  0.0515 -0.7850
 8939TIP3    H248309   1.904   1.819  15.271  0.4846  0.6817  0.3777
 8940TIP3   OH248310   0.087   6.480   1.739  0.4198 -0.1766  0.0559
 8940TIP3    H148311   0.031   6.414   1.697 -0.0987  0.1709  0.1852
 8940TIP3    H248312   0.025   6.546   1.771  0.7785 -0.5957  1.6783
 8941TIP3   OH248313   4.006   2.698  13.463 -0.4585 -0.4309  0.0177
 8941TIP3    H148314   3.926   2.664  13.505  0.5350 -1.2881  1.2964
 8941TIP3    H248315   4.074   2.686  13.529  0.4720  1.6531 -0.4958
 8942TIP3   OH248316   1.961   5.164   4.650 -0.1617 -0.3322  0.1974
 8942TIP3    H148317   1.876   5.127   4.673 -0.8487  0.6260 -0.7443
 8942TIP3    H248318   2.012   5.159   4.731 -1.5659  0.3655  1.1581
 8943TIP3   OH248319   6.389   0.523   3.092 -0.2872  0.3721  0.4729
 8943TIP3    H148320   6.426   0.594   3.040 -2.6853  1.6303  0.3570
 8943TIP3    H248321   6.343   0.468   3.028 -0.8866  0.3613  0.9069
 8944TIP3   OH248322   5.820   5.695  14.534  0.4796  0.1695  0.4185
 8944TIP3    H148323   5.851   5.763  14.594  0.9544 -0.1965  0.5948
 8944TIP3    H248324   5.867   5.711  14.452  1.4723 -0.6277  0.8052
 8945TIP3   OH248325   1.419   3.736   2.451  0.1797  0.9086  0.5975
 8945TIP3    H148326   1.325   3.724   2.465  0.4861 -0.9933  1.2293
 8945TIP3    H248327   1.460   3.702   2.531  1.4690  0.2797 -0.2958
 8946TIP3   OH248328   5.024   1.130  14.338  0.1404 -0.3227  0.1330
 8946TIP3    H148329   5.032   1.219  14.371  0.7531  0.0999 -1.1060
 8946TIP3    H248330   5.046   1.136  14.245  2.3328 -2.1088  0.4480
 8947TIP3   OH248331   3.860   0.753   6.184 -0.5861 -0.0470  0.1430
 8947TIP3    H148332   3.810   0.788   6.111 -0.7572  0.2975  0.4256
 8947TIP3    H248333   3.881   0.828   6.239  1.8517  0.1411 -0.8934
 8948TIP3   OH248334   5.980   2.763  11.560  1.0328 -0.2280 -0.1445
 8948TIP3    H148335   6.038   2.837  11.577  1.0502 -0.0224 -1.0870
 8948TIP3    H248336   5.892   2.800  11.561  1.0344 -0.2110 -0.5013
 8949TIP3   OH248337   1.616   6.580  11.764 -0.0854 -0.4477 -0.1009
 8949TIP3    H148338   1.616   6.524  11.841  0.6261 -0.7842 -0.3313
 8949TIP3    H248339   1.657   6.527  11.696  0.1593  0.1775 -0.4533
 8950TIP3   OH248340   5.338   4.081  13.550  0.1355 -0.5718  0.0087
 8950TIP3    H148341   5.296   4.009  13.596  2.7577 -1.7366  0.7755
 8950TIP3    H248342   5.330   4.057  13.457 -0.4121 -1.0266  0.1639
 8951TIP3   OH248343   3.686   3.451  16.152 -0.1800  0.1714  0.2896
 8951TIP3    H148344   3.710   3.443  16.244  0.0783  1.5993  0.3538
 8951TIP3    H248345   3.662   3.543  16.140  1.4125  0.4265 -1.4506
 8952TIP3   OH248346   5.541   4.664   1.083 -0.0571  0.2015 -0.2066
 8952TIP3    H148347   5.564   4.588   1.029 -1.1512  0.0057 -0.4377
 8952TIP3    H248348   5.554   4.634   1.173  0.4997  0.0861 -0.3208
 8953TIP3   OH248349   4.914   5.054  12.758 -0.0230 -0.4719 -0.7022
 8953TIP3    H148350   4.914   4.959  12.747  1.0043 -0.4922 -0.5962
 8953TIP3    H248351   4.902   5.089  12.669  1.8736 -0.6963 -1.0896
 8954TIP3   OH248352   3.206   4.305   6.523 -0.0334 -0.1313  0.7898
 8954TIP3    H148353   3.201   4.262   6.609 -0.7604 -1.0472  0.3045
 8954TIP3    H248354   3.300   4.307   6.503  0.0673 -0.8369  1.1600
 8955TIP3   OH248355   6.260   5.521  15.433 -0.6994  0.7888  0.2087
 8955TIP3    H148356   6.172   5.495  15.407 -0.1676 -0.4956 -0.3474
 8955TIP3    H248357   6.250   5.612  15.463 -1.7601  1.5704 -2.2449
 8956TIP3   OH248358   2.331   2.937  16.798  0.4459  0.5729  0.0211
 8956TIP3    H148359   2.387   2.949  16.875  0.9388 -1.8887  0.1084
 8956TIP3    H248360   2.377   2.874  16.743 -1.5280 -0.3871 -0.6375
 8957TIP3   OH248361   4.112   3.822  12.226  0.3666  0.2159 -1.0751
 8957TIP3    H148362   4.151   3.738  12.251 -0.3407 -0.1444 -1.1682
 8957TIP3    H248363   4.019   3.803  12.216  0.2583  0.9343 -1.4541
 8958TIP3   OH248364   0.628   1.768  16.012  0.6693  0.5232  0.3867
 8958TIP3    H148365   0.723   1.762  16.020  0.6756  1.1881  0.9369
 8958TIP3    H248366   0.610   1.751  15.920  1.1328 -1.7057  0.6483
 8959TIP3   OH248367   5.965   5.566  11.485  0.0513  0.3060 -0.2116
 8959TIP3    H148368   6.060   5.558  11.489  0.0953  1.2398  1.0797
 8959TIP3    H248369   5.934   5.539  11.571 -0.6216  2.5007  0.3101
 8960TIP3   OH248370   5.485   0.198  16.933  0.1412 -0.0666 -0.3596
 8960TIP3    H148371   5.577   0.210  16.913  0.0663  0.0471 -0.6329
 8960TIP3    H248372   5.479   0.211  17.028  0.7002 -1.8473 -0.0402
 8961TIP3   OH248373   0.269   4.371   3.980  0.7519  0.1124 -0.4628
 8961TIP3    H148374   0.188   4.383   4.029 -0.2028 -0.0542 -1.9288
 8961TIP3    H248375   0.270   4.277   3.959  0.8630  0.2673 -1.1882
 8962TIP3   OH248376   0.012   1.409   0.804  0.2614 -0.2609 -0.0667
 8962TIP3    H148377  -0.017   1.493   0.770  2.0145  1.1318  1.6377
 8962TIP3    H248378  -0.069   1.362   0.826 -0.7389  1.2448 -0.4216
 8963TIP3   OH248379   4.861   2.090  14.041 -0.1998 -0.2987  0.0103
 8963TIP3    H148380   4.780   2.141  14.043  0.4063  0.6621  0.4804
 8963TIP3    H248381   4.899   2.102  14.128 -0.6277 -2.5535  0.5747
 8964TIP3   OH248382   6.198   2.583   3.000 -0.3728  0.5952  0.5157
 8964TIP3    H148383   6.273   2.530   3.029  0.6281  2.1276  0.8421
 8964TIP3    H248384   6.237   2.652   2.947 -1.8549 -0.0989 -1.5945
 8965TIP3   OH248385   0.012   2.058  16.292 -0.1459  0.2736 -0.2591
 8965TIP3    H148386  -0.018   2.108  16.216  0.3836 -0.2421 -0.8112
 8965TIP3    H248387   0.105   2.045  16.278 -0.1435 -0.2786  0.2255
 8966TIP3   OH248388   5.253   5.274   2.615  0.2540  0.7467 -0.1590
 8966TIP3    H148389   5.311   5.240   2.684 -0.0680  0.5320  0.0090
 8966TIP3    H248390   5.210   5.196   2.579  1.8488  0.6271 -1.9413
 8967TIP3   OH248391   0.568   2.270  10.730  0.0733 -0.1358 -0.1801
 8967TIP3    H148392   0.609   2.302  10.650  1.4430 -1.9566 -0.2593
 8967TIP3    H248393   0.624   2.303  10.801  1.3013 -1.9626 -0.2452
 8968TIP3   OH248394   5.769   3.024   1.793 -0.1519 -0.0503  0.0309
 8968TIP3    H148395   5.768   2.948   1.852 -2.0807 -0.2562 -0.2074
 8968TIP3    H248396   5.750   3.099   1.850 -0.0788  0.0147 -0.0293
 8969TIP3   OH248397   5.899   5.488  13.668 -0.0619 -0.2485 -0.2573
 8969TIP3    H148398   5.921   5.459  13.579  0.4841  1.0277 -0.5663
 8969TIP3    H248399   5.825   5.548  13.657 -0.4193 -0.5911  0.2300
 8970TIP3   OH248400   3.056   2.846  10.506 -0.0793 -0.8173 -0.3839
 8970TIP3    H148401   3.087   2.756  10.500  0.6316 -0.5208 -1.2575
 8970TIP3    H248402   3.105   2.894  10.439  0.1694  0.3997  0.6147
 8971TIP3   OH248403   1.495   3.926  13.834  0.1413 -0.3060 -0.8918
 8971TIP3    H148404   1.440   3.849  13.851  0.5386 -0.5613 -0.7628
 8971TIP3    H248405   1.527   3.952  13.920  0.6460 -0.4714 -1.0293
 8972TIP3   OH248406   1.547   6.661  12.731  0.1684  0.2357  0.5817
 8972TIP3    H148407   1.615   6.712  12.775  1.7830  0.0317 -1.5485
 8972TIP3    H248408   1.595   6.600  12.675 -1.7517 -1.7848  0.9950
 8973TIP3   OH248409   3.958   4.692  13.272  0.1818 -0.7079 -0.7721
 8973TIP3    H148410   3.915   4.777  13.269 -0.3006 -0.9394 -0.5488
 8973TIP3    H248411   3.909   4.642  13.338  1.7614 -0.4676  0.6557
 8974TIP3   OH248412   4.249   0.285   0.285  0.2492 -0.2505  0.4513
 8974TIP3    H148413   4.289   0.240   0.359  0.0908  1.2754  1.4913
 8974TIP3    H248414   4.319   0.341   0.250 -0.1042  0.1695  0.4048
 8975TIP3   OH248415   0.822   0.620   4.912  0.5107 -0.6405  0.0040
 8975TIP3    H148416   0.855   0.556   4.849 -0.1048 -1.4930  0.5263
 8975TIP3    H248417   0.826   0.703   4.865 -1.3561 -1.4505 -1.7193
 8976TIP3   OH248418   3.380   0.334  14.373 -0.6416  0.2243 -0.2949
 8976TIP3    H148419   3.455   0.390  14.389 -0.8814  0.5865 -0.4263
 8976TIP3    H248420   3.332   0.377  14.301  0.4840 -1.4305 -2.1349
 8977TIP3   OH248421   0.301   6.353   4.720  0.3022  0.6426 -0.0971
 8977TIP3    H148422   0.223   6.343   4.665  0.3084  1.8452 -0.3543
 8977TIP3    H248423   0.374   6.333   4.662  0.2391  0.3865 -0.0931
 8978TIP3   OH248424   5.567   1.166  15.677 -0.6980  0.3643  0.0759
 8978TIP3    H148425   5.639   1.215  15.637  0.2881 -1.7154 -0.8638
 8978TIP3    H248426   5.491   1.223  15.667  0.8913  3.0274  1.8702
 8979TIP3   OH248427   2.908   2.698  17.152  0.0150  0.4791 -0.4318
 8979TIP3    H148428   2.876   2.784  17.178  1.8579  1.2711 -0.5670
 8979TIP3    H248429   3.002   2.712  17.135  0.5767 -1.7610  0.4718
 8980TIP3   OH248430   4.760   0.932   4.586 -0.1614 -0.3278 -0.0920
 8980TIP3    H148431   4.714   0.986   4.651 -0.2367 -0.0536 -0.3719
 8980TIP3    H248432   4.757   0.843   4.622  0.4672 -0.0616  0.6637
 8981TIP3   OH248433   5.124   2.622  15.453  0.0986 -0.3345  0.0086
 8981TIP3    H148434   5.037   2.644  15.420 -0.9704 -1.6669  1.6954
 8981TIP3    H248435   5.106   2.566  15.529  2.3413  1.9239  2.3851
 8982TIP3   OH248436   5.946   0.206  12.051  0.0627 -0.4467  0.6233
 8982TIP3    H148437   5.904   0.283  12.089 -0.3272  0.1442 -0.9356
 8982TIP3    H248438   6.038   0.231  12.042 -0.0003 -0.2961  0.4149
 8983TIP3   OH248439   6.511   4.037   1.609  0.1023  0.5443  0.1132
 8983TIP3    H148440   6.429   3.998   1.637 -0.6560  1.7261 -0.3925
 8983TIP3    H248441   6.571   3.963   1.598 -1.0030 -0.3636  0.0949
 8984TIP3   OH248442   4.111   6.433  11.173 -0.3244 -0.2471  0.2390
 8984TIP3    H148443   4.155   6.412  11.091 -2.1579 -0.4203 -0.7670
 8984TIP3    H248444   4.054   6.507  11.151 -0.2422  0.2387  1.5751
 8985TIP3   OH248445   1.333   5.297   2.072 -0.2331  0.0949 -0.0345
 8985TIP3    H148446   1.280   5.367   2.110 -2.0452 -0.7194 -0.9685
 8985TIP3    H248447   1.423   5.328   2.081 -0.8036  1.2976  2.0525
 8986TIP3   OH248448   2.464   4.739   0.571  0.3688 -0.1340 -0.5578
 8986TIP3    H148449   2.531   4.735   0.503  1.4856  0.6630  0.4570
 8986TIP3    H248450   2.460   4.832   0.596 -0.4817 -0.3092  0.0153
 8987TIP3   OH248451   2.403   3.233  15.322  0.9525 -0.6008  0.5353
 8987TIP3    H148452   2.457   3.259  15.247  1.1187  1.9545  1.4426
 8987TIP3    H248453   2.451   3.265  15.398 -1.2142  0.6713  1.4622
 8988TIP3   OH248454   2.385   1.804   0.433  0.5593 -0.4782  0.1536
 8988TIP3    H148455   2.300   1.841   0.410  0.1610 -1.8246 -0.6917
 8988TIP3    H248456   2.392   1.816   0.528  0.4504  1.6512 -0.0515
 8989TIP3   OH248457   5.465   2.395  11.915 -0.1821  0.1872  0.0732
 8989TIP3    H148458   5.532   2.418  11.851  1.4888 -1.8275  0.9567
 8989TIP3    H248459   5.502   2.422  11.999 -0.4544 -0.9702  0.5826
 8990TIP3   OH248460   4.151   3.663   1.882 -0.2277  0.0295 -0.5159
 8990TIP3    H148461   4.104   3.742   1.910  0.9830  0.5025  0.2666
 8990TIP3    H248462   4.242   3.690   1.876  0.2573 -1.3834  0.0608
 8991TIP3   OH248463   1.978   2.848   2.848 -0.4280 -0.2883 -0.0313
 8991TIP3    H148464   2.062   2.866   2.890 -0.9050  1.7961  0.1046
 8991TIP3    H248465   1.921   2.819   2.919 -0.8147  1.8028  0.5722
 8992TIP3   OH248466   4.662   4.050   1.887 -0.8020 -0.7286  0.1496
 8992TIP3    H148467   4.686   4.126   1.833 -1.1424 -0.3539  0.5197
 8992TIP3    H248468   4.719   3.980   1.856  0.5068  0.0426  0.7339
 8993TIP3   OH248469   1.991   4.167   2.505 -0.1616  0.2952 -0.2337
 8993TIP3    H148470   1.910   4.117   2.495  0.1726 -0.4687  0.6592
 8993TIP3    H248471   1.968   4.238   2.566 -0.1425  0.0111  0.1101
 8994TIP3   OH248472   1.179   4.597  16.515  0.4552 -0.8190  0.3724
 8994TIP3    H148473   1.172   4.572  16.607 -1.2457 -0.1491  0.4598
 8994TIP3    H248474   1.181   4.513  16.468  1.5008 -1.1681  0.9977
 8995TIP3   OH248475   3.312   5.952  12.690  0.1362 -0.0589  0.3491
 8995TIP3    H148476   3.298   5.878  12.749 -1.3891  0.3314  0.5076
 8995TIP3    H248477   3.349   5.913  12.611 -0.2799 -0.9339  0.5709
 8996TIP3   OH248478   0.046   5.939   3.332 -0.0413  0.2044  0.3130
 8996TIP3    H148479   0.043   5.886   3.252  0.8546 -0.0444  0.4342
 8996TIP3    H248480   0.003   6.021   3.308 -0.8683 -0.3266 -0.0643
 8997TIP3   OH248481   2.758   2.557  15.489 -0.4674 -0.5869 -0.5043
 8997TIP3    H148482   2.821   2.485  15.498  0.8459  0.3803 -1.5707
 8997TIP3    H248483   2.713   2.539  15.407  0.8815  0.5157 -1.5326
 8998TIP3   OH248484   0.197   1.616   1.956 -0.3910 -0.5438 -0.1360
 8998TIP3    H148485   0.260   1.548   1.979  0.6386  0.5764  0.4815
 8998TIP3    H248486   0.229   1.694   2.000 -0.1956  0.9288 -2.6648
 8999TIP3   OH248487   6.805   3.663   6.191 -0.5605  0.5287  0.7665
 8999TIP3    H148488   6.770   3.737   6.240  0.0484 -0.0871  2.2055
 8999TIP3    H248489   6.733   3.601   6.185 -0.8653  0.9366  0.1819
 9000TIP3   OH248490   1.776   4.905  14.031  0.3580  0.2691  0.1172
 9000TIP3    H148491   1.772   4.857  13.948 -1.9128  0.0350  0.2941
 9000TIP3    H248492   1.731   4.988  14.013  1.5849  1.0744  0.6234
 9001TIP3   OH248493   3.694   2.765  13.960 -0.3959 -0.0474 -0.3399
 9001TIP3    H148494   3.746   2.759  13.880  0.1525  0.6761 -0.0515
 9001TIP3    H248495   3.741   2.829  14.015 -0.1729 -1.3190  1.0041
 9002TIP3   OH248496   6.810   2.809  14.024  0.7424 -0.0412 -0.1540
 9002TIP3    H148497   6.882   2.846  14.076  0.7186 -0.8858  0.4913
 9002TIP3    H248498   6.823   2.715  14.028 -1.8539 -0.4176  2.1973
 9003TIP3   OH248499   0.227   3.661   1.440  0.4864 -0.1019  0.7856
 9003TIP3    H148500   0.318   3.652   1.469  1.1873 -0.8658 -1.4949
 9003TIP3    H248501   0.214   3.590   1.378 -2.8418 -2.3114  3.6296
 9004TIP3   OH248502   3.884   3.045  17.026  0.4280  0.2084 -0.5931
 9004TIP3    H148503   3.852   3.082  17.108 -0.4523 -2.9449  0.6679
 9004TIP3    H248504   3.961   2.994  17.051  0.4773 -0.3498 -1.8150
 9005TIP3   OH248505   1.854   0.611  12.203 -0.0200  0.2922 -0.3531
 9005TIP3    H148506   1.896   0.655  12.129 -1.5072 -1.0318 -2.0524
 9005TIP3    H248507   1.793   0.677  12.237  0.2776  0.7268 -0.6385
 9006TIP3   OH248508   1.270   3.398   2.592 -0.6716  0.4582 -0.2296
 9006TIP3    H148509   1.218   3.478   2.592 -1.0374  0.2260  0.3891
 9006TIP3    H248510   1.237   3.348   2.667  1.6499  1.0798  1.3038
 9007TIP3   OH248511   5.156   1.928   5.194 -0.4219 -0.5657 -0.1654
 9007TIP3    H148512   5.166   2.003   5.253  1.2098 -1.1091  0.3064
 9007TIP3    H248513   5.164   1.965   5.106  0.3266 -0.1738  0.0610
 9008TIP3   OH248514   1.693   2.346   4.735 -0.3348 -0.7391 -0.1347
 9008TIP3    H148515   1.694   2.259   4.696  1.7131 -0.1787 -1.4800
 9008TIP3    H248516   1.655   2.402   4.667 -0.6792 -0.4148  0.3227
 9009TIP3   OH248517   0.618   5.065   0.729 -0.2354 -0.0632 -0.0205
 9009TIP3    H148518   0.546   5.014   0.691 -0.4295 -0.1984  0.5243
 9009TIP3    H248519   0.579   5.113   0.802 -0.3567  1.9409 -1.3352
 9010TIP3   OH248520   1.754   4.246  15.856 -0.9216  0.1449 -0.3831
 9010TIP3    H148521   1.753   4.202  15.771  0.1867 -0.7193  0.0300
 9010TIP3    H248522   1.814   4.320  15.844  0.3690 -0.8086  0.0225
 9011TIP3   OH248523   3.993   4.445  11.723 -1.1235 -0.2862 -0.0412
 9011TIP3    H148524   4.084   4.465  11.698 -0.4509 -1.6098  1.1927
 9011TIP3    H248525   3.946   4.527  11.708  0.3961  0.6233 -0.1187
 9012TIP3   OH248526   4.598   3.121  13.213 -0.4214 -0.0065  0.3032
 9012TIP3    H148527   4.572   3.101  13.124 -0.0092  1.4279 -0.1663
 9012TIP3    H248528   4.691   3.145  13.207 -0.4594  0.3846  1.0617
 9013TIP3   OH248529   5.717   5.404  12.132 -0.1997  0.0499  0.5792
 9013TIP3    H148530   5.717   5.497  12.156  1.7572  0.2537  0.0176
 9013TIP3    H248531   5.799   5.392  12.084 -0.9185 -1.7535 -0.2944
 9014TIP3   OH248532   0.746   4.374   4.684 -0.2796 -0.1289  0.4223
 9014TIP3    H148533   0.778   4.427   4.611  0.3760 -0.7261  0.2730
 9014TIP3    H248534   0.650   4.379   4.676 -0.2203  0.3514 -0.0738
 9015TIP3   OH248535   2.851   2.952  13.877 -0.0153 -0.5523 -0.2402
 9015TIP3    H148536   2.854   2.939  13.972  0.3237 -1.0516 -0.3157
 9015TIP3    H248537   2.913   2.888  13.842  1.8471  1.3651 -0.6374
 9016TIP3   OH248538   5.655   5.877  10.546 -0.9266  0.0637 -0.5091
 9016TIP3    H148539   5.723   5.930  10.504 -0.3637  0.8534  1.2821
 9016TIP3    H248540   5.651   5.911  10.636 -2.3260 -1.2813 -0.0262
 9017TIP3   OH248541   5.544   4.613   2.665 -0.0472  0.1361  0.5876
 9017TIP3    H148542   5.507   4.698   2.689 -0.6758  0.4467 -1.3334
 9017TIP3    H248543   5.498   4.550   2.719 -0.9577  0.8519  0.6614
 9018TIP3   OH248544   4.563   0.270  14.479  0.0080 -0.0931  0.1559
 9018TIP3    H148545   4.498   0.257  14.410 -0.2542  0.4886  0.2871
 9018TIP3    H248546   4.531   0.218  14.553  0.0955 -0.4164 -0.0298
 9019TIP3   OH248547   6.729   3.297  13.678 -0.1675  0.3098 -0.5145
 9019TIP3    H148548   6.649   3.318  13.725  0.5765  1.3188  0.3674
 9019TIP3    H248549   6.733   3.361  13.607 -0.3000  0.0640 -0.7424
 9020TIP3   OH248550   6.391   2.395   1.029 -0.7513 -0.3489  0.5642
 9020TIP3    H148551   6.383   2.363   0.939  0.9286  0.1309  0.2198
 9020TIP3    H248552   6.351   2.482   1.027  0.0693  0.0276  0.0541
 9021TIP3   OH248553   2.233   0.390   1.624  0.0437 -0.2326 -0.0201
 9021TIP3    H148554   2.152   0.425   1.586  0.6051 -0.4982 -1.5453
 9021TIP3    H248555   2.209   0.368   1.714 -1.0207  1.5680  0.1856
 9022TIP3   OH248556   1.800   4.726   2.521 -0.0637  0.2574 -0.0229
 9022TIP3    H148557   1.855   4.797   2.555 -0.1045  0.3327 -0.1160
 9022TIP3    H248558   1.725   4.771   2.481 -0.2883  0.1475  0.2750
 9023TIP3   OH248559   2.674   4.791   2.806  0.5824  0.5466  0.0975
 9023TIP3    H148560   2.718   4.718   2.852  0.2930 -0.5011 -1.2239
 9023TIP3    H248561   2.611   4.748   2.749 -0.9623  1.9572  0.6860
 9024TIP3   OH248562   5.891   2.897   6.026 -0.2050  0.6747 -0.5376
 9024TIP3    H148563   5.802   2.890   5.989 -0.8501  2.8923  0.4468
 9024TIP3    H248564   5.879   2.877   6.119  0.5504 -0.0995 -0.5966
 9025TIP3   OH248565   0.983   1.672  11.051  0.3513 -0.0498  0.3906
 9025TIP3    H148566   0.899   1.701  11.084  1.1883  1.0774  1.6199
 9025TIP3    H248567   1.026   1.632  11.126  1.4352  0.5785  0.1230
 9026TIP3   OH248568   0.726   2.676   5.404  0.2650 -0.2314 -0.2084
 9026TIP3    H148569   0.782   2.677   5.481 -0.7075 -0.9285  0.5272
 9026TIP3    H248570   0.754   2.753   5.353  0.8411  0.3048  0.8835
 9027TIP3   OH248571   3.299   0.411   2.300  0.3195 -0.3048 -0.4886
 9027TIP3    H148572   3.226   0.466   2.329 -1.0593 -1.7313 -1.1910
 9027TIP3    H248573   3.374   0.444   2.350 -0.7062  1.4097  0.0015
 9028TIP3   OH248574   5.180   3.828   0.130 -0.4085 -0.2655 -0.1221
 9028TIP3    H148575   5.143   3.754   0.177  0.3346 -0.4605  0.1751
 9028TIP3    H248576   5.118   3.845   0.059 -0.0526 -1.8787 -0.8591
 9029TIP3   OH248577   2.203   1.971   3.863  0.5829 -0.1033  0.1734
 9029TIP3    H148578   2.129   1.923   3.899  0.9288 -0.1281  0.8643
 9029TIP3    H248579   2.223   1.927   3.781  0.6711 -0.9265  0.6275
 9030TIP3   OH248580   3.241   4.371   2.876  0.0379 -0.3080 -0.5503
 9030TIP3    H148581   3.253   4.347   2.968  0.4995 -0.5960 -0.6824
 9030TIP3    H248582   3.153   4.407   2.872 -0.0491 -0.4520 -0.0263
 9031TIP3   OH248583   3.925   3.136   6.680  0.3070  0.3422  0.0136
 9031TIP3    H148584   3.851   3.144   6.739  0.7356  0.6270  0.5231
 9031TIP3    H248585   3.945   3.042   6.679 -0.7004  0.1173 -0.9419
 9032TIP3   OH248586   5.529   1.005  16.251 -0.0947  0.0960  0.3532
 9032TIP3    H148587   5.468   0.956  16.196  1.7363 -2.2969  0.3231
 9032TIP3    H248588   5.607   0.950  16.257  2.3026  3.1320  0.0890
 9033TIP3   OH248589   6.271   4.736   0.160  0.6492 -0.1179  0.4575
 9033TIP3    H148590   6.290   4.730   0.067  0.4804  0.6663  0.3620
 9033TIP3    H248591   6.351   4.707   0.204  0.1868 -2.0850  0.0912
 9034TIP3   OH248592   1.185   2.560  13.412  0.1848 -0.5080 -0.0860
 9034TIP3    H148593   1.213   2.472  13.387 -0.9148 -0.4478 -1.6659
 9034TIP3    H248594   1.105   2.545  13.462  0.1200 -0.4230 -0.1647
 9035TIP3   OH248595   6.697   6.339   0.188  0.0210 -0.4351  0.3571
 9035TIP3    H148596   6.775   6.300   0.229 -1.2727 -2.0380  1.4411
 9035TIP3    H248597   6.645   6.264   0.160 -1.6317  0.5494  0.6476
 9036TIP3   OH248598   6.155   6.429   4.017  0.6650 -0.3906  0.0700
 9036TIP3    H148599   6.244   6.412   4.047  0.1229 -0.5717  1.6842
 9036TIP3    H248600   6.160   6.511   3.969  1.7006 -0.4225  0.1096
 9037TIP3   OH248601   2.527   4.892   1.865 -0.5287  0.1295 -0.1485
 9037TIP3    H148602   2.581   4.860   1.938  0.2235  0.3822 -0.5923
 9037TIP3    H248603   2.551   4.836   1.791  0.6538  1.5364 -0.8868
 9038TIP3   OH248604   3.076   4.319  16.751 -0.3488  0.0595  0.5268
 9038TIP3    H148605   2.984   4.320  16.724 -1.0167 -0.5378  2.6200
 9038TIP3    H248606   3.121   4.369  16.683 -1.9828 -0.7960 -1.2907
 9039TIP3   OH248607   1.045   5.451  11.665  0.0343 -0.0905 -0.1893
 9039TIP3    H148608   0.994   5.532  11.667 -1.8574 -1.1940 -1.0016
 9039TIP3    H248609   1.123   5.473  11.615  0.1562  1.5389  0.6585
 9040TIP3   OH248610   6.657   1.572  14.440  0.4677  0.4836 -0.6521
 9040TIP3    H148611   6.705   1.491  14.423  0.9682  0.3821  1.0132
 9040TIP3    H248612   6.698   1.607  14.520 -0.4489  1.8162 -0.7418
 9041TIP3   OH248613   1.733   5.903  17.199  0.1009  0.2773 -0.3441
 9041TIP3    H148614   1.675   5.827  17.187  1.9684 -1.5923  1.6036
 9041TIP3    H248615   1.677   5.971  17.236 -1.2785 -0.7063 -0.5536
 9042TIP3   OH248616   4.628   5.531   1.100  0.5943 -0.2132  0.2422
 9042TIP3    H148617   4.642   5.625   1.106 -0.4425 -0.0173 -0.1352
 9042TIP3    H248618   4.602   5.505   1.188 -0.2467  0.0661  0.0858
 9043TIP3   OH248619   2.823   3.901   5.583 -0.2257  0.5353  0.3511
 9043TIP3    H148620   2.831   3.925   5.676 -1.5607  1.1263  0.3308
 9043TIP3    H248621   2.914   3.894   5.553  0.2798 -1.2041  2.0688
 9044TIP3   OH248622   2.603   2.210   3.985 -0.3734 -0.2524 -0.2168
 9044TIP3    H148623   2.572   2.263   3.911 -0.2977  2.4019  1.5418
 9044TIP3    H248624   2.698   2.209   3.975 -0.4276 -1.0827 -0.8484
 9045TIP3   OH248625   3.157   5.879  13.476 -0.4300 -0.0489  0.1369
 9045TIP3    H148626   3.169   5.795  13.520 -1.2512 -0.0269  0.4255
 9045TIP3    H248627   3.101   5.929  13.535 -0.1816  0.5985 -0.1657
 9046TIP3   OH248628   0.461   5.544   6.537  0.0530 -0.2830  0.0597
 9046TIP3    H148629   0.408   5.586   6.470  1.5689  0.2485 -0.8502
 9046TIP3    H248630   0.448   5.450   6.523  1.1252 -0.2262 -1.6991
 9047TIP3   OH248631   6.022   1.729   1.821 -0.4420 -0.2478 -0.0073
 9047TIP3    H148632   5.994   1.816   1.793 -2.3962 -0.6824  0.4933
 9047TIP3    H248633   6.114   1.740   1.844 -0.8641  1.8946  0.8893
 9048TIP3   OH248634   1.711   5.931   3.316  0.0517 -0.0357 -0.2855
 9048TIP3    H148635   1.618   5.913   3.318  0.0594 -0.0222  0.2282
 9048TIP3    H248636   1.748   5.882   3.389  0.0555  2.0672  1.2357
 9049TIP3   OH248637   4.379   0.466   5.493 -0.1723 -0.1555 -0.5977
 9049TIP3    H148638   4.316   0.522   5.448  1.3469  0.1086 -2.5629
 9049TIP3    H248639   4.351   0.377   5.474 -0.0946 -0.0379 -1.3080
 9050TIP3   OH248640   2.066   3.004  16.768 -0.0450 -0.6079  0.5809
 9050TIP3    H148641   2.085   3.089  16.806  1.3580 -1.2577  1.4194
 9050TIP3    H248642   2.147   2.953  16.780 -0.0170 -1.3115 -2.0663
 9051TIP3   OH248643   5.579   0.571  15.377  0.3448 -0.4571 -0.7405
 9051TIP3    H148644   5.621   0.604  15.456  0.1365  1.1512 -1.2599
 9051TIP3    H248645   5.635   0.499  15.349  0.0459 -1.5331  1.2220
 9052TIP3   OH248646   3.992   1.482   5.642 -0.0987  0.1943  0.0418
 9052TIP3    H148647   3.948   1.566   5.660 -0.3251  0.3268 -1.0827
 9052TIP3    H248648   4.029   1.456   5.727  0.2670  1.5961  0.3414
 9053TIP3   OH248649   4.662   1.279   6.013 -0.5639 -0.1061 -0.0235
 9053TIP3    H148650   4.703   1.327   5.941 -2.4584  0.0077 -1.0936
 9053TIP3    H248651   4.575   1.257   5.980 -0.8645 -1.5616  1.6155
 9054TIP3   OH248652   5.011   4.656   0.822 -0.9234 -0.2019  0.5867
 9054TIP3    H148653   5.104   4.668   0.803 -0.8053 -0.9761  0.6159
 9054TIP3    H248654   4.992   4.718   0.892 -0.5581  0.3333  0.2194
 9055TIP3   OH248655   5.155   2.739   1.798 -0.3973 -0.2931 -0.2567
 9055TIP3    H148656   5.229   2.679   1.797 -0.2449 -0.1063 -0.8357
 9055TIP3    H248657   5.171   2.798   1.723 -1.2128 -0.3557 -0.4894
 9056TIP3   OH248658   4.516   0.196   6.106 -0.8050  0.6837  0.1187
 9056TIP3    H148659   4.454   0.174   6.176 -1.0192 -0.0954 -0.3016
 9056TIP3    H248660   4.464   0.190   6.026 -0.1673 -0.0774 -0.2475
 9057TIP3   OH248661   3.693   2.318  17.024 -0.8609 -0.0894 -0.0967
 9057TIP3    H148662   3.727   2.289  17.108  0.0137 -0.9458 -0.7136
 9057TIP3    H248663   3.601   2.293  17.024 -0.9112  0.0866  0.6663
 9058TIP3   OH248664   4.477   0.992   5.754 -1.0747 -0.6958  0.5281
 9058TIP3    H148665   4.553   0.955   5.797  0.2332  0.5903 -0.5832
 9058TIP3    H248666   4.431   0.916   5.717 -0.6579 -1.5337  1.6871
 9059TIP3   OH248667   2.422   4.760   6.042  0.2514 -0.2247 -0.7040
 9059TIP3    H148668   2.342   4.800   6.075  0.7744 -0.0217  0.3714
 9059TIP3    H248669   2.426   4.788   5.950 -0.7525 -0.0063 -0.6951
 9060TIP3   OH248670   1.120   5.827   0.560 -0.0582 -0.0297 -0.5862
 9060TIP3    H148671   1.034   5.860   0.588  0.6951  0.2946  1.6040
 9060TIP3    H248672   1.138   5.874   0.479 -1.5776  0.5148 -0.6544
 9061TIP3   OH248673   2.526   0.468   3.024  0.0347  0.2871  0.3601
 9061TIP3    H148674   2.434   0.469   3.000  0.1818  0.5446 -0.2023
 9061TIP3    H248675   2.532   0.525   3.101 -0.2401  0.4379  0.2692
 9062TIP3   OH248676   5.436   0.879  12.860  0.0574  0.3495 -0.5083
 9062TIP3    H148677   5.352   0.924  12.859  0.7845  1.7832 -1.1867
 9062TIP3    H248678   5.484   0.917  12.786  0.4035 -2.2313 -1.6900
 9063TIP3   OH248679   3.768   0.524  11.772 -0.3436  0.4125 -0.3910
 9063TIP3    H148680   3.827   0.599  11.767  1.2273 -0.7692 -0.3731
 9063TIP3    H248681   3.681   0.562  11.762  0.4849  2.0256 -2.3969
 9064TIP3   OH248682   1.368   3.075   2.788 -0.7714 -0.0539 -0.1170
 9064TIP3    H148683   1.274   3.084   2.804 -0.1792  2.9954  2.6915
 9064TIP3    H248684   1.399   3.016   2.857 -0.2489  1.5467  1.0763
 9065TIP3   OH248685   3.169   5.889   3.365 -0.6266  0.0385  0.3617
 9065TIP3    H148686   3.105   5.914   3.299 -0.1750 -0.7852 -0.4007
 9065TIP3    H248687   3.238   5.843   3.317 -0.5051 -0.9836  1.4503
 9066TIP3   OH248688   2.100   6.018  11.816 -0.8351 -0.2562  0.3487
 9066TIP3    H148689   2.131   6.016  11.725 -0.5217  0.2268  0.4460
 9066TIP3    H248690   2.037   6.090  11.818  0.3470  0.7821  0.8953
 9067TIP3   OH248691   2.775   3.604  11.444 -0.2782 -0.2402  0.1628
 9067TIP3    H148692   2.848   3.586  11.384  1.6074  1.5837  1.7789
 9067TIP3    H248693   2.741   3.689  11.416  0.1239  0.2673  1.1733
 9068TIP3   OH248694   2.397   2.590   0.264  0.1631 -0.0151  0.0424
 9068TIP3    H148695   2.459   2.602   0.335 -0.2250 -0.9248  0.5569
 9068TIP3    H248696   2.384   2.678   0.227 -0.7519  0.7568  2.0528
 9069TIP3   OH248697   2.102   6.518   2.838 -0.7487  1.1180 -0.4819
 9069TIP3    H148698   2.163   6.509   2.766 -0.0956  1.8224 -0.0255
 9069TIP3    H248699   2.122   6.603   2.877 -1.3259  0.9099  0.3079
 9070TIP3   OH248700   3.823   0.068  14.461 -0.0886  0.3291  0.0774
 9070TIP3    H148701   3.739   0.070  14.416  0.1624 -0.1833 -0.4235
 9070TIP3    H248702   3.884   0.031  14.397  0.2066 -0.7822  0.9636
 9071TIP3   OH248703   2.743   4.579  15.971  0.2414 -0.0679 -0.1340
 9071TIP3    H148704   2.728   4.601  16.063 -2.6031 -0.7451 -0.3471
 9071TIP3    H248705   2.812   4.639  15.943  0.6133  0.7061  2.2091
 9072TIP3   OH248706   5.624   3.163   4.186 -0.1613  0.2970 -0.7123
 9072TIP3    H148707   5.594   3.251   4.210  0.1672  0.5098 -1.0608
 9072TIP3    H248708   5.555   3.105   4.217 -0.8881  0.7657 -1.4001
 9073TIP3   OH248709   0.473   1.143  14.913  0.3084 -0.4713  0.5785
 9073TIP3    H148710   0.418   1.068  14.888 -3.9162  2.7378 -0.9575
 9073TIP3    H248711   0.473   1.199  14.835  1.3883  2.1526  2.3492
 9074TIP3   OH248712   1.069   2.357   2.869  0.3584 -0.4961  0.4013
 9074TIP3    H148713   1.112   2.320   2.791 -1.0001 -0.4725 -0.3958
 9074TIP3    H248714   1.006   2.290   2.896 -0.7489  0.3965  0.1215
 9075TIP3   OH248715   5.571   4.004  11.415 -1.0264  0.7196  0.1075
 9075TIP3    H148716   5.584   3.932  11.476 -0.8443  0.9105  0.2977
 9075TIP3    H248717   5.660   4.037  11.398 -0.8631 -0.4786 -1.6733
 9076TIP3   OH248718   0.185   0.403  10.496  0.1293 -0.2445  0.0988
 9076TIP3    H148719   0.198   0.426  10.405 -0.5678 -1.1829 -0.2546
 9076TIP3    H248720   0.098   0.436  10.518 -1.4807 -3.4549 -0.8093
 9077TIP3   OH248721   4.261   4.280  12.592  0.5365 -0.3835 -0.1540
 9077TIP3    H148722   4.228   4.346  12.531 -0.3827  0.3966  1.1461
 9077TIP3    H248723   4.305   4.216  12.536 -0.6139  0.0894 -1.6654
 9078TIP3   OH248724   3.786   4.342   3.411  0.1172 -0.0552  0.2996
 9078TIP3    H148725   3.697   4.376   3.415 -0.0992 -0.5467 -0.1684
 9078TIP3    H248726   3.775   4.249   3.392  0.7578  0.1600 -1.2550
 9079TIP3   OH248727   1.764   3.079   0.914  0.1711 -0.6608 -0.1815
 9079TIP3    H148728   1.707   3.156   0.923  0.3474 -0.4747 -0.6070
 9079TIP3    H248729   1.732   3.035   0.835 -0.3757 -1.4163  0.4429
 9080TIP3   OH248730   5.337   6.461   5.204 -0.1224  0.3753  0.0034
 9080TIP3    H148731   5.341   6.550   5.239  0.7236  0.0975  0.6317
 9080TIP3    H248732   5.247   6.453   5.171 -0.1359  1.5405 -0.3006
 9081TIP3   OH248733   1.789   2.142  15.655 -0.4126 -0.5477  0.2811
 9081TIP3    H148734   1.774   2.195  15.734 -0.0890 -0.3613  0.2208
 9081TIP3    H248735   1.758   2.196  15.583  0.5496 -0.1437  0.1527
 9082TIP3   OH248736   6.515   0.802   4.975 -0.8637 -0.7503 -0.4077
 9082TIP3    H148737   6.577   0.842   4.914 -1.9217  2.3827  0.3858
 9082TIP3    H248738   6.476   0.730   4.926 -0.1344  0.3046 -2.6560
 9083TIP3   OH248739   1.097   2.270   1.192  0.5541 -0.4668 -0.0924
 9083TIP3    H148740   1.093   2.238   1.102 -1.2357 -2.5084  0.6008
 9083TIP3    H248741   1.169   2.222   1.232  2.5378  1.7438 -0.7887
 9084TIP3   OH248742   2.751   6.685  14.897  0.0822 -0.1258 -0.4213
 9084TIP3    H148743   2.789   6.644  14.975 -0.9259  1.0366  0.7222
 9084TIP3    H248744   2.780   6.776  14.902 -0.8278  0.1975 -0.8479
 9085TIP3   OH248745   0.129   6.619   5.151 -0.0899  0.0614 -0.1368
 9085TIP3    H148746   0.208   6.574   5.124  0.4871  0.4577  0.8511
 9085TIP3    H248747   0.069   6.609   5.076  0.2805 -1.6602 -0.2434
 9086TIP3   OH248748   2.616   3.205   6.648 -0.3708  0.4411  0.6268
 9086TIP3    H148749   2.703   3.179   6.681 -0.9706 -0.6288  1.4126
 9086TIP3    H248750   2.608   3.160   6.564 -0.6099 -0.3582  1.0719
 9087TIP3   OH248751   2.573   1.509   2.913  0.0495 -0.2074  0.0702
 9087TIP3    H148752   2.640   1.526   2.978 -0.2630  2.9023 -0.2660
 9087TIP3    H248753   2.594   1.567   2.840 -2.0182 -0.4189 -0.7772
 9088TIP3   OH248754   5.895   6.344  14.044 -0.2181  0.5011 -0.4587
 9088TIP3    H148755   5.847   6.286  13.985 -2.1123  0.8458  0.6637
 9088TIP3    H248756   5.927   6.288  14.114  2.5999 -0.0259 -2.0072
 9089TIP3   OH248757   3.463   1.839   3.797  0.7880  0.6469  0.5283
 9089TIP3    H148758   3.482   1.904   3.729  1.2535 -2.4555 -2.5312
 9089TIP3    H248759   3.391   1.788   3.761  1.9187 -1.9464  1.7387
 9090TIP3   OH248760   0.759   2.264   3.012 -0.1242 -0.4834 -0.6417
 9090TIP3    H148761   0.749   2.294   2.921 -1.1632  0.0939 -0.3480
 9090TIP3    H248762   0.750   2.343   3.065  1.4789 -0.6512 -0.0592
 9091TIP3   OH248763   6.083   5.859  13.081 -0.5562  0.0117  0.6016
 9091TIP3    H148764   6.141   5.934  13.095 -1.3586  0.3554  2.3603
 9091TIP3    H248765   5.998   5.898  13.062 -0.5030 -0.4844 -0.7612
 9092TIP3   OH248766   5.965   3.943   2.381  0.1606  0.2269 -0.3823
 9092TIP3    H148767   6.034   3.877   2.388  1.2191  1.4453  1.4908
 9092TIP3    H248768   6.002   4.020   2.423 -0.9974  2.0937 -2.5475
 9093TIP3   OH248769   2.393   6.048  16.171 -0.5005  0.2499 -0.3171
 9093TIP3    H148770   2.453   6.071  16.100  0.5971 -2.0159 -0.2162
 9093TIP3    H248771   2.313   6.020  16.127  0.2279 -1.2927 -0.7448
 9094TIP3   OH248772   5.667   0.926  15.682 -0.1865 -0.5890  0.1564
 9094TIP3    H148773   5.728   0.920  15.755 -0.3098  1.0124  0.4220
 9094TIP3    H248774   5.646   1.019  15.675 -4.0935 -1.2047  1.2931
 9095TIP3   OH248775   2.024   5.352  13.654 -0.0310  0.1714  0.0590
 9095TIP3    H148776   1.976   5.303  13.588 -0.8303 -0.0394  0.7745
 9095TIP3    H248777   2.075   5.415  13.605 -1.9962  1.2640 -0.7068
 9096TIP3   OH248778   5.032   1.333  15.010 -0.0236  0.2729  0.5207
 9096TIP3    H148779   5.020   1.359  14.919  1.4606 -0.1958  0.1772
 9096TIP3    H248780   5.108   1.276  15.010  0.5305  0.9305  2.1729
 9097TIP3   OH248781   5.159   3.744   0.816  0.2434 -0.1356 -0.3267
 9097TIP3    H148782   5.237   3.799   0.820 -1.2430  2.0994  0.1338
 9097TIP3    H248783   5.109   3.769   0.894 -1.8644  0.0544 -1.6605
 9098TIP3   OH248784   3.359   4.352  13.844 -0.0781  0.5593 -0.0715
 9098TIP3    H148785   3.392   4.287  13.783  0.1774  0.5300  0.0967
 9098TIP3    H248786   3.296   4.304  13.898 -0.1244  0.5281 -0.1529
 9099TIP3   OH248787   0.206   0.649   0.624 -0.3241  0.1947 -0.1644
 9099TIP3    H148788   0.144   0.644   0.696  2.1722 -0.0598  2.1230
 9099TIP3    H248789   0.231   0.741   0.619  1.3405 -0.1522  1.0368
 9100TIP3   OH248790   3.850   6.557   1.397  0.1431  0.5371  0.0246
 9100TIP3    H148791   3.919   6.593   1.340 -0.8204  2.4738 -0.0064
 9100TIP3    H248792   3.854   6.463   1.382  1.5185  0.7749 -1.4374
 9101TIP3   OH248793   6.420   0.289   6.280 -0.1334  0.0851 -0.3643
 9101TIP3    H148794   6.457   0.377   6.280 -1.5346  0.7009 -1.4853
 9101TIP3    H248795   6.469   0.242   6.212 -1.1302  0.7865 -1.5858
 9102TIP3   OH248796   1.516   4.551  11.225 -1.2528 -0.0541 -0.1266
 9102TIP3    H148797   1.526   4.615  11.155  0.5670  0.6840  0.7362
 9102TIP3    H248798   1.509   4.603  11.305 -2.6206 -0.8939  0.3312
 9103TIP3   OH248799   5.402   3.778  13.460 -0.0310  0.0496 -0.2778
 9103TIP3    H148800   5.381   3.843  13.393 -1.4021 -0.8337 -0.7394
 9103TIP3    H248801   5.378   3.820  13.543 -0.8717  0.1575 -0.5687
 9104TIP3   OH248802   2.500   6.127   1.477 -0.0618  0.5010  0.0232
 9104TIP3    H148803   2.532   6.039   1.454  1.3185  0.4614  1.8937
 9104TIP3    H248804   2.405   6.121   1.466  0.1103 -0.8353 -1.1078
 9105TIP3   OH248805   0.221   5.291  14.511 -0.0075  0.6858  0.3359
 9105TIP3    H148806   0.178   5.295  14.597 -0.1260  1.3585  0.2475
 9105TIP3    H248807   0.162   5.239  14.457 -0.1312  0.6066  0.5449
 9106TIP3   OH248808   6.805   1.017  16.014  0.9671  0.5320  0.4510
 9106TIP3    H148809   6.838   0.941  16.061  0.9940  1.3167  1.7461
 9106TIP3    H248810   6.806   1.088  16.079 -2.2435  0.8824  0.2617
 9107TIP3   OH248811   6.504   4.085   4.465 -0.0481 -0.1028 -0.6733
 9107TIP3    H148812   6.553   4.010   4.501  0.7745  1.2515  1.1843
 9107TIP3    H248813   6.426   4.046   4.426  0.7263 -1.9939 -0.4496
 9108TIP3   OH248814   6.429   4.828   4.727 -0.4553 -0.3559 -0.4566
 9108TIP3    H148815   6.348   4.780   4.713 -1.5332  1.8465 -2.6218
 9108TIP3    H248816   6.478   4.816   4.646 -0.8376  2.1403 -1.1426
 9109TIP3   OH248817   4.562   3.672  14.389 -0.0790 -0.1604 -0.4872
 9109TIP3    H148818   4.634   3.713  14.437  0.5055 -1.2592 -0.3967
 9109TIP3    H248819   4.485   3.723  14.415  0.7176  1.4317 -1.0658
 9110TIP3   OH248820   0.587   1.905   0.870  0.0258 -0.0430  0.2466
 9110TIP3    H148821   0.492   1.904   0.858 -0.1134 -1.1226  1.2520
 9110TIP3    H248822   0.610   1.998   0.874 -0.9553  0.2310 -0.2138
 9111TIP3   OH248823   1.389   0.610  12.730  0.2852  0.0733 -0.1790
 9111TIP3    H148824   1.394   0.667  12.807 -0.6782  0.7627 -0.6152
 9111TIP3    H248825   1.296   0.599  12.714  0.4638 -1.1084 -0.5027
 9112TIP3   OH248826   2.163   6.132   0.349  0.7154 -0.0075 -0.1040
 9112TIP3    H148827   2.130   6.049   0.386 -0.0091  0.4482  0.3036
 9112TIP3    H248828   2.258   6.124   0.354  0.6707 -1.1356 -0.7903
 9113TIP3   OH248829   4.819   1.621  13.184  0.3892 -0.1817  0.2378
 9113TIP3    H148830   4.911   1.632  13.206  0.6892  0.7112 -1.3247
 9113TIP3    H248831   4.817   1.545  13.126 -0.0174 -0.8212  1.0629
 9114TIP3   OH248832   5.296   3.810  11.493 -0.2979  0.2786 -0.3113
 9114TIP3    H148833   5.270   3.735  11.440  0.6529 -1.8323  2.0402
 9114TIP3    H248834   5.236   3.809  11.567  0.9003  0.7125  0.6872
 9115TIP3   OH248835   3.182   2.943   2.288  0.0004  0.2345  0.1488
 9115TIP3    H148836   3.174   2.902   2.202 -0.3980  2.0575 -0.7378
 9115TIP3    H248837   3.216   2.873   2.345 -0.1252 -1.1322 -1.3694
 9116TIP3   OH248838   5.616   6.135   2.824  0.6812  1.0180  0.3980
 9116TIP3    H148839   5.537   6.168   2.782  1.3248  1.3106 -0.6141
 9116TIP3    H248840   5.677   6.208   2.822  1.6631  0.1998 -0.6441
 9117TIP3   OH248841   2.735   6.056   2.588  0.5437  0.0850  0.2058
 9117TIP3    H148842   2.730   6.142   2.628  1.3115 -0.2372  1.0476
 9117TIP3    H248843   2.811   6.015   2.629  0.8815 -0.5722 -1.0080
 9118TIP3   OH248844   6.411   3.396   1.459  0.9014 -0.2308  0.3614
 9118TIP3    H148845   6.486   3.367   1.408 -0.5782  0.1797 -2.1905
 9118TIP3    H248846   6.371   3.314   1.490  1.3458 -0.5350  0.1387
 9119TIP3   OH248847   1.222   3.291  13.141  0.4289 -0.3474  0.0726
 9119TIP3    H148848   1.201   3.346  13.065 -0.2240 -0.2819  0.2893
 9119TIP3    H248849   1.224   3.202  13.105 -2.6937 -0.6906  0.3991
 9120TIP3   OH248850   4.952   1.465  16.041 -0.1188 -0.0523  0.7152
 9120TIP3    H148851   4.869   1.419  16.055 -1.0682  1.7077  1.2017
 9120TIP3    H248852   5.001   1.451  16.122  0.0233 -1.0029  0.4690
 9121TIP3   OH248853   1.811   2.338  12.637  0.2800 -0.4301 -0.0003
 9121TIP3    H148854   1.907   2.333  12.635  0.4273  1.5668 -1.2929
 9121TIP3    H248855   1.792   2.424  12.674 -0.9574 -0.1949 -1.1067
 9122TIP3   OH248856   2.046   3.835   4.564 -0.1282  0.4060 -0.4536
 9122TIP3    H148857   2.000   3.752   4.551 -0.2546  0.7315 -2.5070
 9122TIP3    H248858   2.136   3.816   4.537 -0.3829  1.1345 -1.9350
 9123TIP3   OH248859   0.166   5.489  11.780  0.6961 -0.0229 -0.2910
 9123TIP3    H148860   0.237   5.552  11.793  0.6326 -0.2180  1.1489
 9123TIP3    H248861   0.111   5.528  11.711  0.4911  1.6389  0.7633
 9124TIP3   OH248862   3.324   5.942   0.420  0.5521  0.5932  0.1952
 9124TIP3    H148863   3.325   5.923   0.327 -1.1988 -0.0229  0.2801
 9124TIP3    H248864   3.315   6.037   0.425  1.6575  0.7446 -0.2256
 9125TIP3   OH248865   3.316   0.963  12.310 -0.3918  0.3720  0.5552
 9125TIP3    H148866   3.229   0.946  12.274  0.0987 -0.5688 -0.2209
 9125TIP3    H248867   3.320   0.909  12.389 -0.7710  0.9810  1.0004
 9126TIP3   OH248868   4.084   1.240   0.624 -0.4447 -0.1126 -0.1870
 9126TIP3    H148869   4.002   1.193   0.615 -1.1004  0.9065  0.2705
 9126TIP3    H248870   4.063   1.313   0.682  0.8233  0.0739  0.0629
 9127TIP3   OH248871   2.519   1.913   3.965 -0.0951  0.2313 -0.0392
 9127TIP3    H148872   2.483   1.844   4.021 -3.3287  2.6251  1.1509
 9127TIP3    H248873   2.613   1.913   3.984 -0.2784 -2.4934  1.3625
 9128TIP3   OH248874   3.416   2.334  13.746  0.9059 -0.2318  0.1294
 9128TIP3    H148875   3.357   2.386  13.800  1.7392  1.3914 -0.4587
 9128TIP3    H248876   3.375   2.248  13.741 -0.7636  0.4958  0.7367
 9129TIP3   OH248877   5.390   4.179  14.654 -0.4452 -0.4778 -0.4503
 9129TIP3    H148878   5.346   4.095  14.638 -0.2481 -0.6422 -0.1484
 9129TIP3    H248879   5.479   4.155  14.679 -0.7124 -0.2477  0.8224
 9130TIP3   OH248880   5.933   3.035  10.699 -0.1660  0.2662  0.4772
 9130TIP3    H148881   5.930   3.049  10.604  0.3516  0.8951  0.5516
 9130TIP3    H248882   5.958   2.943  10.708 -0.0648  0.2444  0.0104
 9131TIP3   OH248883   5.231   2.037  11.170  0.1763 -0.1052  0.0469
 9131TIP3    H148884   5.312   2.057  11.123 -0.5706  0.0622 -1.2088
 9131TIP3    H248885   5.257   2.034  11.262  1.3592  1.1929 -0.2178
 9132TIP3   OH248886   4.498   5.391  15.928  0.3926 -0.3765  0.1956
 9132TIP3    H148887   4.466   5.325  15.867  0.8567  1.0849 -1.7538
 9132TIP3    H248888   4.570   5.348  15.974  2.5577 -0.5184 -3.0057
 9133TIP3   OH248889   6.230   6.527  14.310 -0.1444  0.1271 -0.2565
 9133TIP3    H148890   6.239   6.517  14.215 -0.4027  1.6534 -0.4665
 9133TIP3    H248891   6.319   6.539  14.342 -0.0460 -0.4990 -0.2728
 9134TIP3   OH248892   2.577   6.561  15.925  0.0834  0.8889  0.1251
 9134TIP3    H148893   2.494   6.605  15.905  0.1052  0.5623 -0.7244
 9134TIP3    H248894   2.631   6.629  15.966 -0.9887  0.8111  1.7684
 9135TIP3   OH248895   0.706   1.900  12.349 -0.3307  0.3268  0.5138
 9135TIP3    H148896   0.665   1.975  12.307 -0.2495  0.5489  0.8273
 9135TIP3    H248897   0.799   1.921  12.351 -0.1444 -0.3471 -0.5421
 9136TIP3   OH248898   0.248   5.085   0.653 -0.1437 -0.0745 -0.0087
 9136TIP3    H148899   0.194   5.158   0.624 -0.5483 -0.9242 -1.4901
 9136TIP3    H248900   0.187   5.027   0.699 -0.1319 -0.1775 -0.1217
 9137TIP3   OH248901   1.115   3.071   0.690  0.3533 -0.1557  0.2884
 9137TIP3    H148902   1.102   3.000   0.628  0.3974 -0.4288  0.5938
 9137TIP3    H248903   1.210   3.076   0.702  0.2576 -1.4092  1.8445
 9138TIP3   OH248904   2.026   4.359   4.843 -0.2099 -1.1508 -0.0386
 9138TIP3    H148905   2.019   4.398   4.930 -2.2800  0.3587 -0.7997
 9138TIP3    H248906   2.120   4.362   4.823 -0.0139  1.5090  0.8497
 9139TIP3   OH248907   0.259   6.770  16.144 -0.1376  0.3065 -0.0743
 9139TIP3    H148908   0.310   6.727  16.076  0.9000  1.9488 -0.4042
 9139TIP3    H248909   0.268   6.864  16.125 -1.5065  0.7226  1.1437
 9140TIP3   OH248910   4.609   2.338   0.614 -0.8528  0.2573 -0.2802
 9140TIP3    H148911   4.588   2.337   0.520 -0.8209  1.7915 -0.3184
 9140TIP3    H248912   4.528   2.309   0.656 -0.9493 -0.1967 -0.7576
 9141TIP3   OH248913   2.197   6.668   0.629  0.3695 -0.4420  0.2831
 9141TIP3    H148914   2.284   6.688   0.593 -0.0879 -1.6035 -1.5937
 9141TIP3    H248915   2.138   6.731   0.587 -0.2783 -2.2555 -1.7111
 9142TIP3   OH248916   6.032   5.921   4.195 -0.1737  0.1677  0.4790
 9142TIP3    H148917   6.124   5.913   4.170 -0.0123  0.7175  0.8906
 9142TIP3    H248918   6.025   6.008   4.233 -1.2290  0.8086 -1.0875
 9143TIP3   OH248919   3.866   4.468   3.196 -0.4043  0.2547 -0.2486
 9143TIP3    H148920   3.896   4.536   3.257 -0.6195  1.0043 -0.9467
 9143TIP3    H248921   3.824   4.403   3.251  0.0163  0.5732  0.4668
 9144TIP3   OH248922   4.069   0.956   0.829  0.4159 -0.2628 -0.4476
 9144TIP3    H148923   3.996   0.960   0.768 -0.0813 -0.8716  0.0970
 9144TIP3    H248924   4.091   1.047   0.846 -1.1744 -0.0192  0.4996
 9145TIP3   OH248925   6.406   5.521  15.876 -0.5076  0.1830 -0.0223
 9145TIP3    H148926   6.460   5.595  15.902 -1.2277  0.6277  0.2290
 9145TIP3    H248927   6.415   5.458  15.947 -0.0296  0.0875 -0.1583
 9146TIP3   OH248928   4.373   4.115   4.583  0.5994 -0.2119  0.0716
 9146TIP3    H148929   4.292   4.077   4.617  0.0011  0.1222 -0.9448
 9146TIP3    H248930   4.414   4.156   4.659 -0.0888 -0.5544  0.6344
 9147TIP3   OH248931   3.594   3.036  14.235  0.8465  0.2486  1.0598
 9147TIP3    H148932   3.648   3.113  14.217  1.8346 -0.4593  0.9315
 9147TIP3    H248933   3.639   2.963  14.192 -1.1101 -0.1162 -0.5363
 9148TIP3   OH248934   5.548   1.462  13.014  0.6195  0.4552 -0.4637
 9148TIP3    H148935   5.463   1.504  13.028  0.5967  0.7191 -1.3114
 9148TIP3    H248936   5.573   1.489  12.925  1.5227  0.2627 -0.2749
 9149TIP3   OH248937   6.160   6.056  15.926  0.0093 -0.2627  0.6730
 9149TIP3    H148938   6.066   6.052  15.943 -0.1146  1.3376  0.5294
 9149TIP3    H248939   6.201   6.049  16.012 -0.3610  1.4582  1.0164
 9150TIP3   OH248940   2.347   0.923  13.303  0.3781  0.2734  0.1275
 9150TIP3    H148941   2.422   0.960  13.350  0.9529 -2.1040  1.2635
 9150TIP3    H248942   2.384   0.850  13.253 -1.1420 -0.8488  0.5743
 9151TIP3   OH248943   6.326   3.843  12.970  0.3430 -0.4290  0.3981
 9151TIP3    H148944   6.264   3.835  13.043  1.2456 -0.5723  1.1603
 9151TIP3    H248945   6.312   3.764  12.918 -0.1907 -0.4041  0.4959
 9152TIP3   OH248946   4.502   3.418   2.577 -0.2209 -0.3819  0.0052
 9152TIP3    H148947   4.596   3.431   2.581 -0.3783  0.5614  1.3844
 9152TIP3    H248948   4.490   3.324   2.593  0.3857 -0.0539  2.8709
 9153TIP3   OH248949   3.878   3.908   5.332 -0.2092  0.1139  0.2346
 9153TIP3    H148950   3.937   3.936   5.401  0.6058 -1.8924  0.4024
 9153TIP3    H248951   3.935   3.873   5.264 -1.0656  0.9873 -0.9683
 9154TIP3   OH248952   3.017   4.001   2.134 -0.0370  0.0559  0.5153
 9154TIP3    H148953   2.941   3.950   2.163 -0.3774  0.2920  0.0642
 9154TIP3    H248954   2.999   4.018   2.041  1.1676 -0.9528  0.0663
 9155TIP3   OH248955   0.801   6.566  12.569 -0.1893  0.1876  0.5130
 9155TIP3    H148956   0.820   6.479  12.533 -2.8988  0.3582 -1.7513
 9155TIP3    H248957   0.876   6.620  12.543 -0.2426 -0.6479 -1.5921
 9156TIP3   OH248958   4.686   5.795  10.576 -0.1051 -0.3244  0.3585
 9156TIP3    H148959   4.610   5.840  10.540  0.0292  0.1081  0.6022
 9156TIP3    H248960   4.740   5.866  10.612  1.5989 -0.3471 -1.9526
 9157TIP3   OH248961   1.519   2.225  12.097  0.6057  0.5122  0.9069
 9157TIP3    H148962   1.458   2.151  12.108  1.3327 -0.1835  0.3533
 9157TIP3    H248963   1.464   2.297  12.069  0.0668 -0.2160  0.0182
 9158TIP3   OH248964   6.436   3.160  12.325 -0.2439  0.9788  0.1989
 9158TIP3    H148965   6.478   3.245  12.340  1.6311 -0.0873  1.3351
 9158TIP3    H248966   6.507   3.102  12.300 -1.5265 -0.2536 -0.7653
 9159TIP3   OH248967   3.901   6.610   5.154  1.0512  0.0995 -0.3155
 9159TIP3    H148968   3.882   6.530   5.204  1.1371 -0.2610 -0.8521
 9159TIP3    H248969   3.816   6.653   5.146  0.3434 -1.5682 -2.7990
 9160TIP3   OH248970   4.803   3.844  12.611  0.1558 -0.3456 -0.0831
 9160TIP3    H148971   4.731   3.785  12.590 -0.6477  0.0486  1.4124
 9160TIP3    H248972   4.760   3.927  12.632  1.0955  0.1107  0.0777
 9161TIP3   OH248973   0.245   0.470  10.231 -0.0772 -0.3892  0.0518
 9161TIP3    H148974   0.328   0.430  10.256 -0.3943 -1.3958 -0.4167
 9161TIP3    H248975   0.186   0.396  10.218  0.0562 -0.0581 -3.6415
 9162TIP3   OH248976   4.140   5.621  14.961 -0.0005 -0.5757  0.2372
 9162TIP3    H148977   4.071   5.559  14.983  0.4283 -0.9115  0.6592
 9162TIP3    H248978   4.098   5.706  14.964  0.1880 -0.4891  3.2711
 9163TIP3   OH248979   0.268   5.229   4.808 -0.1467 -0.2475 -0.4587
 9163TIP3    H148980   0.333   5.205   4.874 -1.2797 -1.6755  0.1997
 9163TIP3    H248981   0.195   5.267   4.858 -0.9749 -1.2532 -0.8563
 9164TIP3   OH248982   2.510   3.650   2.708  0.6014  0.0284  0.3520
 9164TIP3    H148983   2.527   3.708   2.782  0.4410  2.7413 -1.5817
 9164TIP3    H248984   2.590   3.598   2.699  0.4203 -0.7519  2.6734
 9165TIP3   OH248985   0.541   6.231  11.054  0.3836 -0.4453  0.1670
 9165TIP3    H148986   0.469   6.289  11.080  0.4659 -0.1757 -0.1990
 9165TIP3    H248987   0.587   6.212  11.135  1.2658  1.2303  0.1099
 9166TIP3   OH248988   5.641   4.003  11.833  0.0037 -0.2999 -0.6353
 9166TIP3    H148989   5.677   4.091  11.822 -2.8894  1.1296  0.1841
 9166TIP3    H248990   5.694   3.948  11.776  1.0146  2.2419 -2.3321
 9167TIP3   OH248991   4.903   1.861  17.072  0.6081 -0.3152  0.5360
 9167TIP3    H148992   4.919   1.905  16.988 -0.3265  0.9039  0.9638
 9167TIP3    H248993   4.986   1.819  17.093  0.1000 -3.2151 -2.3952
 9168TIP3   OH248994   6.009   0.501  13.021 -0.5085 -0.0485 -0.2313
 9168TIP3    H148995   5.987   0.513  13.113 -0.6798  0.2637 -0.3129
 9168TIP3    H248996   5.924   0.486  12.978 -0.4899  0.4235 -0.4330
 9169TIP3   OH248997   6.176   5.186  14.149 -0.3280  0.0856  0.1653
 9169TIP3    H148998   6.215   5.218  14.231  2.3336 -0.1485 -0.9071
 9169TIP3    H248999   6.130   5.105  14.174  0.9672 -0.3135  1.3472
 9170TIP3   OH249000   5.765   2.709  16.254 -0.1401  0.5892 -0.4322
 9170TIP3    H149001   5.860   2.700  16.257 -0.0979  0.8852 -0.8688
 9170TIP3    H249002   5.749   2.803  16.256 -0.5056  0.5435  1.7957
 9171TIP3   OH249003   5.866   5.526  11.743 -0.1903  0.0010  0.7014
 9171TIP3    H149004   5.911   5.526  11.827  1.1694 -0.1008  0.0113
 9171TIP3    H249005   5.812   5.448  11.744 -0.8798  0.4674  1.8149
 9172TIP3   OH249006   5.170   6.122  14.878  0.0305  0.7099  0.7062
 9172TIP3    H149007   5.149   6.181  14.805 -0.1495  0.1272  0.2804
 9172TIP3    H249008   5.151   6.173  14.957 -1.4830  0.7433  0.3413
 9173TIP3   OH249009   2.247   6.002   3.056  0.2300 -0.2624  0.1831
 9173TIP3    H149010   2.194   6.082   3.051  0.5641 -0.1066 -1.3107
 9173TIP3    H249011   2.264   5.991   3.149 -0.7332  0.8059  0.5172
 9174TIP3   OH249012   4.468   2.886  12.297  0.1658  0.3329 -0.2073
 9174TIP3    H149013   4.411   2.857  12.368 -1.3267  2.0024 -0.6628
 9174TIP3    H249014   4.518   2.808  12.273 -2.5700 -1.4814 -0.4023
 9175TIP3   OH249015   3.052   3.213  11.067 -0.5391  0.6084 -0.0191
 9175TIP3    H149016   3.022   3.303  11.060  0.1861  0.8527 -0.0270
 9175TIP3    H249017   3.062   3.183  10.977 -0.3034  0.6853 -0.0198
 9176TIP3   OH249018   1.445   2.810   3.578 -0.0005 -0.4420  0.6557
 9176TIP3    H149019   1.478   2.741   3.636 -1.9663 -0.6377  1.6004
 9176TIP3    H249020   1.428   2.765   3.495 -0.3858 -0.8885  0.9769
 9177TIP3   OH249021   5.386   4.120  13.050 -0.0349 -0.6824  0.2562
 9177TIP3    H149022   5.319   4.116  12.982 -0.3147 -1.3813  0.5613
 9177TIP3    H249023   5.469   4.113  13.003 -0.2273 -1.1686 -0.0244
 9178TIP3   OH249024   3.165   6.739   0.631 -0.2807  0.6896  0.1315
 9178TIP3    H149025   3.202   6.801   0.568 -0.2858 -0.3174 -0.8908
 9178TIP3    H249026   3.241   6.703   0.676 -0.1064 -0.1859 -0.8359
 9179TIP3   OH249027   6.532   3.323   2.460 -0.3542  0.2267 -0.8054
 9179TIP3    H149028   6.482   3.403   2.475  0.0783  0.5751 -1.1771
 9179TIP3    H249029   6.618   3.354   2.431  0.5233 -0.3213  1.0710
 9180TIP3   OH249030   3.450   1.130   3.337 -0.1502 -0.7705 -0.3962
 9180TIP3    H149031   3.395   1.076   3.393 -0.8889  1.7415  1.4382
 9180TIP3    H249032   3.540   1.107   3.362 -0.4518 -1.1583  0.3543
 9181TIP3   OH249033   1.746   6.365   5.651  0.1276  0.4990 -0.1343
 9181TIP3    H149034   1.822   6.315   5.622  0.1903 -0.7093  1.9096
 9181TIP3    H249035   1.773   6.404   5.735 -0.9072  1.5864 -0.2645
 9182TIP3   OH249036   1.758   0.982   0.601 -0.1590  0.0140 -0.7958
 9182TIP3    H149037   1.730   0.907   0.549 -0.1145 -0.2824 -0.3940
 9182TIP3    H249038   1.700   0.981   0.677 -0.6333  0.8104 -1.1375
 9183TIP3   OH249039   6.366   4.579  10.541  0.1766 -0.3924 -0.3314
 9183TIP3    H149040   6.349   4.670  10.518 -0.1444 -0.3198  0.1614
 9183TIP3    H249041   6.461   4.570  10.536  0.1686 -0.1884 -0.9404
 9184TIP3   OH249042   1.079   4.141  15.175  0.5506 -0.1686 -0.1742
 9184TIP3    H149043   1.017   4.080  15.135  0.7612  0.2249 -1.1228
 9184TIP3    H249044   1.165   4.099  15.166  0.7260  0.3532 -1.0326
 9185TIP3   OH249045   1.649   6.109   1.880 -0.2820  0.7971 -0.6474
 9185TIP3    H149046   1.702   6.141   1.952 -0.5874  1.4962 -0.7262
 9185TIP3    H249047   1.562   6.095   1.918  0.1977 -1.4345 -0.2393
 9186TIP3   OH249048   0.569   4.917  15.345  0.0963  0.0503  0.0181
 9186TIP3    H149049   0.586   4.919  15.251  0.0165 -0.1763 -0.0021
 9186TIP3    H249050   0.519   4.837  15.358  0.6519 -0.2469  0.3457
 9187TIP3   OH249051   5.661   3.258   1.444 -0.4775  0.0626  0.3787
 9187TIP3    H149052   5.649   3.175   1.490  0.1067 -0.1022  0.2404
 9187TIP3    H249053   5.681   3.233   1.354 -3.3647  0.4025 -0.4441
 9188TIP3   OH249054   5.698   4.730  12.073 -0.6596  0.6137 -0.6881
 9188TIP3    H149055   5.651   4.810  12.098 -0.6729  0.3206  0.2762
 9188TIP3    H249056   5.661   4.706  11.988 -2.2531  0.4006  0.0234
 9189TIP3   OH249057   2.514   0.094   4.357  0.5702  0.1835  0.4354
 9189TIP3    H149058   2.432   0.063   4.321  0.1830 -0.1064  1.5329
 9189TIP3    H249059   2.571   0.017   4.359 -0.5365 -0.6720  3.5746
 9190TIP3   OH249060   0.814   4.912  14.132 -0.2666 -0.0344 -0.7694
 9190TIP3    H149061   0.821   4.960  14.050  0.5141  1.1414 -0.0495
 9190TIP3    H249062   0.784   4.978  14.195 -1.3063 -1.0210 -0.1892
 9191TIP3   OH249063   1.163   1.955   2.185 -0.4753  0.1843 -0.1295
 9191TIP3    H149064   1.191   2.025   2.127 -0.8613 -1.9204 -3.1212
 9191TIP3    H249065   1.087   1.990   2.231 -0.8616  1.6201 -1.7808
 9192TIP3   OH249066   2.821   5.967  13.952  0.0512  0.2546 -0.2992
 9192TIP3    H149067   2.761   5.992  14.022  0.7122 -0.2110  0.4483
 9192TIP3    H249068   2.865   6.048  13.928  0.9717  0.1441  0.9441
 9193TIP3   OH249069   2.227   2.843  17.091  0.5364 -0.1350 -0.4853
 9193TIP3    H149070   2.177   2.925  17.090 -0.7295 -0.8751 -1.4216
 9193TIP3    H249071   2.239   2.824  17.184 -1.6055 -0.2925 -0.1839
 9194TIP3   OH249072   4.231   4.364   0.167  0.1850 -0.0640  0.1290
 9194TIP3    H149073   4.203   4.391   0.255  0.0645 -1.3175  0.4945
 9194TIP3    H249074   4.177   4.288   0.147 -1.2999  1.4119 -1.9393
 9195TIP3   OH249075   4.466   2.403   5.643  0.1496 -0.3691  0.8994
 9195TIP3    H149076   4.558   2.384   5.623 -0.3595 -4.0010  1.2890
 9195TIP3    H249077   4.460   2.400   5.738 -0.3367  0.2454  0.8973
 9196TIP3   OH249078   3.315   5.173  12.909 -0.2113  0.4233 -0.3244
 9196TIP3    H149079   3.257   5.203  12.839 -1.3967 -0.7971  0.0850
 9196TIP3    H249080   3.334   5.252  12.960  0.6472  1.3211 -1.9743
 9197TIP3   OH249081   0.353   3.813  12.806  0.0842  0.3618  0.0135
 9197TIP3    H149082   0.268   3.790  12.769  0.4748  0.0526 -0.6933
 9197TIP3    H249083   0.341   3.802  12.901 -0.5869  0.0816 -0.0977
 9198TIP3   OH249084   0.429   1.540  16.910  0.0032 -0.1260  0.0408
 9198TIP3    H149085   0.467   1.490  16.983  0.4153  0.3070  0.1227
 9198TIP3    H249086   0.496   1.538  16.842 -0.3284 -0.4143 -0.2855
 9199TIP3   OH249087   0.641   3.547   3.643 -0.0889  0.0204 -0.4908
 9199TIP3    H149088   0.676   3.536   3.554  0.9683  0.7165 -0.1894
 9199TIP3    H249089   0.581   3.622   3.636 -2.1865 -1.6209 -1.1625
 9200TIP3   OH249090   0.313   1.352   5.236 -0.0378 -0.4016 -0.7206
 9200TIP3    H149091   0.357   1.322   5.316 -0.0228  2.1323  0.3268
 9200TIP3    H249092   0.381   1.395   5.185 -0.8246  1.9845  0.0858
 9201TIP3   OH249093   6.137   5.631   4.673 -0.2518  0.5356  0.0302
 9201TIP3    H149094   6.118   5.540   4.649  0.0006  0.8007 -1.2661
 9201TIP3    H249095   6.106   5.639   4.763  0.1254 -0.9477  0.3202
 9202TIP3   OH249096   5.639   3.538  16.819  0.2193  0.3298 -0.4331
 9202TIP3    H149097   5.590   3.546  16.738 -0.1042 -1.0365 -0.4053
 9202TIP3    H249098   5.700   3.466  16.803 -0.4629 -0.5759  0.8047
 9203TIP3   OH249099   4.624   3.599  15.852  0.3423  0.5120  0.3325
 9203TIP3    H149100   4.686   3.671  15.842 -0.5435  1.2716  0.0335
 9203TIP3    H249101   4.566   3.608  15.776  1.4239 -1.7851 -0.8511
 9204TIP3   OH249102   2.000   1.399  11.443  0.0179  0.0059 -0.1145
 9204TIP3    H149103   2.009   1.328  11.379  1.4737 -0.3666  0.4786
 9204TIP3    H249104   2.045   1.474  11.402 -1.7638  0.7322 -0.8708
 9205TIP3   OH249105   0.118   5.188  10.813 -0.5783 -0.3626  0.8731
 9205TIP3    H149106   0.197   5.172  10.761  0.5059  2.2172  1.6157
 9205TIP3    H249107   0.047   5.186  10.748  0.4287  0.1053 -0.2920
 9206TIP3   OH249108   3.762   4.326  12.825  0.2160  0.2936 -0.0598
 9206TIP3    H149109   3.823   4.255  12.846 -0.4265 -0.1702  0.2872
 9206TIP3    H249110   3.776   4.390  12.895  1.5537  1.0327 -0.9483
 9207TIP3   OH249111   4.492   5.962  14.164 -0.5183 -0.1707  0.8903
 9207TIP3    H149112   4.553   5.910  14.217 -1.5099 -0.4072  1.8416
 9207TIP3    H249113   4.454   5.898  14.103  2.0926  0.4738 -1.5589
 9208TIP3   OH249114   5.198   2.465   2.299 -0.7118 -0.7350  0.2632
 9208TIP3    H149115   5.120   2.409   2.288 -1.3512  0.1768  0.0258
 9208TIP3    H249116   5.191   2.497   2.389 -2.1390  1.5216 -0.5665
 9209TIP3   OH249117   2.867   4.220   2.898 -0.3111  0.1374 -0.5084
 9209TIP3    H149118   2.922   4.276   2.843  0.2947 -0.7335 -0.8114
 9209TIP3    H249119   2.853   4.271   2.978 -0.1586  0.9049 -0.9625
 9210TIP3   OH249120   2.707   6.709   0.085  0.0545  0.3974  0.2219
 9210TIP3    H149121   2.696   6.614   0.086  0.4113  0.2706 -2.2099
 9210TIP3    H249122   2.742   6.730   0.172  0.7662 -1.7931  0.5263
 9211TIP3   OH249123   4.426   3.184  12.121  0.5363  0.6477  0.5062
 9211TIP3    H149124   4.420   3.138  12.038 -0.3087  0.9463  0.3872
 9211TIP3    H249125   4.510   3.230  12.117  1.6222 -1.1964  0.8227
 9212TIP3   OH249126   3.469   5.629  14.037 -0.2143  0.0600  0.5494
 9212TIP3    H149127   3.399   5.572  14.005  0.4879 -0.7694  0.4386
 9212TIP3    H249128   3.499   5.586  14.117  0.5806  0.0719  0.2609
 9213TIP3   OH249129   6.130   2.106   6.217 -0.0080  0.4383 -0.1737
 9213TIP3    H149130   6.098   2.016   6.220  0.3366  0.2892 -0.8953
 9213TIP3    H249131   6.059   2.158   6.254  0.3856 -0.2786  1.7044
 9214TIP3   OH249132   6.429   4.970  14.147 -0.0089 -0.4786 -0.0447
 9214TIP3    H149133   6.389   4.965  14.060 -1.7027  1.7983  0.4901
 9214TIP3    H249134   6.402   4.889  14.190 -2.4038  0.0278 -0.4373
 9215TIP3   OH249135   4.482   1.990  15.904  0.3770 -0.2662  0.0543
 9215TIP3    H149136   4.435   2.046  15.966 -2.1626 -1.6083 -0.5095
 9215TIP3    H249137   4.543   2.049  15.859  0.2340  1.3058  1.7929
 9216TIP3   OH249138   5.217   5.913  16.877 -0.0301 -0.0980 -0.3727
 9216TIP3    H149139   5.148   5.902  16.941 -0.0990  0.6403 -0.3105
 9216TIP3    H249140   5.296   5.881  16.920 -0.3006 -0.7985 -0.3911
 9217TIP3   OH249141   4.948   1.419  14.756 -0.0308  0.3575  0.3025
 9217TIP3    H149142   4.917   1.505  14.726  1.1554  1.2386  1.5169
 9217TIP3    H249143   4.878   1.359  14.730 -1.4239  1.8509  0.4057
 9218TIP3   OH249144   2.777   0.666   0.582  0.5611  0.1444  0.3435
 9218TIP3    H149145   2.855   0.686   0.530  0.6897 -0.1140  0.4357
 9218TIP3    H249146   2.808   0.607   0.651  0.5907  1.2514  1.3129
 9219TIP3   OH249147   2.652   5.717  12.293 -0.5252  0.3627 -0.0750
 9219TIP3    H149148   2.644   5.634  12.339 -2.4698  0.0675 -0.8513
 9219TIP3    H249149   2.639   5.695  12.201 -0.3273  1.4401 -0.3780
 9220TIP3   OH249150   1.647   5.882  16.787  0.1562 -0.5293 -0.6526
 9220TIP3    H149151   1.645   5.803  16.841  1.3084 -0.2799 -0.2126
 9220TIP3    H249152   1.710   5.939  16.830 -1.5472  1.1479 -0.2902
 9221TIP3   OH249153   0.680   2.090  10.942  0.6890 -0.5166 -0.3152
 9221TIP3    H149154   0.644   2.002  10.930 -1.6624  0.0880  1.5182
 9221TIP3    H249155   0.633   2.143  10.877  0.7429 -0.2952 -0.1724
 9222TIP3   OH249156   5.194   2.734   3.482  0.3802 -0.0503  0.5694
 9222TIP3    H149157   5.107   2.717   3.447  1.2060 -3.2329 -0.2224
 9222TIP3    H249158   5.223   2.813   3.435 -1.5767  0.3807 -0.0184
 9223TIP3   OH249159   5.627   3.214   0.076  1.3689  0.2677 -0.1926
 9223TIP3    H149160   5.662   3.178   0.158  0.3043 -0.6040 -0.0987
 9223TIP3    H249161   5.546   3.258   0.102  2.0940  1.8714 -0.4797
 9224TIP3   OH249162   3.166   4.527  16.568 -0.1740 -0.4558 -0.0550
 9224TIP3    H149163   3.240   4.537  16.628 -0.6649 -0.8187  0.6336
 9224TIP3    H249164   3.102   4.591  16.598  0.9049  1.8541 -2.3754
 9225TIP3   OH249165   0.648   0.775  11.505  0.7733 -0.3718  0.0361
 9225TIP3    H149166   0.658   0.804  11.414  1.7427  1.5873  0.7288
 9225TIP3    H249167   0.553   0.772  11.519  0.6163  1.1435 -0.5140
 9226TIP3   OH249168   4.990   1.988   2.284  0.2170  0.4601 -0.1888
 9226TIP3    H149169   5.058   1.928   2.253 -0.5092 -0.3849 -0.1594
 9226TIP3    H249170   4.958   1.949   2.365  0.2369  1.2716  0.2192
 9227TIP3   OH249171   2.340   5.326  16.160 -0.0157  0.0065 -0.5491
 9227TIP3    H149172   2.316   5.238  16.131 -0.5172  0.1342 -0.5237
 9227TIP3    H249173   2.435   5.322  16.173 -0.1537 -0.7881  0.3160
 9228TIP3   OH249174   0.914   2.939  14.806 -0.1842 -0.6962 -0.3148
 9228TIP3    H149175   1.008   2.955  14.791  0.3915 -2.2509  1.2969
 9228TIP3    H249176   0.873   3.024  14.790  1.5371  0.1406 -0.6360
 9229TIP3   OH249177   6.281   0.466   6.039 -0.1668  0.3826 -0.2857
 9229TIP3    H149178   6.353   0.405   6.023 -0.2593  0.0186  0.6086
 9229TIP3    H249179   6.250   0.490   5.952  0.5358 -0.0518 -0.6694
 9230TIP3   OH249180   2.908   1.355   4.901 -0.2092  0.0358 -0.8804
 9230TIP3    H149181   2.932   1.444   4.876  1.9371 -0.1742  0.1997
 9230TIP3    H249182   2.976   1.300   4.862 -0.5765 -0.9521 -0.1724
 9231TIP3   OH249183   5.156   1.311  11.198 -0.1566  0.8534 -0.3537
 9231TIP3    H149184   5.175   1.227  11.240 -2.7997  0.6359  0.6278
 9231TIP3    H249185   5.186   1.377  11.261  1.1316  0.6466 -0.7358
 9232TIP3   OH249186   1.141   4.997   5.999  0.0136 -0.3084 -0.0325
 9232TIP3    H149187   1.119   5.091   6.000 -2.1085 -0.7050 -1.7916
 9232TIP3    H249188   1.181   4.983   5.913 -0.1986 -1.1120 -0.0077
 9233TIP3   OH249189   6.705   5.769  14.511  0.0059  0.0897  0.3682
 9233TIP3    H149190   6.646   5.701  14.542  0.6047  0.3066  2.1055
 9233TIP3    H249191   6.782   5.722  14.480  0.1138 -0.0783  0.8764
 9234TIP3   OH249192   0.658   1.706  15.401 -0.0346  0.6334 -0.5046
 9234TIP3    H149193   0.648   1.798  15.376 -1.9940  0.4763 -0.4379
 9234TIP3    H249194   0.570   1.677  15.424  0.4152 -1.4738 -1.2026
 9235TIP3   OH249195   5.209   1.646   3.747  0.4742  0.1643 -0.1859
 9235TIP3    H149196   5.174   1.735   3.739 -1.7044 -0.7614 -2.3011
 9235TIP3    H249197   5.302   1.658   3.766 -0.0023  2.8613  0.8507
 9236TIP3   OH249198   5.133   2.636   5.830  0.0118 -0.0485  0.5136
 9236TIP3    H149199   5.094   2.715   5.866 -1.6834 -1.1815  1.2950
 9236TIP3    H249200   5.107   2.566   5.891  0.4210 -1.3902 -0.7910
 9237TIP3   OH249201   4.037   0.746  15.707  0.0537  0.0042 -0.1277
 9237TIP3    H149202   4.132   0.731  15.705  0.2938  1.2206  1.1876
 9237TIP3    H249203   4.001   0.660  15.731  0.9976  0.0619  1.6635
 9238TIP3   OH249204   2.563   5.769  13.032 -0.3659 -0.0438  0.1753
 9238TIP3    H149205   2.570   5.862  13.012 -1.2530 -0.1705 -0.7824
 9238TIP3    H249206   2.548   5.767  13.127 -1.3212  0.8383  0.0591
 9239TIP3   OH249207   1.207   6.000  13.023 -0.5678 -0.4537 -0.0428
 9239TIP3    H149208   1.204   6.092  13.050  1.5406  0.0619 -1.2561
 9239TIP3    H249209   1.184   5.951  13.102  1.6429  1.0590  1.6857
 9240TIP3   OH249210   1.220   4.883  14.205 -0.3067 -0.5674 -0.3660
 9240TIP3    H149211   1.250   4.792  14.192  0.9238 -0.1178 -0.8624
 9240TIP3    H249212   1.207   4.916  14.116 -1.3359 -0.4214 -0.1712
 9241TIP3   OH249213   3.405   1.763  11.986  0.0549  0.3520 -0.1308
 9241TIP3    H149214   3.406   1.849  11.944  0.2269  0.8428  0.8500
 9241TIP3    H249215   3.319   1.758  12.028 -0.1658 -0.1874 -0.6340
 9242TIP3   OH249216   5.902   0.132   3.167 -0.2912  0.0901 -0.1905
 9242TIP3    H149217   5.912   0.066   3.099 -0.6706  1.1178 -1.2725
 9242TIP3    H249218   5.876   0.082   3.245  1.1062 -1.2025 -0.5139
 9243TIP3   OH249219   0.140   3.420  15.867 -0.4257  0.1605 -0.1247
 9243TIP3    H149220   0.223   3.420  15.915  0.0967 -0.4162 -1.0041
 9243TIP3    H249221   0.074   3.409  15.935  0.2993 -0.6747  0.4784
 9244TIP3   OH249222   6.435   0.890  11.294 -0.3236  0.5804 -0.0835
 9244TIP3    H149223   6.445   0.830  11.367  1.4310  1.7316  0.7023
 9244TIP3    H249224   6.451   0.836  11.216 -0.0412 -0.2322  0.5259
 9245TIP3   OH249225   1.566   3.781   0.440 -0.4977 -0.6308 -0.0789
 9245TIP3    H149226   1.562   3.793   0.535 -1.5634 -0.6880 -0.1034
 9245TIP3    H249227   1.622   3.852   0.409  1.0641 -1.4468  0.7135
 9246TIP3   OH249228   1.414   3.922  11.893  0.2250  0.3723 -0.3662
 9246TIP3    H149229   1.470   3.871  11.952 -0.7721  0.5063  0.7510
 9246TIP3    H249230   1.326   3.890  11.912 -0.1286  0.5018 -1.7394
 9247TIP3   OH249231   0.765   4.205  12.945 -0.2366 -0.4410 -0.0618
 9247TIP3    H149232   0.694   4.181  13.005  0.0204 -0.4508  0.2416
 9247TIP3    H249233   0.783   4.125  12.896  0.1890 -0.7090  0.5083
 9248TIP3   OH249234   6.198   3.149  15.306  0.3410 -0.3015 -0.0541
 9248TIP3    H149235   6.259   3.216  15.338  0.2315 -0.8822  1.4167
 9248TIP3    H249236   6.227   3.068  15.348  0.7309 -1.3017 -2.1277
 9249TIP3   OH249237   3.363   6.491   6.501 -0.2793 -0.4336  0.1513
 9249TIP3    H149238   3.288   6.480   6.443  0.5354 -1.4575 -0.7498
 9249TIP3    H249239   3.387   6.583   6.493 -0.7086 -0.3724 -0.4729
 9250TIP3   OH249240   5.039   4.839  11.276 -0.1586 -0.3449 -0.3715
 9250TIP3    H149241   5.044   4.880  11.189  0.8786 -0.8919 -0.5916
 9250TIP3    H249242   4.975   4.891  11.324  0.3629  0.9005 -0.9788
 9251TIP3   OH249243   2.010   5.794   6.533  0.4701 -0.8231 -0.7635
 9251TIP3    H149244   2.068   5.869   6.547 -0.3347 -0.1267 -1.0384
 9251TIP3    H249245   2.028   5.736   6.607  2.7531 -1.4771 -1.7321
 9252TIP3   OH249246   3.408   0.408   4.941  0.9478  0.2729  0.5479
 9252TIP3    H149247   3.363   0.355   4.875  0.2788 -0.1452  1.3384
 9252TIP3    H249248   3.405   0.497   4.906  2.2186 -0.1954 -0.8711
 9253TIP3   OH249249   1.996   6.372  12.802  0.3419  0.0784 -0.5218
 9253TIP3    H149250   1.992   6.447  12.743 -1.1033 -0.2044 -0.8150
 9253TIP3    H249251   2.022   6.409  12.887  1.6474  0.5987 -1.1205
 9254TIP3   OH249252   0.790   0.470  10.968  0.4017  0.0541  0.1369
 9254TIP3    H149253   0.807   0.397  10.909  0.9127 -0.0921  0.4590
 9254TIP3    H249254   0.876   0.498  10.999  0.3244  1.6416 -0.9680
 9255TIP3   OH249255   2.410   1.030   6.468 -0.5674  0.3116  0.6039
 9255TIP3    H149256   2.430   1.083   6.391  1.9761 -0.3891  0.7070
 9255TIP3    H249257   2.342   1.080   6.515 -0.0170  2.2252 -0.5469
 9256TIP3   OH249258   4.214   3.856   4.154  0.1799 -0.2329 -0.3986
 9256TIP3    H149259   4.222   3.841   4.248  0.9850 -1.3546 -0.6284
 9256TIP3    H249260   4.169   3.940   4.147  0.0000 -0.1927  0.9838
 9257TIP3   OH249261   4.375   6.666  10.873  0.2960  0.1154  0.2118
 9257TIP3    H149262   4.387   6.572  10.869  1.1405  0.1734  1.0363
 9257TIP3    H249263   4.448   6.698  10.927 -0.3194  1.1661  0.4634
 9258TIP3   OH249264   1.135   6.297   6.101  0.2214 -0.5604 -0.4832
 9258TIP3    H149265   1.168   6.304   6.191  4.1027  0.2209 -1.7748
 9258TIP3    H249266   1.093   6.212   6.098  1.9273 -1.5873  1.5803
 9259TIP3   OH249267   4.769   2.810   0.901 -0.4181 -0.4324  0.3940
 9259TIP3    H149268   4.708   2.775   0.966  1.9540 -0.8629  2.5469
 9259TIP3    H249269   4.808   2.886   0.943  1.2078 -0.7289 -0.4991
 9260TIP3   OH249270   2.920   4.932  14.510  0.0181 -0.4300 -0.2308
 9260TIP3    H149271   2.860   4.924  14.584  1.1873 -1.3034  0.6578
 9260TIP3    H249272   2.879   4.997  14.453 -0.4873  0.9562  1.6155
 9261TIP3   OH249273   3.087   5.582   3.920  0.3818 -0.1491  0.9234
 9261TIP3    H149274   3.115   5.500   3.879  1.9662  0.8245 -0.0903
 9261TIP3    H249275   3.019   5.616   3.861  0.6075 -0.1501  0.6574
 9262TIP3   OH249276   3.348   4.037  11.440  0.1280 -0.2808 -0.1398
 9262TIP3    H149277   3.343   4.118  11.388 -0.8821 -1.1506 -1.4697
 9262TIP3    H249278   3.411   3.982  11.393  0.6610 -0.3716  0.6503
 9263TIP3   OH249279   6.236   6.277  12.560 -0.2156 -0.1501  0.0276
 9263TIP3    H149280   6.187   6.195  12.569 -0.5443  0.2291  1.9625
 9263TIP3    H249281   6.176   6.345  12.589  0.7539  0.5552  0.4454
 9264TIP3   OH249282   2.978   5.320  11.906  0.1683  0.2263 -0.1353
 9264TIP3    H149283   2.915   5.248  11.895  0.9283 -0.4420 -0.1965
 9264TIP3    H249284   2.941   5.392  11.855 -1.4988  0.4886  1.3180
 9265TIP3   OH249285   4.834   0.808  15.140  0.0963  0.4660  0.3942
 9265TIP3    H149286   4.741   0.798  15.161  0.0070  2.2246  1.0529
 9265TIP3    H249287   4.841   0.782  15.048 -0.2867 -3.4288  1.2743
 9266TIP3   OH249288   1.642   1.879   0.663  0.0134  0.2791  0.1411
 9266TIP3    H149289   1.679   1.920   0.585 -1.2928  1.0132 -0.1146
 9266TIP3    H249290   1.554   1.852   0.638  0.0458 -0.6861  0.9757
 9267TIP3   OH249291   4.731   3.495  12.102  0.3213  0.4703  0.0714
 9267TIP3    H149292   4.714   3.415  12.151  1.5038  0.3972  0.3794
 9267TIP3    H249293   4.658   3.553  12.124 -0.2100 -0.2880  0.3288
 9268TIP3   OH249294   2.080   2.936   1.392 -0.0391  0.2633  0.3540
 9268TIP3    H149295   2.072   3.003   1.323  2.3550 -0.9005 -1.1993
 9268TIP3    H249296   2.022   2.866   1.363  0.5189  0.0238 -0.2312
 9269TIP3   OH249297   0.028   5.474  13.596  0.2460  0.2358  0.2531
 9269TIP3    H149298   0.094   5.487  13.528  0.0331 -0.7839 -0.1701
 9269TIP3    H249299  -0.010   5.389  13.576 -0.1719  0.1453  1.3651
 9270TIP3   OH249300   0.111   1.627  11.672  0.7597 -0.2956  0.6291
 9270TIP3    H149301   0.113   1.566  11.746 -0.0795  0.9045  1.6735
 9270TIP3    H249302   0.203   1.642  11.651  1.0348 -3.1570 -0.7666
 9271TIP3   OH249303   1.448   6.053   2.330  0.1671  0.4133 -0.0306
 9271TIP3    H149304   1.464   6.075   2.422  1.2186 -0.5701  0.0495
 9271TIP3    H249305   1.479   6.129   2.281 -1.0392  1.2375  0.4341
 9272TIP3   OH249306   2.322   4.875  15.915 -0.0776 -0.0697 -0.2725
 9272TIP3    H149307   2.404   4.856  15.869 -0.3715 -0.4736 -0.6421
 9272TIP3    H249308   2.284   4.789  15.934 -0.4305  0.1123 -0.1335
 9273TIP3   OH249309   6.124   6.522  12.641  0.1001 -0.2028  0.1225
 9273TIP3    H149310   6.186   6.574  12.590  0.7342 -0.3463  0.7228
 9273TIP3    H249311   6.049   6.509  12.583  0.8281 -0.4219 -0.7999
 9274TIP3   OH249312   5.306   0.793   5.722 -0.4354 -0.1187  0.7493
 9274TIP3    H149313   5.235   0.799   5.657  0.6110  0.2810 -0.4066
 9274TIP3    H249314   5.262   0.766   5.802 -1.3562 -4.5372 -0.9467
 9275TIP3   OH249315   3.420   1.301  15.389  0.2287  0.3238 -0.3005
 9275TIP3    H149316   3.468   1.231  15.346  0.1872  0.2411 -0.2145
 9275TIP3    H249317   3.346   1.257  15.431  0.7883  0.2569  0.6622
 9276TIP3   OH249318   0.889   3.463  16.391  0.2428 -0.1592  0.2110
 9276TIP3    H149319   0.904   3.555  16.415 -2.9798  0.2588  1.0936
 9276TIP3    H249320   0.958   3.415  16.437  0.3994  1.5998  1.9611
 9277TIP3   OH249321   4.980   4.914   2.153  0.3156  0.6516  0.6016
 9277TIP3    H149322   4.898   4.941   2.113  0.8164  0.1701 -0.8262
 9277TIP3    H249323   5.046   4.969   2.110  0.6617  1.7646  2.4668
 9278TIP3   OH249324   6.473   1.092   2.754 -0.3668 -0.2155 -0.4502
 9278TIP3    H149325   6.383   1.080   2.723 -0.2760 -0.2312 -0.7086
 9278TIP3    H249326   6.527   1.047   2.688 -0.2134 -0.7806  0.0480
 9279TIP3   OH249327   2.866   1.730   3.855  0.1756  0.5507 -0.3652
 9279TIP3    H149328   2.902   1.774   3.932  0.7571 -2.0390  0.9741
 9279TIP3    H249329   2.815   1.658   3.891 -1.7808  0.8156 -2.4003
 9280TIP3   OH249330   0.125   4.100   4.350  0.1811  0.0969  0.2736
 9280TIP3    H149331   0.121   4.062   4.437 -3.2776  0.9437  0.6347
 9280TIP3    H249332   0.099   4.028   4.291 -1.3849  0.4779  0.4381
 9281TIP3   OH249333   0.227   1.866  10.506  0.4467  0.4405 -0.7532
 9281TIP3    H149334   0.315   1.840  10.533  0.0912 -0.3767 -0.3289
 9281TIP3    H249335   0.240   1.938  10.445  1.4188  0.1205 -0.9296
 9282TIP3   OH249336   0.078   2.369   4.644  0.2175 -0.0320 -0.4324
 9282TIP3    H149337   0.005   2.398   4.590  0.7692  2.0643 -0.1457
 9282TIP3    H249338   0.085   2.435   4.713  1.5572 -0.8868  0.3081
 9283TIP3   OH249339   5.650   1.649   6.513 -0.0686 -0.3029  0.5488
 9283TIP3    H149340   5.695   1.702   6.447  0.5656 -0.2589  1.0086
 9283TIP3    H249341   5.715   1.584   6.540 -0.4052 -0.4774  0.9476
 9284TIP3   OH249342   4.046   5.056  15.779 -0.6124 -0.7722 -0.5593
 9284TIP3    H149343   4.084   4.971  15.755  3.6045  0.6844  0.2161
 9284TIP3    H249344   4.121   5.114  15.791 -3.1382  2.3638  1.8552
 9285TIP3   OH249345   4.114   1.907  12.933  0.6702 -0.2135  0.0392
 9285TIP3    H149346   4.087   1.858  12.855 -0.8774 -2.0342  1.6115
 9285TIP3    H249347   4.187   1.857  12.969  0.7180  0.0462  0.3032
 9286TIP3   OH249348   2.365   4.570   4.400 -0.3902  0.3136 -0.0461
 9286TIP3    H149349   2.307   4.506   4.442  0.2859  0.1743  0.6966
 9286TIP3    H249350   2.389   4.630   4.470  0.7358  0.0929 -0.2342
 9287TIP3   OH249351   4.942   4.134  16.445 -0.7386  1.1196 -0.4030
 9287TIP3    H149352   4.855   4.114  16.478 -0.0284 -0.7047  0.4572
 9287TIP3    H249353   4.975   4.201  16.505 -0.0776 -1.0171  1.7827
 9288TIP3   OH249354   5.892   5.350  12.534 -0.4851  0.0593  0.8368
 9288TIP3    H149355   5.893   5.439  12.498 -0.3695 -0.1504  0.3082
 9288TIP3    H249356   5.938   5.358  12.618  1.0890  0.1760  0.0058
 9289TIP3   OH249357   5.652   5.534   3.998  0.6367 -0.3883  0.4425
 9289TIP3    H149358   5.595   5.579   4.061  1.7467 -2.0948  2.8353
 9289TIP3    H249359   5.727   5.592   3.989  1.5691 -1.1185  2.6695
 9290TIP3   OH249360   3.859   2.715   2.675 -0.1040  0.1069  0.1284
 9290TIP3    H149361   3.871   2.807   2.652 -1.8197  0.1303 -0.8351
 9290TIP3    H249362   3.830   2.717   2.767 -0.8836  0.6003 -0.1206
 9291TIP3   OH249363   6.692   4.667  13.563 -0.3885  0.4112  0.2139
 9291TIP3    H149364   6.645   4.722  13.625 -1.3689 -0.5864  0.4005
 9291TIP3    H249365   6.623   4.616  13.520  0.4930 -0.8561  0.2541
 9292TIP3   OH249366   5.706   2.922   5.328  0.2162 -0.0967 -0.0554
 9292TIP3    H149367   5.700   2.997   5.268  1.2222  0.0367  0.0019
 9292TIP3    H249368   5.704   2.845   5.270  0.4976  0.0101 -0.2071
 9293TIP3   OH249369   1.685   5.232   6.971  0.2216  0.4802  0.2899
 9293TIP3    H149370   1.669   5.144   7.004  0.4900  0.6588  0.9235
 9293TIP3    H249371   1.602   5.278   6.984 -0.7140 -0.3071 -2.2607
 9294TIP3   OH249372   2.391   4.816   2.396 -0.0497 -0.1767 -0.1225
 9294TIP3    H149373   2.338   4.747   2.358  1.2223 -0.4558 -1.4613
 9294TIP3    H249374   2.387   4.888   2.333  0.7222 -0.0034  0.0118
 9295TIP3   OH249375   3.569   1.498   0.533 -0.2033 -0.4100 -0.2877
 9295TIP3    H149376   3.588   1.565   0.599  1.3456 -0.1789 -0.9286
 9295TIP3    H249377   3.639   1.508   0.468 -0.7538 -1.7264 -1.1197
 9296TIP3   OH249378   6.724   3.022   2.808  0.1657  0.3994  0.1864
 9296TIP3    H149379   6.655   3.072   2.851 -0.5447 -1.1447  0.9036
 9296TIP3    H249380   6.732   3.062   2.722 -0.1076  1.9732  0.8538
 9297TIP3   OH249381   5.111   1.395   2.615 -0.0314 -0.0409 -0.3889
 9297TIP3    H149382   5.060   1.341   2.675 -1.3731  0.5343 -0.9553
 9297TIP3    H249383   5.048   1.422   2.548  1.6978 -1.9712 -2.9941
 9298TIP3   OH249384   5.887   1.261   2.545 -0.0219  0.4216  0.2531
 9298TIP3    H149385   5.808   1.215   2.572  1.4445 -1.3626  1.7023
 9298TIP3    H249386   5.912   1.313   2.621  1.0860 -0.2991  0.3956
 9299TIP3   OH249387   4.810   3.954   2.236 -0.8151 -0.0337  0.2780
 9299TIP3    H149388   4.750   3.893   2.193 -0.0725  0.3136 -1.3523
 9299TIP3    H249389   4.796   4.037   2.192 -0.7329  0.6181  1.4410
 9300TIP3   OH249390   6.570   3.081  16.827 -0.3934  0.2702 -0.3433
 9300TIP3    H149391   6.597   2.990  16.813 -0.3951  0.1840  0.1886
 9300TIP3    H249392   6.650   3.132  16.815  0.2611 -0.0539  2.0361
 9301TIP3   OH249393   4.604   1.897   3.276  0.1203  0.1634 -0.3644
 9301TIP3    H149394   4.519   1.858   3.258 -0.4030  1.9634 -2.2034
 9301TIP3    H249395   4.659   1.823   3.303 -1.9127 -1.0794  0.6388
 9302TIP3   OH249396   5.769   6.361   3.939  0.1749 -1.0889 -0.6097
 9302TIP3    H149397   5.812   6.445   3.923  0.6694 -1.1605  0.2509
 9302TIP3    H249398   5.835   6.295   3.917 -0.5322 -1.2945 -2.2082
 9303TIP3   OH249399   5.822   4.610  16.677  0.3062 -0.3652 -0.3191
 9303TIP3    H149400   5.914   4.585  16.671  0.4613  0.1776 -0.2637
 9303TIP3    H249401   5.779   4.534  16.716  0.5296 -1.0657 -1.4060
 9304TIP3   OH249402   2.737   3.093   0.077  0.3484 -0.0498  0.1344
 9304TIP3    H149403   2.695   3.009   0.059 -0.6429  0.4011  0.2517
 9304TIP3    H249404   2.770   3.122  -0.008  0.8843 -0.6572  0.1340
 9305TIP3   OH249405   1.518   0.651   0.914 -0.1453 -0.0934 -1.1592
 9305TIP3    H149406   1.517   0.665   1.009 -0.1569  1.9028 -1.4097
 9305TIP3    H249407   1.426   0.641   0.890 -0.3637  1.7323 -1.2159
 9306TIP3   OH249408   3.095   3.998   2.740 -0.3564  0.1005 -0.0030
 9306TIP3    H149409   3.051   3.972   2.821  2.2955 -1.1471  1.1356
 9306TIP3    H249410   3.179   4.034   2.768  1.2718 -1.6714 -2.2073
 9307TIP3   OH249411   0.613   0.908   4.643  0.0471 -0.4350  0.1908
 9307TIP3    H149412   0.524   0.881   4.624 -0.3318  1.9171 -1.9150
 9307TIP3    H249413   0.605   0.967   4.718 -0.5218  1.2199 -1.1051
 9308TIP3   OH249414   4.721   1.927  16.396 -0.7043  0.0231  0.0114
 9308TIP3    H149415   4.816   1.922  16.381 -0.2777  1.6287  1.8207
 9308TIP3    H249416   4.689   1.983  16.326 -0.1050  0.5432  0.1474
 9309TIP3   OH249417   3.812   4.097  11.205 -0.2926 -0.4727 -0.2190
 9309TIP3    H149418   3.813   4.074  11.298  1.2660 -1.9395 -0.5581
 9309TIP3    H249419   3.877   4.166  11.196 -0.2169 -0.5524 -0.2782
 9310TIP3   OH249420   6.609   1.248   3.219  0.1830 -0.0550 -0.4289
 9310TIP3    H149421   6.616   1.185   3.291  0.0510  0.1469 -0.2387
 9310TIP3    H249422   6.632   1.197   3.141 -1.8225 -0.9019 -0.5541
 9311TIP3   OH249423   0.982   3.917  14.126  0.1102  0.2170 -0.0780
 9311TIP3    H149424   1.026   3.891  14.207  0.2654 -0.1393 -0.2750
 9311TIP3    H249425   0.941   3.837  14.094 -1.2708  0.6913  0.4522
 9312TIP3   OH249426   2.583   1.713  14.547  0.1478  0.6104 -0.2260
 9312TIP3    H149427   2.575   1.787  14.606  0.7663  1.2868 -0.9534
 9312TIP3    H249428   2.497   1.671  14.549 -1.2123  3.0310 -1.9589
 9313TIP3   OH249429   1.782   4.059   1.314  0.8298  0.1138 -0.3045
 9313TIP3    H149430   1.768   4.004   1.237 -0.7614 -1.2444  0.8779
 9313TIP3    H249431   1.700   4.052   1.364  1.1863  2.2884  0.7069
 9314TIP3   OH249432   5.636   1.786   1.899  0.4456 -0.6362  0.3909
 9314TIP3    H149433   5.559   1.786   1.955  0.9948  0.6599  1.1685
 9314TIP3    H249434   5.667   1.695   1.902 -0.9571 -1.1602  0.1505
 9315TIP3   OH249435   1.202   6.032   3.436 -0.3351 -0.1183 -0.8200
 9315TIP3    H149436   1.225   6.043   3.528  2.6744 -2.1084 -1.1849
 9315TIP3    H249437   1.116   6.073   3.427 -0.6181  0.3569  2.7799
 9316TIP3   OH249438   3.475   6.503  14.571  0.4653  0.0236 -0.2252
 9316TIP3    H149439   3.480   6.569  14.502  1.7751 -1.0027 -1.1727
 9316TIP3    H249440   3.556   6.515  14.621 -0.0007  0.0989  0.5218
 9317TIP3   OH249441   3.727   1.976   2.307 -0.1934  0.4117 -0.7178
 9317TIP3    H149442   3.643   1.947   2.271 -0.7614 -0.5375  1.2371
 9317TIP3    H249443   3.736   2.067   2.279 -1.2959  0.1698 -1.9298
 9318TIP3   OH249444   4.711   2.685   0.603  0.4268  0.1341  0.3050
 9318TIP3    H149445   4.710   2.759   0.543  2.9286 -0.2966 -0.3743
 9318TIP3    H249446   4.728   2.608   0.548 -2.8214 -1.1768  0.8789
 9319TIP3   OH249447   2.494   6.739   3.132 -0.4067  0.6626 -0.1052
 9319TIP3    H149448   2.486   6.832   3.155  0.1764  0.8168 -0.4950
 9319TIP3    H249449   2.589   6.723   3.129 -0.4472  0.5395 -1.9454
 9320TIP3   OH249450   4.183   4.259   3.545 -0.1153  0.8333  0.1057
 9320TIP3    H149451   4.214   4.350   3.552 -1.6115  1.4911 -1.2029
 9320TIP3    H249452   4.198   4.236   3.453 -0.7357  0.1352  0.1709
 9321TIP3   OH249453   5.704   3.034   0.980 -0.2812  0.2534  0.4339
 9321TIP3    H149454   5.671   3.118   1.012  1.6445  0.9531  0.7464
 9321TIP3    H249455   5.690   2.973   1.052 -1.5586  0.3222  0.2608
 9322TIP3   OH249456   4.664   3.200  14.805  0.0535  0.9450 -1.0038
 9322TIP3    H149457   4.578   3.196  14.764 -1.6661 -0.2730  2.3372
 9322TIP3    H249458   4.666   3.285  14.850  0.7215  1.0831 -1.2790
 9323TIP3   OH249459   3.015   4.406  13.749  0.3269  0.9112  0.0175
 9323TIP3    H149460   3.076   4.430  13.679  0.7656 -0.3975 -0.0705
 9323TIP3    H249461   3.050   4.324  13.785 -1.2703  0.2215  0.0825
 9324TIP3   OH249462   0.417   2.778  12.996 -0.2064 -0.5620 -0.0360
 9324TIP3    H149463   0.358   2.727  13.052 -1.2637 -0.6039 -1.1354
 9324TIP3    H249464   0.505   2.750  13.021 -0.7011 -1.4714  0.7392
 9325TIP3   OH249465   0.140   0.573   3.124  0.2914  0.0725 -0.7405
 9325TIP3    H149466   0.213   0.543   3.070  0.1299 -1.1099 -0.3323
 9325TIP3    H249467   0.062   0.545   3.076  0.1317  0.2061 -0.5579
 9326TIP3   OH249468   3.816   0.500   1.765  0.1400 -0.0487  0.2887
 9326TIP3    H149469   3.881   0.446   1.810 -0.2933 -0.7924  0.0350
 9326TIP3    H249470   3.859   0.585   1.754  0.3441  0.0867  1.8873
 9327TIP3   OH249471   0.367   2.908  15.950 -0.2673  0.1601  0.6671
 9327TIP3    H149472   0.442   2.894  15.892 -2.6996  0.6303 -2.9604
 9327TIP3    H249473   0.333   2.820  15.967  0.4443  0.0224  1.4851
 9328TIP3   OH249474   5.579   4.204   0.795 -0.4895  0.1344  0.9251
 9328TIP3    H149475   5.597   4.115   0.766  0.6631  0.2402  1.2379
 9328TIP3    H249476   5.489   4.221   0.769 -0.3815 -0.7468 -0.0797
 9329TIP3   OH249477   3.921   4.388  13.251  0.0467 -0.7840 -0.4864
 9329TIP3    H149478   3.866   4.421  13.321 -0.3549 -1.8863 -0.2688
 9329TIP3    H249479   4.010   4.395  13.285 -0.0769 -0.4798 -0.2231
 9330TIP3   OH249480   1.466   6.670  14.982 -0.3529  1.0920  0.3616
 9330TIP3    H149481   1.480   6.721  14.902  0.0083  1.6843  0.8007
 9330TIP3    H249482   1.423   6.590  14.951 -1.7651  2.0429 -0.2320
 9331TIP3   OH249483   5.300   5.770   2.667  0.7484  0.0950  0.1913
 9331TIP3    H149484   5.318   5.699   2.606  0.5986 -1.0323  1.4128
 9331TIP3    H249485   5.309   5.730   2.754  0.7622  1.5957  0.9107
 9332TIP3   OH249486   0.225   1.257  14.944  0.1686 -0.1979  0.0691
 9332TIP3    H149487   0.293   1.323  14.957  0.2871 -0.1097 -0.9635
 9332TIP3    H249488   0.271   1.182  14.906 -0.1448 -0.5027  0.2803
 9333TIP3   OH249489   4.876   1.112  15.589  0.1710 -1.0459  0.2142
 9333TIP3    H149490   4.892   1.106  15.495  1.2347 -2.2214  0.4395
 9333TIP3    H249491   4.898   1.202  15.612 -0.2020 -0.7184 -0.6743
 9334TIP3   OH249492   0.750   4.252  16.229  0.0137  0.6072  0.3460
 9334TIP3    H149493   0.679   4.298  16.275 -0.0148 -0.2995  1.2357
 9334TIP3    H249494   0.719   4.162  16.223  1.2670  0.1117  1.1096
 9335TIP3   OH249495   2.649   5.153  15.927 -0.5442 -0.4622 -0.2832
 9335TIP3    H149496   2.667   5.092  15.998  1.3429 -0.8679 -1.0488
 9335TIP3    H249497   2.648   5.239  15.969  1.0203 -0.6492  0.1809
 9336TIP3   OH249498   5.904   6.482  12.879 -0.1296  0.3421  0.0267
 9336TIP3    H149499   5.824   6.517  12.839  0.4089  1.1512 -0.3763
 9336TIP3    H249500   5.970   6.490  12.811 -0.4905 -3.9577 -1.0744
 9337TIP3   OH249501   6.593   3.363  12.329  0.5432  0.0315 -0.1303
 9337TIP3    H149502   6.667   3.375  12.269  1.0948  0.7474  0.6704
 9337TIP3    H249503   6.622   3.403  12.411 -0.5091 -0.2173  0.3782
 9338TIP3   OH249504   0.311   2.935   2.407 -0.0738 -0.6363  0.2154
 9338TIP3    H149505   0.306   2.936   2.312 -0.4994  2.1099  0.1951
 9338TIP3    H249506   0.221   2.915   2.435  0.1413 -1.8929  0.1042
 9339TIP3   OH249507   1.309   3.342   3.051  0.6907 -0.1976  0.2659
 9339TIP3    H149508   1.318   3.407   3.120  1.3087  0.1984 -0.1872
 9339TIP3    H249509   1.389   3.290   3.056  1.3204  0.6236 -0.9646
 9340TIP3   OH249510   2.920   6.475  16.596  0.2998 -0.4346  0.0459
 9340TIP3    H149511   2.826   6.472  16.613  0.0309  0.8419 -1.0488
 9340TIP3    H249512   2.927   6.485  16.501  1.6309 -3.5757 -0.3088
 9341TIP3   OH249513   5.981   2.043   2.704  0.3270  0.4336  0.1005
 9341TIP3    H149514   6.023   2.014   2.784  2.1981  0.4651 -0.8041
 9341TIP3    H249515   5.938   1.964   2.669  0.1852  0.2384  0.6976
 9342TIP3   OH249516   5.207   0.284   4.774  0.5725  0.0029 -0.1510
 9342TIP3    H149517   5.248   0.198   4.775  1.6010  0.4790  1.1426
 9342TIP3    H249518   5.191   0.302   4.681  0.9929 -1.2711 -0.4831
 9343TIP3   OH249519   0.347   4.909   6.552  0.3282 -0.1288  0.1525
 9343TIP3    H149520   0.295   4.860   6.615 -0.8656  0.5188 -0.3049
 9343TIP3    H249521   0.292   4.916   6.475  0.6288  1.5492  0.0508
 9344TIP3   OH249522   6.547   5.706  16.052  0.1401  0.1535  0.1625
 9344TIP3    H149523   6.517   5.743  16.135  0.7475  0.3148  0.3081
 9344TIP3    H249524   6.598   5.630  16.077  1.1339  0.7468 -0.0087
 9345TIP3   OH249525   6.417   4.073  11.415 -0.1818 -0.5701  0.1391
 9345TIP3    H149526   6.459   4.138  11.471 -0.2100  0.1545 -0.6506
 9345TIP3    H249527   6.490   4.022  11.379 -0.2046 -1.4846  1.3403
 9346TIP3   OH249528   5.250   4.707   4.834 -0.0224 -0.4835 -0.3543
 9346TIP3    H149529   5.279   4.750   4.753  0.4036 -0.9453 -0.4483
 9346TIP3    H249530   5.329   4.668   4.870  0.5317  2.4131  1.9965
 9347TIP3   OH249531   5.992   1.674  11.697  0.2086 -0.0439  0.1258
 9347TIP3    H149532   6.035   1.611  11.755 -2.0015 -0.3224  1.5782
 9347TIP3    H249533   5.960   1.743  11.755 -4.3845 -1.6032 -0.1442
 9348TIP3   OH249534   4.363   0.258  12.253 -0.1700 -0.0391  0.9580
 9348TIP3    H149535   4.303   0.194  12.289  0.8285 -2.3572 -1.1940
 9348TIP3    H249536   4.450   0.227  12.278  0.3234  1.0091  0.6447
 9349TIP3   OH249537   2.629   6.511  16.610 -0.2701 -0.6907  0.2676
 9349TIP3    H149538   2.604   6.588  16.661  3.2953  0.7263  0.2129
 9349TIP3    H249539   2.557   6.498  16.549 -3.0686 -0.2841  3.2085
 9350TIP3   OH249540   2.808   2.290  15.090 -0.5585 -0.0032  0.3369
 9350TIP3    H149541   2.814   2.366  15.033 -0.6434  1.5798  2.3489
 9350TIP3    H249542   2.728   2.304  15.141  0.1038 -0.7567  1.6435
 9351TIP3   OH249543   2.752   1.082  12.296  0.0071  0.1705 -0.3965
 9351TIP3    H149544   2.842   1.113  12.300  0.5221 -1.3023  0.2211
 9351TIP3    H249545   2.737   1.067  12.202  1.1662 -1.5677 -0.3538
 9352TIP3   OH249546   1.984   2.360   1.742  0.1404  0.2728  0.1149
 9352TIP3    H149547   1.930   2.416   1.797  1.1083 -0.1918  1.6198
 9352TIP3    H249548   2.064   2.411   1.725 -0.1685  0.4329 -0.9380
 9353TIP3   OH249549   3.426   6.262   3.901 -0.2308 -0.3015 -0.4409
 9353TIP3    H149550   3.496   6.219   3.853  0.2349  1.3589 -1.2944
 9353TIP3    H249551   3.448   6.248   3.993  1.4230  0.4917 -0.6854
 9354TIP3   OH249552   2.450   0.112  13.776 -0.2541  0.3802  0.2698
 9354TIP3    H149553   2.540   0.135  13.801 -0.3049  0.8842 -0.0100
 9354TIP3    H249554   2.398   0.189  13.799 -0.3183  0.8441 -1.2864
 9355TIP3   OH249555   1.367   3.628   3.827 -0.7082  0.0607  0.1446
 9355TIP3    H149556   1.299   3.568   3.796  2.1433 -1.8456 -3.1149
 9355TIP3    H249557   1.430   3.572   3.872  0.0685  1.3268  0.6912
 9356TIP3   OH249558   3.049   6.210   6.234 -0.2586  0.1981 -0.0122
 9356TIP3    H149559   2.996   6.195   6.313 -0.9620 -0.7466 -0.6358
 9356TIP3    H249560   2.987   6.199   6.161  0.5849  0.1010 -0.7333
 9357TIP3   OH249561   2.470   2.455   6.463  0.4750  0.3349 -0.2252
 9357TIP3    H149562   2.513   2.538   6.441 -1.7833  1.8237  0.6472
 9357TIP3    H249563   2.378   2.469   6.442  0.0979 -2.1788 -0.5399
 9358TIP3   OH249564   4.990   5.997  11.876 -0.5326  0.1436 -0.1549
 9358TIP3    H149565   4.953   6.072  11.829 -0.0518  0.2265 -0.4089
 9358TIP3    H249566   5.001   5.930  11.808  0.5704  0.4139 -0.2500
 9359TIP3   OH249567   6.462   5.969   3.995 -0.4075  0.8659  0.4322
 9359TIP3    H149568   6.418   6.026   3.932  0.5593  0.1760 -0.9240
 9359TIP3    H249569   6.518   6.029   4.045  0.2270  1.2203 -0.6482
 9360TIP3   OH249570   6.504   5.699  12.996  0.2296 -0.4619 -0.0266
 9360TIP3    H149571   6.586   5.703  13.045 -0.0873  1.7756  0.4294
 9360TIP3    H249572   6.529   5.722  12.906  0.0743  0.5509  0.1813
 9361TIP3   OH249573   5.775   5.032  13.222  0.2037 -0.0618 -0.1451
 9361TIP3    H149574   5.750   5.112  13.176 -0.3657 -0.3800 -0.3959
 9361TIP3    H249575   5.700   4.974  13.213  0.3432 -0.3825  0.6159
 9362TIP3   OH249576   3.466   0.922  11.126 -0.2232  0.6922  0.2849
 9362TIP3    H149577   3.408   0.853  11.160  2.0384 -1.6507 -0.2677
 9362TIP3    H249578   3.447   0.924  11.032  0.7992 -0.3792  0.0315
 9363TIP3   OH249579   1.259   4.253  12.274  0.5287 -0.0399  0.3158
 9363TIP3    H149580   1.264   4.319  12.343 -2.6014 -0.9422  1.5819
 9363TIP3    H249581   1.312   4.180  12.306  1.1123  0.4847  0.5625
 9364TIP3   OH249582   2.271   1.534   5.309  0.1006  0.4041  0.2993
 9364TIP3    H149583   2.306   1.615   5.274 -0.9905  1.5288  1.6987
 9364TIP3    H249584   2.177   1.539   5.294 -0.2449  0.3487  2.1430
 9365TIP3   OH249585   5.936   6.381  11.892  0.3730  0.0589 -0.8556
 9365TIP3    H149586   5.980   6.466  11.894 -2.1144  1.4381  1.0098
 9365TIP3    H249587   5.882   6.384  11.814 -0.3504  0.5879 -0.3486
 9366TIP3   OH249588   4.418   4.529   0.038  0.5254  0.4347 -0.3841
 9366TIP3    H149589   4.357   4.578  -0.017 -0.0561 -0.8669 -0.9436
 9366TIP3    H249590   4.366   4.457   0.072  1.3554  0.2095  0.4387
 9367TIP3   OH249591   0.828   4.972   2.007  0.5671 -0.0843  0.7298
 9367TIP3    H149592   0.785   4.905   2.060  0.0168  1.0492  1.7614
 9367TIP3    H249593   0.757   5.031   1.981  1.1004  0.3349  0.2084
 9368TIP3   OH249594   6.530   3.286  14.050  0.4917 -0.0328 -0.0396
 9368TIP3    H149595   6.506   3.326  13.966  0.7573  0.1031 -0.0523
 9368TIP3    H249596   6.525   3.192  14.034 -1.1098 -0.0324  0.2639
 9369TIP3   OH249597   6.551   3.213   3.986  0.2882  0.8037 -0.1713
 9369TIP3    H149598   6.577   3.131   4.027 -1.9286  0.5244  0.8349
 9369TIP3    H249599   6.472   3.191   3.936 -1.1192  2.5264  1.1756
 9370TIP3   OH249600   5.705   3.507  15.538 -0.6184 -0.0040  0.3515
 9370TIP3    H149601   5.798   3.528  15.534 -0.4208  0.1892  3.4824
 9370TIP3    H249602   5.701   3.412  15.528 -0.0918 -0.0029  0.1303
 9371TIP3   OH249603   3.773   5.728  13.349  0.3478 -0.2002 -0.0516
 9371TIP3    H149604   3.696   5.751  13.400  0.4312 -1.3812  0.6475
 9371TIP3    H249605   3.805   5.811  13.314 -2.0528  0.1905 -1.5511
 9372TIP3   OH249606   1.816   6.208   0.149  0.0314  0.1749  0.2556
 9372TIP3    H149607   1.891   6.260   0.123  0.7447 -1.8281 -2.1179
 9372TIP3    H249608   1.837   6.176   0.237  0.8957  1.4299  0.5197
 9373TIP3   OH249609   5.484   4.946  12.584 -0.1018  0.6515  0.4804
 9373TIP3    H149610   5.534   4.871  12.552 -1.7704 -0.0866 -0.4902
 9373TIP3    H249611   5.486   4.937  12.679  0.9537  0.2333  0.4374
 9374TIP3   OH249612   2.242   0.602  13.556 -0.0848 -0.0946  0.7121
 9374TIP3    H149613   2.240   0.507  13.572 -1.0802 -0.4638 -1.2382
 9374TIP3    H249614   2.259   0.641  13.642 -1.0524 -1.9780  1.8222
 9375TIP3   OH249615   2.212   6.819   2.437  0.0999 -0.2021 -0.0546
 9375TIP3    H149616   2.138   6.859   2.483  0.3363 -0.1321  0.2683
 9375TIP3    H249617   2.213   6.862   2.351  1.3630  1.7488  0.8484
 9376TIP3   OH249618   0.843   3.297   5.129 -0.3868  0.8006 -0.3898
 9376TIP3    H149619   0.777   3.240   5.089  0.4992  0.0912 -0.8776
 9376TIP3    H249620   0.885   3.340   5.054  0.3481  0.5169 -0.1460
 9377TIP3   OH249621   4.097   5.786   0.586 -0.5328 -0.1032 -0.2597
 9377TIP3    H149622   4.080   5.876   0.560  0.8363  0.6305  1.1749
 9377TIP3    H249623   4.048   5.733   0.523 -0.9072  1.6120 -1.5015
 9378TIP3   OH249624   6.107   6.049  12.653  0.5813  0.2284 -0.4345
 9378TIP3    H149625   6.053   6.101  12.712  0.3119  0.2399 -0.6863
 9378TIP3    H249626   6.164   5.998  12.710  0.8385  0.7908 -0.1876
 9379TIP3   OH249627   6.021   0.301   0.711  0.1310 -0.2645  0.3069
 9379TIP3    H149628   5.958   0.230   0.726  0.8022 -0.9458 -0.0150
 9379TIP3    H249629   6.106   0.257   0.708  0.5808  0.5868  0.3002
 9380TIP3   OH249630   5.913   0.871  11.474  0.5508 -0.1899 -0.4995
 9380TIP3    H149631   5.914   0.966  11.489 -0.0226 -0.1793 -0.5106
 9380TIP3    H249632   5.991   0.855  11.420  1.4809  0.0623  0.7061
 9381TIP3   OH249633   5.791   0.434   0.389  0.4039 -0.3393 -0.0654
 9381TIP3    H149634   5.817   0.472   0.473  1.3921  0.4263 -0.6861
 9381TIP3    H249635   5.870   0.391   0.357  1.3989  2.9407 -2.4991
 9382TIP3   OH249636   5.195   0.263   3.185 -0.8808  0.0963  0.9266
 9382TIP3    H149637   5.204   0.324   3.112 -0.1256  0.5659  1.3949
 9382TIP3    H249638   5.159   0.184   3.146  1.0161 -0.2488 -0.2847
 9383TIP3   OH249639   4.998   0.440   5.326  0.0425  0.2688 -0.0817
 9383TIP3    H149640   4.910   0.478   5.328  0.3283  0.9249  1.0035
 9383TIP3    H249641   4.991   0.366   5.266 -0.8472  1.2920 -1.2889
 9384TIP3   OH249642   6.176   2.899   2.268 -0.1382 -0.4276 -0.1683
 9384TIP3    H149643   6.162   2.954   2.345  3.2616  0.4970 -0.0481
 9384TIP3    H249644   6.270   2.878   2.270  0.4609  0.6804 -4.6649
 9385TIP3   OH249645   6.333   5.760   3.761 -0.0743  0.5349  0.3113
 9385TIP3    H149646   6.315   5.674   3.799  0.1235  0.8765  1.2122
 9385TIP3    H249647   6.429   5.765   3.758 -0.0691  0.0811 -1.2808
 9386TIP3   OH249648   6.196   4.997   0.290  0.2587 -0.1327 -0.0235
 9386TIP3    H149649   6.207   4.909   0.254  2.5441 -0.3001  0.8686
 9386TIP3    H249650   6.173   5.051   0.214 -0.1178 -1.3195 -0.7810
 9387TIP3   OH249651   5.605   2.632  13.364  0.0944  0.6586  0.0413
 9387TIP3    H149652   5.578   2.566  13.428 -0.1884  0.1987 -0.5485
 9387TIP3    H249653   5.697   2.612  13.347 -0.6255 -1.2864 -2.1045
 9388TIP3   OH249654   5.207   0.581  15.728  0.0598  0.3608  0.0139
 9388TIP3    H149655   5.225   0.580  15.634 -2.1824  2.3222 -0.5373
 9388TIP3    H249656   5.116   0.551  15.734 -0.2712  1.5881  1.4107
 9389TIP3   OH249657   5.690   5.099   2.293  0.2217  0.8905  0.0909
 9389TIP3    H149658   5.714   5.126   2.205 -2.0205 -0.1953 -0.9437
 9389TIP3    H249659   5.729   5.012   2.304  2.2890  1.8689  1.0652
 9390TIP3   OH249660   5.525   1.740   3.748 -0.0531  0.8610  0.1296
 9390TIP3    H149661   5.608   1.700   3.773  0.0499  1.4159  0.6949
 9390TIP3    H249662   5.514   1.814   3.808 -0.2388  1.6949 -0.9031
 9391TIP3   OH249663   4.118   3.969  13.264  0.3094  0.6260  0.1918
 9391TIP3    H149664   4.137   4.063  13.261 -3.6980  1.5770 -0.1748
 9391TIP3    H249665   4.086   3.947  13.177  1.5808 -1.2764  0.1293
 9392TIP3   OH249666   3.693   5.256   3.781  0.2184  0.2291 -0.3961
 9392TIP3    H149667   3.648   5.222   3.703  2.2471  0.2071 -1.6081
 9392TIP3    H249668   3.784   5.268   3.754  0.9468  0.4479  1.9208
 9393TIP3   OH249669   3.352   6.513   5.373  0.8000 -0.6295 -0.1617
 9393TIP3    H149670   3.424   6.573   5.354 -0.3202  2.0000  3.0690
 9393TIP3    H249671   3.373   6.477   5.459 -0.5260 -1.8620 -0.3103
 9394TIP3   OH249672   2.745   0.602  17.134 -0.2417 -0.2530  0.0263
 9394TIP3    H149673   2.671   0.580  17.077  0.1494  0.6452 -0.8556
 9394TIP3    H249674   2.796   0.522  17.140  0.0049 -0.2063 -1.3373
 9395TIP3   OH249675   0.976   4.578  11.753 -0.0335 -0.6400 -0.1946
 9395TIP3    H149676   1.024   4.550  11.830  0.8883  0.8207 -0.1970
 9395TIP3    H249677   0.938   4.498  11.717  1.8568 -1.7483  0.1791
 9396TIP3   OH249678   5.503   4.879  14.607 -0.3382 -0.0653 -0.0551
 9396TIP3    H149679   5.530   4.830  14.684  1.1243 -0.7146 -0.9281
 9396TIP3    H249680   5.584   4.919  14.575 -1.1154  1.1008 -0.6314
 9397TIP3   OH249681   1.197   0.204   4.254  0.2284  0.2161  0.1875
 9397TIP3    H149682   1.170   0.117   4.282 -0.2052  0.6203  1.0552
 9397TIP3    H249683   1.265   0.229   4.316  1.6984 -0.2421 -1.1671
 9398TIP3   OH249684   2.882   1.666   3.552 -0.0641 -0.6411 -0.1048
 9398TIP3    H149685   2.970   1.701   3.568 -0.0072 -0.2900 -1.1112
 9398TIP3    H249686   2.859   1.620   3.633  1.9912 -2.7972 -0.6498
 9399TIP3   OH249687   4.938   4.308  13.509  0.4774  0.5237 -0.1764
 9399TIP3    H149688   4.995   4.366  13.559  2.7151 -1.7664  0.1424
 9399TIP3    H249689   4.994   4.274  13.439 -0.9170 -0.7667 -0.7256
 9400TIP3   OH249690   1.537   4.848  11.709  0.0088  0.2638 -0.1740
 9400TIP3    H149691   1.466   4.866  11.770  1.1397  1.0471  0.9681
 9400TIP3    H249692   1.598   4.794  11.759  0.5030  0.1080 -0.9304
 9401TIP3   OH249693   1.743   0.317   4.181 -0.0978 -0.2064  0.0937
 9401TIP3    H149694   1.819   0.261   4.198  0.2491  0.1698 -0.1909
 9401TIP3    H249695   1.752   0.341   4.089 -0.7286 -0.3973 -0.0220
 9402TIP3   OH249696   5.396   5.005  10.823  0.2265  0.0762 -0.2688
 9402TIP3    H149697   5.309   4.981  10.790 -0.3876  0.3372  1.0960
 9402TIP3    H249698   5.444   4.923  10.826 -0.1485 -0.1557 -0.5387
 9403TIP3   OH249699   0.387   6.732   6.731  0.2147  0.3509  0.2703
 9403TIP3    H149700   0.414   6.646   6.696  0.5467  0.7194 -0.4033
 9403TIP3    H249701   0.365   6.783   6.653 -1.6805  0.3365  0.7635
 9404TIP3   OH249702   1.758   5.135  13.704 -0.3664 -0.5551 -0.5876
 9404TIP3    H149703   1.781   5.042  13.708 -2.0847 -0.9930 -0.1667
 9404TIP3    H249704   1.730   5.149  13.614  0.2526 -0.3441 -0.7508
 9405TIP3   OH249705   5.703   2.819   4.241 -0.2471 -0.1868  0.8902
 9405TIP3    H149706   5.669   2.738   4.277 -1.8127  0.3078  0.5802
 9405TIP3    H249707   5.630   2.881   4.245  0.1393  0.5059 -1.1151
 9406TIP3   OH249708   5.666   2.563  15.508 -0.3306  0.3520  0.9819
 9406TIP3    H149709   5.604   2.587  15.439 -0.0573 -0.4854  0.4304
 9406TIP3    H249710   5.615   2.509  15.569  0.1695 -1.6393 -0.2646
 9407TIP3   OH249711   4.577   1.672   3.051  0.4799 -0.3232  0.0386
 9407TIP3    H149712   4.619   1.676   3.136 -1.2792  0.9584  0.9143
 9407TIP3    H249713   4.528   1.754   3.044 -0.8841 -1.1904 -1.4130
 9408TIP3   OH249714   6.249   3.472  13.732  0.6270  0.5548 -0.0405
 9408TIP3    H149715   6.165   3.436  13.759  0.3636  0.3296 -1.1091
 9408TIP3    H249716   6.232   3.565  13.720  0.2671  0.3596 -1.1749
 9409TIP3   OH249717   2.086   6.265   2.760  0.0534  0.6132 -0.5975
 9409TIP3    H149718   2.093   6.314   2.842 -0.1229  1.5128 -1.1117
 9409TIP3    H249719   2.167   6.215   2.754 -0.3118 -0.1665  0.5646
 9410TIP3   OH249720   2.736   5.302   1.147  0.2707  0.3189  0.6608
 9410TIP3    H149721   2.814   5.349   1.118 -0.6041  1.4887  0.1611
 9410TIP3    H249722   2.664   5.343   1.100 -1.0332  1.3099  3.3343
 9411TIP3   OH249723   0.284   1.960   3.767  0.7012 -0.5311  0.4996
 9411TIP3    H149724   0.263   2.054   3.765  0.8710 -0.4998  0.1012
 9411TIP3    H249725   0.359   1.954   3.825  1.2081 -0.3089 -0.1181
 9412TIP3   OH249726   2.476   6.097  12.023 -0.1705  0.2194  0.2807
 9412TIP3    H149727   2.484   6.186  12.057 -0.0877  0.1642  0.4080
 9412TIP3    H249728   2.477   6.041  12.101 -2.3906  0.2332  0.3737
 9413TIP3   OH249729   2.932   1.590  13.363 -0.0302  0.3327  0.0594
 9413TIP3    H149730   2.910   1.543  13.283  3.3499  1.1611 -1.5577
 9413TIP3    H249731   3.004   1.540  13.401  0.1847  1.4057  1.1129
 9414TIP3   OH249732   3.878   5.249  12.744 -0.2936  0.5992 -0.2962
 9414TIP3    H149733   3.938   5.294  12.684  1.2989  0.0432  0.8075
 9414TIP3    H249734   3.899   5.285  12.830  0.9085 -1.9755  0.6168
 9415TIP3   OH249735   5.547   3.208  11.269  0.3579  0.2567  0.6974
 9415TIP3    H149736   5.599   3.260  11.207 -0.3274  1.2326  0.9162
 9415TIP3    H249737   5.573   3.117  11.252  0.7094  0.5625 -0.5257
 9416TIP3   OH249738   4.171   3.895  13.513  0.1171  0.1331  0.0186
 9416TIP3    H149739   4.171   3.887  13.418  1.9166 -1.1058  0.0637
 9416TIP3    H249740   4.133   3.812  13.544  3.7132 -1.6291  0.3289
 9417TIP3   OH249741   2.336   1.277   0.651  0.0294 -0.0369  0.0587
 9417TIP3    H149742   2.356   1.368   0.632 -0.1722 -0.3961 -2.1311
 9417TIP3    H249743   2.415   1.229   0.625 -0.5048 -0.6251 -0.5360
 9418TIP3   OH249744   1.973   3.613  14.072 -0.0933 -0.2824  0.4308
 9418TIP3    H149745   2.053   3.564  14.088 -0.2181 -0.8379 -0.5264
 9418TIP3    H249746   1.934   3.625  14.158  1.9906  1.7445  1.1816
 9419TIP3   OH249747   2.051   1.908  11.370  0.2781 -0.0406  0.2694
 9419TIP3    H149748   2.094   1.833  11.329 -0.7434 -0.8778  0.6903
 9419TIP3    H249749   2.022   1.963  11.297 -0.2644 -0.7986 -0.0950
 9420TIP3   OH249750   1.078   6.051   4.775  0.4128  0.4490  0.0778
 9420TIP3    H149751   1.047   6.141   4.762 -1.3979  0.3837  3.0193
 9420TIP3    H249752   1.146   6.059   4.842 -1.2256 -0.4726  1.9521
 9421TIP3   OH249753   3.012   5.723   1.625  0.7515 -0.3781  0.2426
 9421TIP3    H149754   3.047   5.725   1.536  0.7676 -0.6991  0.2407
 9421TIP3    H249755   3.090   5.718   1.681  0.8219  1.3861  0.3516
 9422TIP3   OH249756   1.449   2.465   4.589 -0.4478  0.5238  0.5404
 9422TIP3    H149757   1.357   2.491   4.592 -0.8633 -0.8392  0.4590
 9422TIP3    H249758   1.458   2.399   4.657  0.1976 -0.1293 -0.1468
 9423TIP3   OH249759   5.927   5.063  16.258 -0.4107 -0.1752  0.8798
 9423TIP3    H149760   5.965   4.990  16.307 -2.4261 -2.2370 -0.4209
 9423TIP3    H249761   5.832   5.054  16.270 -0.8688  0.5234 -1.5758
 9424TIP3   OH249762   4.363   5.219  13.237  0.3502 -0.2879 -0.0198
 9424TIP3    H149763   4.395   5.307  13.258  0.2756 -0.1708 -0.3822
 9424TIP3    H249764   4.424   5.160  13.280  0.1637 -0.0549  0.5682
 9425TIP3   OH249765   6.605   3.866   3.073  0.4902 -0.0279  0.3427
 9425TIP3    H149766   6.569   3.910   2.996  1.9100  0.8574  0.1532
 9425TIP3    H249767   6.679   3.815   3.039 -0.8424 -2.2904  0.6176
 9426TIP3   OH249768   3.109   2.922  11.550 -0.4031 -0.0518 -0.0145
 9426TIP3    H149769   3.112   2.972  11.468 -1.4251 -0.6551 -0.4379
 9426TIP3    H249770   3.201   2.905  11.571 -0.1218  0.1697 -1.0089
 9427TIP3   OH249771   5.785   0.461   1.659  0.2844 -0.2506  0.2788
 9427TIP3    H149772   5.805   0.425   1.573  0.6044 -0.1433  0.3066
 9427TIP3    H249773   5.690   0.477   1.657  0.0460 -1.5719  0.4497
 9428TIP3   OH249774   4.918   4.580   3.160  0.4563  0.3083  0.0301
 9428TIP3    H149775   4.946   4.536   3.240 -0.5287 -0.8107 -0.2020
 9428TIP3    H249776   4.931   4.673   3.177  2.6868 -0.0276  0.5204
 9429TIP3   OH249777   5.835   4.349   1.443  0.1935  0.0686  0.1850
 9429TIP3    H149778   5.902   4.310   1.499 -0.7317 -0.4730  0.9527
 9429TIP3    H249779   5.756   4.348   1.497 -0.1950  1.7164 -0.2928
 9430TIP3   OH249780   6.292   1.258   5.426  0.0911 -0.1146 -0.0150
 9430TIP3    H149781   6.245   1.308   5.493  1.4726  0.5499  0.4816
 9430TIP3    H249782   6.256   1.291   5.343 -0.1992  0.5042  0.3493
 9431TIP3   OH249783   3.977   3.169   5.934 -0.5852 -0.0747 -0.7292
 9431TIP3    H149784   3.947   3.253   5.969  0.3630 -0.0576  0.0752
 9431TIP3    H249785   3.899   3.132   5.892 -1.4641  0.4390  0.3953
 9432TIP3   OH249786   4.221   2.845  15.682 -0.2803 -0.3121 -0.1977
 9432TIP3    H149787   4.145   2.794  15.655 -1.6657  1.3168  0.3863
 9432TIP3    H249788   4.255   2.882  15.600  0.2575 -1.4943 -0.5269
 9433TIP3   OH249789   4.954   2.176  16.727  0.0763  0.3348 -0.1888
 9433TIP3    H149790   5.022   2.196  16.793 -0.9728  0.7608  0.8019
 9433TIP3    H249791   4.874   2.166  16.778 -0.7717  0.6500 -1.4179
 9434TIP3   OH249792   6.166   2.616  16.270  0.5111 -0.0782  0.5780
 9434TIP3    H149793   6.255   2.637  16.241  0.6121  0.3003  1.1405
 9434TIP3    H249794   6.176   2.587  16.360  0.5535 -3.9075 -0.4859
 9435TIP3   OH249795   4.995   5.646   3.767  0.2465 -0.3626 -0.0112
 9435TIP3    H149796   4.933   5.604   3.827  1.0323 -0.5533  0.6806
 9435TIP3    H249797   5.074   5.593   3.774  0.5118 -0.0765 -0.8354
 9436TIP3   OH249798   4.687   3.740  14.001  0.5766  0.6353 -0.2057
 9436TIP3    H149799   4.673   3.648  14.023 -1.0734  0.6839 -0.9234
 9436TIP3    H249800   4.738   3.738  13.920  0.5702  0.3606 -0.2033
 9437TIP3   OH249801   2.232   4.630  16.481 -0.6076 -0.1801  0.1542
 9437TIP3    H149802   2.180   4.638  16.561 -0.5482 -0.2665  0.1998
 9437TIP3    H249803   2.213   4.711  16.433 -0.3495  0.0494  0.4283
 9438TIP3   OH249804   0.043   1.707  10.881 -0.0112  0.5599 -0.1094
 9438TIP3    H149805   0.053   1.776  10.946 -1.1176  0.6041  0.0362
 9438TIP3    H249806   0.080   1.744  10.800  0.6597  0.7870  0.2940
 9439TIP3   OH249807   6.376   0.795  12.683  0.0897  0.1732 -0.1533
 9439TIP3    H149808   6.348   0.728  12.620  0.3762  1.2634 -1.4980
 9439TIP3    H249809   6.298   0.848  12.698  0.0614  0.0039  0.3036
 9440TIP3   OH249810   5.552   5.280   4.820 -0.3254 -0.2029 -0.0191
 9440TIP3    H149811   5.483   5.215   4.829 -0.1678 -0.6261 -1.4811
 9440TIP3    H249812   5.617   5.256   4.886 -1.2001 -0.2776  0.8319
 9441TIP3   OH249813   1.670   1.816   4.729  0.2459 -0.6246 -0.4306
 9441TIP3    H149814   1.684   1.855   4.643 -0.6533 -1.4819 -0.9871
 9441TIP3    H249815   1.755   1.823   4.772  0.1874  1.7634 -0.5485
 9442TIP3   OH249816   3.603   0.588  17.025 -0.4731 -0.0463  0.1292
 9442TIP3    H149817   3.531   0.552  17.076  0.1074  0.3601  1.2762
 9442TIP3    H249818   3.560   0.631  16.951 -1.2622 -1.5915 -0.3474
 9443TIP3   OH249819   1.764   3.377   2.363 -0.2572 -0.1930 -0.2884
 9443TIP3    H149820   1.699   3.329   2.415  0.1493  0.9855  1.4005
 9443TIP3    H249821   1.734   3.468   2.368  0.3292  0.0628 -1.3540
 9444TIP3   OH249822   0.205   3.099  10.964 -0.2041 -0.0369 -0.0635
 9444TIP3    H149823   0.152   3.158  11.018 -1.0739 -0.8371 -0.0030
 9444TIP3    H249824   0.294   3.108  10.998 -0.0591  2.1630 -0.8750
 9445TIP3   OH249825   4.042   6.716   4.939  0.3049 -0.4921  0.8371
 9445TIP3    H149826   3.995   6.669   5.008 -0.9242  0.4402  0.6633
 9445TIP3    H249827   4.100   6.776   4.986  1.1394 -1.4140  1.0463
 9446TIP3   OH249828   4.896   0.761   4.064 -0.2451 -0.4203 -0.0825
 9446TIP3    H149829   4.846   0.708   4.126 -0.7435  1.7973  1.5349
 9446TIP3    H249830   4.833   0.786   3.996 -0.3823 -0.6978 -0.0560
 9447TIP3   OH249831   3.340   4.132  13.703 -0.3151  0.1905 -0.0790
 9447TIP3    H149832   3.370   4.054  13.657  0.8702 -0.0464  1.0488
 9447TIP3    H249833   3.306   4.100  13.787 -1.2199  0.7403 -0.2184
 9448TIP3   OH249834   4.426   3.211   0.816  0.2293  0.3508  0.0143
 9448TIP3    H149835   4.488   3.156   0.865 -0.9237 -0.5368  0.5279
 9448TIP3    H249836   4.481   3.275   0.772  1.7640 -1.8034 -1.4460
 9449TIP3   OH249837   5.851   3.178   2.389  0.0665 -0.0419  0.1243
 9449TIP3    H149838   5.866   3.100   2.335  0.6714  0.6159 -0.6862
 9449TIP3    H249839   5.790   3.149   2.457  1.7334 -1.7430  0.9903
 9450TIP3   OH249840   4.714   5.880  13.916  0.3214 -0.1516  0.0434
 9450TIP3    H149841   4.791   5.873  13.860 -0.8101 -0.4461 -1.5189
 9450TIP3    H249842   4.684   5.789  13.927  0.0089 -0.0120  0.3959
 9451TIP3   OH249843   6.231   0.628  11.634  0.1345  0.0037  0.6171
 9451TIP3    H149844   6.138   0.650  11.635 -0.3847 -1.9606 -0.3053
 9451TIP3    H249845   6.270   0.685  11.701 -1.5919  1.3202  0.5603
 9452TIP3   OH249846   6.430   2.316   5.772  0.0689 -0.3880 -0.3044
 9452TIP3    H149847   6.445   2.311   5.678 -0.9007 -0.0433 -0.4896
 9452TIP3    H249848   6.335   2.304   5.782  0.0756  0.1901  0.5791
 9453TIP3   OH249849   4.551   2.767   1.743  0.1677 -0.6486  0.1043
 9453TIP3    H149850   4.568   2.688   1.793  1.7150 -2.2069 -2.6012
 9453TIP3    H249851   4.638   2.798   1.717 -0.5279  0.1846 -1.3755
 9454TIP3   OH249852   3.981   3.916   6.916 -0.0814  0.1298 -0.1284
 9454TIP3    H149853   4.042   3.864   6.968  0.7833  0.4548 -0.8123
 9454TIP3    H249854   3.991   3.884   6.827 -0.5581  0.5138 -0.3247
 9455TIP3   OH249855   3.509   5.179   3.580  0.0742  0.5401 -0.5925
 9455TIP3    H149856   3.469   5.246   3.635 -0.8060 -0.1335 -0.3821
 9455TIP3    H249857   3.517   5.220   3.494 -1.1006  0.6992 -0.6404
 9456TIP3   OH249858   3.305   3.674   2.631 -0.2947  0.3205 -0.3304
 9456TIP3    H149859   3.289   3.693   2.539  0.4217  2.3672 -0.0790
 9456TIP3    H249860   3.333   3.583   2.632 -0.3667  0.2447 -2.1174
 9457TIP3   OH249861   3.396   5.080  13.438  0.0904  0.0856  0.5924
 9457TIP3    H149862   3.409   5.024  13.362 -0.9963 -0.2854  0.6592
 9457TIP3    H249863   3.368   5.164  13.403 -0.7035 -0.1754  0.5792
 9458TIP3   OH249864   1.412   1.821   1.095  0.3052  0.4303  0.3482
 9458TIP3    H149865   1.489   1.868   1.063  0.4369 -0.5560 -0.9022
 9458TIP3    H249866   1.347   1.833   1.025  0.8613 -2.4663 -0.7960
 9459TIP3   OH249867   5.739   1.732  13.930  0.0051 -0.2559 -0.2540
 9459TIP3    H149868   5.732   1.789  13.853 -0.2638 -0.2138 -0.1992
 9459TIP3    H249869   5.661   1.677  13.926  0.1860 -0.5183 -0.2233
 9460TIP3   OH249870   5.597   0.614   0.411  0.1864 -0.4495 -0.7176
 9460TIP3    H149871   5.678   0.576   0.376  0.4047  1.4759 -2.4626
 9460TIP3    H249872   5.626   0.684   0.469 -0.2530 -1.7350  1.1788
 9461TIP3   OH249873   2.990   1.361   5.926  0.0901 -0.0723  0.1260
 9461TIP3    H149874   3.029   1.445   5.904 -0.7082  0.3629  0.3433
 9461TIP3    H249875   3.029   1.338   6.011  0.4981 -0.0491 -0.0518
 9462TIP3   OH249876   6.609   1.661  13.925 -0.5842 -0.0332  0.2105
 9462TIP3    H149877   6.523   1.629  13.952 -0.5588 -0.5186 -0.2526
 9462TIP3    H249878   6.599   1.677  13.831 -0.2177  0.0782  0.1906
 9463TIP3   OH249879   4.353   1.704  15.116  0.0437 -0.0178  0.2791
 9463TIP3    H149880   4.332   1.797  15.111 -0.8450 -0.1503  1.2069
 9463TIP3    H249881   4.398   1.694  15.200 -1.3975 -0.6800  1.0075
 9464TIP3   OH249882   4.699   3.177  15.522  0.5647 -0.5530 -0.8838
 9464TIP3    H149883   4.696   3.228  15.603 -0.3197 -0.4889 -0.9406
 9464TIP3    H249884   4.729   3.090  15.548  0.2736 -0.5331 -0.4849
 9465TIP3   OH249885   3.133   0.426  13.647 -0.0429  0.0984  0.2842
 9465TIP3    H149886   3.219   0.467  13.633 -0.1647 -0.2650 -1.8130
 9465TIP3    H249887   3.076   0.497  13.674  0.4681  0.7364 -0.2926
 9466TIP3   OH249888   2.876   1.404   0.279  0.3320  0.0506  0.4681
 9466TIP3    H149889   2.789   1.404   0.317  0.0280 -0.2423 -0.2097
 9466TIP3    H249890   2.930   1.454   0.341 -0.7065  1.8433  0.0041
 9467TIP3   OH249891   3.548   4.917  15.178 -0.3642 -0.0460 -1.0031
 9467TIP3    H149892   3.603   4.846  15.211 -1.4075 -0.6280 -0.4387
 9467TIP3    H249893   3.472   4.872  15.140 -2.2415  0.7496  1.5128
 9468TIP3   OH249894   4.613   6.400   4.811  0.1194 -0.5346 -0.5554
 9468TIP3    H149895   4.566   6.479   4.782 -0.5871 -0.8953 -0.4096
 9468TIP3    H249896   4.676   6.433   4.876 -0.6037 -0.1693 -0.0250
 9469TIP3   OH249897   2.841   3.298  17.031  0.1240 -0.0641  0.0223
 9469TIP3    H149898   2.788   3.315  16.953 -0.8918  0.5402  0.8202
 9469TIP3    H249899   2.926   3.336  17.010 -0.0886 -0.0269 -0.8368
 9470TIP3   OH249900   4.442   3.851  16.584 -0.2045  0.4557 -0.1310
 9470TIP3    H149901   4.361   3.898  16.601 -0.2164  0.1561  0.7094
 9470TIP3    H249902   4.424   3.797  16.507 -0.8098  0.3780  0.0622
 9471TIP3   OH249903   5.527   1.393   4.307  0.6424 -0.4900 -0.0131
 9471TIP3    H149904   5.457   1.431   4.255 -0.0978  0.5133  1.6337
 9471TIP3    H249905   5.605   1.442   4.280 -0.3381  2.6794  2.2923
 9472TIP3   OH249906   3.766   0.865  13.548  0.5912 -0.0912  0.2496
 9472TIP3    H149907   3.719   0.936  13.504 -2.0939 -1.0514  1.3645
 9472TIP3    H249908   3.822   0.910  13.612  0.2339  1.0594 -0.2217
 9473TIP3   OH249909   2.334   1.499   5.564  0.5859  0.1139  0.4064
 9473TIP3    H149910   2.418   1.468   5.531  1.2887  1.4301  0.8615
 9473TIP3    H249911   2.293   1.543   5.490 -0.3786 -1.7608 -0.2192
 9474TIP3   OH249912   4.244   5.144   3.160 -0.1005  0.5579  0.1814
 9474TIP3    H149913   4.151   5.158   3.143 -0.0424  1.3414  0.4743
 9474TIP3    H249914   4.266   5.065   3.110 -1.0289  0.0786  0.5051
 9475TIP3   OH249915   0.919   1.328  16.521  0.3421 -1.2282  0.0711
 9475TIP3    H149916   0.971   1.280  16.586  1.1780 -1.6467 -0.8850
 9475TIP3    H249917   0.880   1.260  16.466  0.1824 -0.8545 -0.2805
 9476TIP3   OH249918   5.287   1.080  13.752 -0.6839 -0.1831 -0.2422
 9476TIP3    H149919   5.319   1.137  13.682  0.3907  0.5290  0.8039
 9476TIP3    H249920   5.357   1.017  13.766 -0.3785  0.4035  0.9799
 9477TIP3   OH249921   3.251   6.208   0.416 -0.5637  0.0558  0.2352
 9477TIP3    H149922   3.299   6.282   0.378  0.2015  0.4589  1.8802
 9477TIP3    H249923   3.165   6.212   0.376 -0.1478  1.1281 -0.6008
 9478TIP3   OH249924   6.129   3.578   2.712  0.3062  0.3401  0.1359
 9478TIP3    H149925   6.065   3.619   2.655  0.2629 -1.6980 -1.4170
 9478TIP3    H249926   6.080   3.553   2.791 -0.1103  1.3557  0.2062
 9479TIP3   OH249927   5.224   2.491  16.682 -0.5013  0.2719 -0.4644
 9479TIP3    H149928   5.208   2.409  16.728  0.5220  0.0176 -0.5479
 9479TIP3    H249929   5.307   2.523  16.717 -0.1658  0.5365 -1.4603
 9480TIP3   OH249930   0.413   2.315  16.092 -0.0339  0.2389  0.0645
 9480TIP3    H149931   0.503   2.290  16.113  0.8263  2.3806 -0.7807
 9480TIP3    H249932   0.387   2.372  16.165 -0.3393  0.4301 -0.1934
 9481TIP3   OH249933   1.528   6.664   0.020  1.1371  0.2623  1.0629
 9481TIP3    H149934   1.582   6.627   0.090  1.6454 -1.1463 -0.0229
 9481TIP3    H249935   1.581   6.734  -0.017  1.9625 -0.6304  0.4923
 9482TIP3   OH249936   4.940   2.649   6.536 -0.4704 -0.2276  0.0547
 9482TIP3    H149937   4.965   2.666   6.627 -0.8513  3.0572 -0.3005
 9482TIP3    H249938   5.016   2.606   6.498  0.1448 -0.6359  1.6418
 9483TIP3   OH249939   3.401   6.593  16.080 -0.0584 -0.3687  0.3042
 9483TIP3    H149940   3.446   6.643  16.147  0.9079 -1.2603  0.3599
 9483TIP3    H249941   3.385   6.507  16.120 -0.1996 -0.6450 -0.3191
 9484TIP3   OH249942   0.953   2.262   2.059  0.5111 -0.0218  0.0526
 9484TIP3    H149943   0.894   2.188   2.044  0.1838 -0.0040  1.1733
 9484TIP3    H249944   1.019   2.229   2.119 -0.1921  0.8470  1.3423
 9485TIP3   OH249945   0.872   0.824   4.744  0.5348  0.1759  0.1972
 9485TIP3    H149946   0.787   0.847   4.706  0.5601 -0.5914 -0.3382
 9485TIP3    H249947   0.928   0.899   4.724  0.3853  0.0372 -0.7839
 9486TIP3   OH249948   2.057   5.827  13.073 -0.0328  0.6588  0.0216
 9486TIP3    H149949   1.982   5.825  13.133 -0.0110 -1.2547  0.0400
 9486TIP3    H249950   2.021   5.860  12.991 -0.8497  0.0315  0.1164
 9487TIP3   OH249951   2.562   2.039   1.220 -0.1787  0.1639 -0.3314
 9487TIP3    H149952   2.628   2.027   1.152 -0.6478 -2.0576 -0.4541
 9487TIP3    H249953   2.605   2.011   1.301  0.0122  1.7325  0.1440
 9488TIP3   OH249954   2.153   1.735  15.968  0.2806 -0.2097 -0.0965
 9488TIP3    H149955   2.201   1.791  15.907 -1.4399  0.1602 -1.1795
 9488TIP3    H249956   2.143   1.652  15.922  1.2223 -0.8211  0.7631
 9489TIP3   OH249957   2.370   4.589  10.990  0.7452  0.6573 -0.3974
 9489TIP3    H149958   2.383   4.505  11.034  1.0163  0.9946  0.1710
 9489TIP3    H249959   2.450   4.600  10.937  0.4965  0.3353 -0.8492
 9490TIP3   OH249960   1.909   3.726   3.157 -0.0092 -0.3421 -0.1843
 9490TIP3    H149961   1.929   3.816   3.132  1.7292  0.2039  2.7103
 9490TIP3    H249962   1.990   3.678   3.141 -0.8118 -1.3601 -1.3475
 9491TIP3   OH249963   3.408   2.640  14.368  0.6408 -1.0121 -0.0051
 9491TIP3    H149964   3.473   2.624  14.299 -0.5769 -0.6046 -1.2871
 9491TIP3    H249965   3.429   2.728  14.400  1.5532 -1.4185  0.5640
 9492TIP3   OH249966   0.979   3.139   3.375  0.0706  0.3766  0.1293
 9492TIP3    H149967   1.006   3.133   3.466  0.1781  3.3152  0.3960
 9492TIP3    H249968   1.019   3.063   3.333  1.5300 -0.0792  2.1683
 9493TIP3   OH249969   5.330   4.298   4.778 -0.2540 -0.0913  0.5741
 9493TIP3    H149970   5.354   4.248   4.856 -1.2712 -0.3720  0.7100
 9493TIP3    H249971   5.236   4.313   4.786 -1.0659 -2.7489 -2.0156
 9494TIP3   OH249972   2.365   2.719  13.705 -0.2784  0.4947  0.6625
 9494TIP3    H149973   2.324   2.634  13.715 -2.0547  0.8079 -2.6617
 9494TIP3    H249974   2.310   2.779  13.756 -0.0537 -0.0404  1.5573
 9495TIP3   OH249975   5.989   5.809   0.945  0.2010 -0.5515  0.2169
 9495TIP3    H149976   5.899   5.787   0.970  0.4802 -2.4863 -0.3395
 9495TIP3    H249977   6.042   5.785   1.021  0.5084 -1.8783 -0.3881
 9496TIP3   OH249978   4.791   2.131  14.774 -0.1194 -0.2164 -0.0867
 9496TIP3    H149979   4.737   2.055  14.794 -0.2151 -0.1567 -0.1158
 9496TIP3    H249980   4.812   2.121  14.681 -0.6862  0.1347 -0.2634
 9497TIP3   OH249981   4.023   2.554   5.539 -0.3277 -0.4093  0.4343
 9497TIP3    H149982   4.048   2.529   5.628  1.4927 -0.9790 -0.1886
 9497TIP3    H249983   3.978   2.638   5.549 -2.2779 -1.5532  2.0956
 9498TIP3   OH249984   0.672   5.352   1.758 -0.5621 -0.2673  0.0727
 9498TIP3    H149985   0.595   5.409   1.765  0.1508  0.7613 -0.4012
 9498TIP3    H249986   0.700   5.359   1.667 -0.2928 -1.1742  0.0714
 9499TIP3   OH249987   4.302   0.209   4.094  0.6351 -0.3946 -0.0837
 9499TIP3    H149988   4.364   0.253   4.034  1.4192  0.4418  1.2954
 9499TIP3    H249989   4.234   0.274   4.109  0.5897 -0.5005  0.1550
 9500TIP3   OH249990   1.322   2.556   0.019 -0.5976  0.2228 -0.2666
 9500TIP3    H149991   1.343   2.580  -0.072 -0.5628  0.3288 -0.2300
 9500TIP3    H249992   1.307   2.462   0.015  2.7841 -0.4615  0.2212
 9501TIP3   OH249993   1.851   1.826  14.249  0.2153 -0.3334  0.2185
 9501TIP3    H149994   1.803   1.745  14.231  0.8137 -0.6613  0.0694
 9501TIP3    H249995   1.919   1.829  14.181  0.3996  0.1291  0.4219
 9502TIP3   OH249996   0.917   5.171   2.249  0.4555  0.3837 -0.4001
 9502TIP3    H149997   0.986   5.160   2.184 -0.1026 -0.0069 -0.9394
 9502TIP3    H249998   0.950   5.126   2.327  0.1541 -1.2086 -1.1452
 9503TIP3   OH249999   4.419   2.254  15.674  0.3515  0.0416  0.8326
 9503TIP3    H150000   4.513   2.238  15.677  0.2595 -0.5954  0.4619
 9503TIP3    H250001   4.395   2.239  15.583  0.1248  1.6309  0.5946
 9504TIP3   OH250002   1.347   3.167   6.256 -0.2184 -0.1366 -0.4071
 9504TIP3    H150003   1.361   3.193   6.347  2.5139  0.1656 -0.8155
 9504TIP3    H250004   1.333   3.073   6.259 -2.9698  0.1967  0.4746
 9505TIP3   OH250005   3.080   2.999   0.810 -0.4779  0.0651  0.0137
 9505TIP3    H150006   3.170   2.991   0.843 -1.0206  3.0735  2.6595
 9505TIP3    H250007   3.035   2.923   0.847  0.2468  0.3296  1.5180
 9506TIP3   OH250008   4.623   1.487  11.902 -0.7136  0.8462 -0.1256
 9506TIP3    H150009   4.532   1.515  11.892 -0.7017  0.7641 -0.4934
 9506TIP3    H250010   4.661   1.497  11.815 -0.3146  1.0712  0.0728
 9507TIP3   OH250011   6.423   5.285   5.283 -0.1659  0.1037  0.7986
 9507TIP3    H150012   6.395   5.197   5.259  0.7109  0.0332 -0.0337
 9507TIP3    H250013   6.427   5.284   5.378 -1.6318 -0.2770  0.8783
 9508TIP3   OH250014   4.322   3.777   1.403  0.2513  0.4083  0.5390
 9508TIP3    H150015   4.280   3.728   1.333  1.6787  1.1036 -0.8751
 9508TIP3    H250016   4.269   3.760   1.480  0.2706 -2.7790 -0.0170
 9509TIP3   OH250017   6.594   2.281  11.970 -0.4869  0.5350 -0.7159
 9509TIP3    H150018   6.617   2.247  12.056 -2.1541  1.9368  0.3472
 9509TIP3    H250019   6.505   2.249  11.955 -0.4033  0.7322 -1.6873
 9510TIP3   OH250020   4.554   0.733   4.466 -0.4944 -0.4674  0.1537
 9510TIP3    H150021   4.575   0.697   4.552 -0.2066  0.1664  0.3522
 9510TIP3    H250022   4.619   0.802   4.452 -1.3388  0.3117 -0.0030
 9511TIP3   OH250023   2.388   0.946  12.894 -0.4706 -0.1573 -0.0157
 9511TIP3    H150024   2.378   0.959  12.799 -0.6886  0.3670  0.0724
 9511TIP3    H250025   2.331   1.012  12.933 -0.4552 -0.4352  0.4828
 9512TIP3   OH250026   3.233   6.157   1.008 -0.3546  0.7550 -0.0144
 9512TIP3    H150027   3.288   6.222   0.964 -0.8327  0.8275 -0.5084
 9512TIP3    H250028   3.208   6.199   1.091 -0.2991  1.0286 -0.1356
 9513TIP3   OH250029   5.665   0.296   3.422 -0.8053 -0.8243  0.1168
 9513TIP3    H150030   5.650   0.212   3.379  0.2381 -0.4631 -1.0099
 9513TIP3    H250031   5.621   0.360   3.366 -0.1805 -0.4504  0.0326
 9514TIP3   OH250032   1.232   0.938   2.595 -0.0969  0.4945 -0.0895
 9514TIP3    H150033   1.249   0.844   2.596  0.7013  0.6318  0.9827
 9514TIP3    H250034   1.178   0.953   2.673 -1.7371  0.6778 -1.2193
 9515TIP3   OH250035   3.074   0.449  14.969 -0.2399 -0.3138 -0.0118
 9515TIP3    H150036   3.009   0.476  15.034 -1.3048 -0.9257 -0.8003
 9515TIP3    H250037   3.140   0.401  15.020 -0.1003  0.7703  0.8759
 9516TIP3   OH250038   6.298   2.134  13.367  0.3446  0.2119 -0.2788
 9516TIP3    H150039   6.289   2.165  13.457 -0.4979 -0.0034 -0.2797
 9516TIP3    H250040   6.208   2.129  13.335  0.6614  0.7160 -1.2847
 9517TIP3   OH250041   0.961   2.190   3.177  0.6746 -0.3826 -0.0403
 9517TIP3    H150042   0.888   2.181   3.116  1.7063 -0.2613 -1.3366
 9517TIP3    H250043   0.964   2.283   3.199  0.9070 -0.2589 -0.5897
 9518TIP3   OH250044   0.871   5.880  11.886  0.0743 -0.0237 -0.1592
 9518TIP3    H150045   0.934   5.937  11.929  0.8115 -1.6400  1.0301
 9518TIP3    H250046   0.835   5.826  11.957  0.1704 -1.7139 -1.3306
 9519TIP3   OH250047   3.800   3.007  11.321  0.2588  0.1612 -0.0370
 9519TIP3    H150048   3.772   3.020  11.230  0.2748  1.4444  0.1123
 9519TIP3    H250049   3.840   3.091  11.346  0.8083 -0.3736  0.9630
 9520TIP3   OH250050   4.501   0.393  12.719 -0.2955  0.3600 -0.0921
 9520TIP3    H150051   4.455   0.309  12.717  0.2842  0.0182  0.4474
 9520TIP3    H250052   4.501   0.418  12.811 -0.0518  0.7197 -0.1870
 9521TIP3   OH250053   0.796   6.303  12.484 -0.0986  0.3608  0.3439
 9521TIP3    H150054   0.824   6.211  12.484 -1.7011 -0.1756  0.4601
 9521TIP3    H250055   0.700   6.298  12.476 -0.2394  2.0243  0.6665
 9522TIP3   OH250056   2.563   5.166   1.333 -0.5505  0.4241  0.0466
 9522TIP3    H150057   2.468   5.156   1.323 -0.5276  0.0504  0.1910
 9522TIP3    H250058   2.600   5.118   1.259 -0.4031 -1.7113  1.4393
 9523TIP3   OH250059   0.303   0.043   4.496  0.0455 -0.2092 -0.1508
 9523TIP3    H150060   0.295  -0.021   4.567 -0.6410  0.1580  0.1171
 9523TIP3    H250061   0.378   0.014   4.445  1.7446  0.5671  1.7889
 9524TIP3   OH250062   2.133   4.031   4.738 -0.4293 -0.3951  0.4827
 9524TIP3    H150063   2.061   4.045   4.800 -0.2443 -0.6295  0.7531
 9524TIP3    H250064   2.098   3.972   4.672 -0.3094 -0.9623  0.9242
 9525TIP3   OH250065   6.151   0.814   1.273 -0.4089  0.7015 -0.1676
 9525TIP3    H150066   6.189   0.790   1.189 -0.0087  2.4256 -0.5220
 9525TIP3    H250067   6.225   0.817   1.333 -0.7838 -1.2025  0.4610
 9526TIP3   OH250068   3.108   3.564   0.596 -0.3394 -0.3271 -0.2819
 9526TIP3    H150069   3.102   3.531   0.686  1.3795  1.4651  0.5662
 9526TIP3    H250070   3.049   3.639   0.595  1.4220  1.1225  0.1309
 9527TIP3   OH250071   4.403   1.673   4.657 -0.2002 -0.0568 -0.0018
 9527TIP3    H150072   4.321   1.671   4.708 -0.0503 -0.7645  0.2251
 9527TIP3    H250073   4.464   1.621   4.710  0.8060  1.5896  0.5131
 9528TIP3   OH250074   5.774   2.237   4.417 -0.0335  0.0634  0.2955
 9528TIP3    H150075   5.749   2.260   4.507  0.7988  0.6455  0.3888
 9528TIP3    H250076   5.843   2.172   4.428 -0.3408 -0.3035  0.0646
 9529TIP3   OH250077   5.946   4.020  16.879 -0.5677  0.2540 -0.2135
 9529TIP3    H150078   5.929   3.927  16.870  0.1211  0.0678  0.3400
 9529TIP3    H250079   5.964   4.032  16.972  0.6887  0.7117 -0.5007
 9530TIP3   OH250080   4.363   0.171   0.498 -0.1194 -0.1302  0.2149
 9530TIP3    H150081   4.450   0.176   0.458  0.4831 -0.4582  1.4478
 9530TIP3    H250082   4.363   0.089   0.547 -2.2826 -1.8305 -2.3214
 9531TIP3   OH250083   4.584   0.321  11.220 -0.4085 -0.1019  0.2899
 9531TIP3    H150084   4.619   0.346  11.134 -1.2770  0.1939  0.0130
 9531TIP3    H250085   4.575   0.403  11.267 -0.8777 -0.1628  0.3034
 9532TIP3   OH250086   3.902   1.267  14.815  0.1778  0.3506 -0.2403
 9532TIP3    H150087   3.813   1.291  14.789  0.6061  0.6857 -1.4985
 9532TIP3    H250088   3.891   1.188  14.869 -0.8667  0.2804 -0.5325
 9533TIP3   OH250089   4.368   5.619  12.913  0.1190 -0.3470 -0.0011
 9533TIP3    H150090   4.289   5.658  12.874  0.1451  1.1281  1.3067
 9533TIP3    H250091   4.440   5.655  12.861  0.0299 -0.2926 -0.0891
 9534TIP3   OH250092   2.962   3.414   0.421  0.1814 -0.4233 -0.4537
 9534TIP3    H150093   2.888   3.453   0.469 -0.4665  0.7981 -2.3590
 9534TIP3    H250094   3.037   3.429   0.478 -1.0582 -2.2685  1.8516
 9535TIP3   OH250095   0.001   1.546   3.887 -0.0748 -0.0722  0.0387
 9535TIP3    H150096   0.078   1.588   3.924 -1.2160  1.5408  0.6503
 9535TIP3    H250097  -0.008   1.585   3.800  3.2720 -4.6398 -2.8533
 9536TIP3   OH250098   1.405   1.360   4.065 -0.6345 -0.4581 -0.2999
 9536TIP3    H150099   1.459   1.439   4.072 -2.0212  0.7660 -2.3078
 9536TIP3    H250100   1.461   1.295   4.024 -0.2072  0.3123 -0.9585
 9537TIP3   OH250101   5.497   5.655   5.806  0.0743  0.2555 -0.0581
 9537TIP3    H150102   5.512   5.561   5.816 -1.3228  0.0619  0.4063
 9537TIP3    H250103   5.571   5.685   5.752 -0.4081 -1.4334 -1.7985
 9538TIP3   OH250104   4.952   4.848  15.879 -0.0907 -0.3866 -0.3953
 9538TIP3    H150105   4.971   4.911  15.809  1.7317 -1.6537 -1.1252
 9538TIP3    H250106   4.863   4.869  15.906  0.4640  2.5502 -0.5091
 9539TIP3   OH250107   0.467   5.683   4.200 -0.4036  0.1564 -0.1950
 9539TIP3    H150108   0.373   5.689   4.184 -0.4585 -0.1314  0.0178
 9539TIP3    H250109   0.501   5.768   4.171 -0.6132 -0.0513 -1.0821
 9540TIP3   OH250110   0.984   2.966   1.835 -0.3272  0.4359  0.2190
 9540TIP3    H150111   0.893   2.991   1.849 -0.4396 -0.1655  0.6064
 9540TIP3    H250112   1.034   3.046   1.850 -0.8436  0.9484 -0.7110
 9541TIP3   OH250113   0.691   6.470  15.111 -0.1160  0.3515  0.2591
 9541TIP3    H150114   0.655   6.382  15.111  2.2409 -0.7445 -1.5454
 9541TIP3    H250115   0.640   6.517  15.045 -0.2743 -0.2297 -0.0457
 9542TIP3   OH250116   6.079   6.690   0.878  0.3640  0.1780  0.5339
 9542TIP3    H150117   6.005   6.643   0.916  0.0760  1.7079  1.9608
 9542TIP3    H250118   6.070   6.676   0.783 -0.8781 -0.9019  0.7891
 9543TIP3   OH250119   6.002   1.463  12.120 -0.6810  0.0868 -0.3518
 9543TIP3    H150120   6.006   1.387  12.178 -0.9663  1.3871  1.4412
 9543TIP3    H250121   6.010   1.539  12.178  0.8480  1.4368 -2.2049
 9544TIP3   OH250122   2.597   6.000   1.942 -0.1617  0.1636 -0.0250
 9544TIP3    H150123   2.525   5.937   1.937  0.9594 -1.1628 -0.1698
 9544TIP3    H250124   2.671   5.948   1.975  1.2731  0.9769 -1.7996
 9545TIP3   OH250125   0.296   2.564   3.631 -0.3285 -0.6542 -0.3126
 9545TIP3    H150126   0.355   2.528   3.565 -0.5049  0.9619 -1.3951
 9545TIP3    H250127   0.329   2.531   3.714  0.8332 -1.4640 -1.0771
 9546TIP3   OH250128   2.251   5.290   3.305  0.1586  0.6304  0.2197
 9546TIP3    H150129   2.279   5.206   3.268 -0.4922  0.2103  0.6724
 9546TIP3    H250130   2.282   5.289   3.395  0.1360  0.8769  0.2321
 9547TIP3   OH250131   6.198   2.130   2.525  0.2382 -0.1778 -0.0165
 9547TIP3    H150132   6.217   2.166   2.611  0.0872 -0.0704 -0.0267
 9547TIP3    H250133   6.135   2.192   2.487 -1.0079 -1.0949  0.4586
 9548TIP3   OH250134   3.330   2.926  16.082 -0.2403  0.3631  0.2707
 9548TIP3    H150135   3.247   2.953  16.120 -0.3115 -0.3311  0.6198
 9548TIP3    H250136   3.396   2.975  16.132 -0.3427 -0.4025  1.1906
 9549TIP3   OH250137   4.440   2.479   1.238  0.0010 -0.1118  0.2485
 9549TIP3    H150138   4.499   2.406   1.218  0.6022  0.4915 -0.2490
 9549TIP3    H250139   4.443   2.486   1.334 -0.8153 -1.3351  0.3905
 9550TIP3   OH250140   6.659   3.302   3.081 -0.0440 -0.0227 -0.6481
 9550TIP3    H150141   6.638   3.221   3.035 -1.0305 -1.0626  1.4922
 9550TIP3    H250142   6.575   3.329   3.120  0.7774  0.6247  0.7544
 9551TIP3   OH250143   3.915   6.095   4.470  0.0673  0.3802 -0.0759
 9551TIP3    H150144   3.913   6.160   4.401 -0.3491  0.2745 -0.1700
 9551TIP3    H250145   4.004   6.061   4.469  0.1741  0.6613 -0.2923
 9552TIP3   OH250146   4.239   3.085  14.793  0.2569  0.8956  0.3811
 9552TIP3    H150147   4.176   3.029  14.838  0.2826 -0.6226 -1.3673
 9552TIP3    H250148   4.286   3.130  14.863 -0.9053 -0.0207  1.7947
 9553TIP3   OH250149   0.768   6.184  10.871  0.0966  0.0610 -0.0390
 9553TIP3    H150150   0.674   6.198  10.885 -0.0289 -1.3569  0.7516
 9553TIP3    H250151   0.810   6.234  10.942 -0.0244  1.0601 -0.6591
 9554TIP3   OH250152   4.207   2.946  16.696 -0.0854 -0.2869  0.3849
 9554TIP3    H150153   4.248   3.014  16.642 -0.9549 -0.6994 -0.8110
 9554TIP3    H250154   4.210   2.867  16.643 -1.6766 -0.5237  0.6020
 9555TIP3   OH250155   1.780   0.690   3.679  0.4815  0.0805 -0.0629
 9555TIP3    H150156   1.772   0.763   3.618 -0.0263  1.6760  1.8018
 9555TIP3    H250157   1.691   0.659   3.693  0.4771  0.3486  0.5548
 9556TIP3   OH250158   6.127   5.741  13.363  0.8206  0.0801 -0.3321
 9556TIP3    H150159   6.100   5.761  13.274 -1.3719 -2.1591 -0.2947
 9556TIP3    H250160   6.106   5.820  13.413 -0.2298  0.5150 -1.4107
 9557TIP3   OH250161   3.768   4.981   4.541  0.4689  0.1115 -0.6927
 9557TIP3    H150162   3.743   4.913   4.603 -0.5762 -0.0835 -1.2855
 9557TIP3    H250163   3.856   5.006   4.566  0.7367 -1.2025 -0.2345
 9558TIP3   OH250164   5.836   3.700  16.081  0.0469 -0.1136 -0.5868
 9558TIP3    H150165   5.798   3.738  16.002 -0.7139 -1.7810 -1.0620
 9558TIP3    H250166   5.886   3.625  16.049  1.2804  0.2912  0.3471
 9559TIP3   OH250167   6.212   2.161  13.636  0.3297  0.1182 -0.4836
 9559TIP3    H150168   6.257   2.240  13.666  1.5481 -0.3228 -1.0761
 9559TIP3    H250169   6.185   2.116  13.716 -0.0545  0.9505 -0.1414
 9560TIP3   OH250170   5.102   5.834  17.129  0.2790 -0.2010  0.4113
 9560TIP3    H150171   5.157   5.757  17.116 -0.8619 -1.3115  1.9371
 9560TIP3    H250172   5.128   5.868  17.215 -1.1000 -0.4804  0.9484
 9561TIP3   OH250173   0.314   0.843  11.237 -0.2744  0.1049  0.3551
 9561TIP3    H150174   0.272   0.883  11.313  1.4978  1.1587  0.8238
 9561TIP3    H250175   0.361   0.915  11.194  0.0653 -0.7870 -0.8270
 9562TIP3   OH250176   1.882   6.220   5.962  0.2934 -0.2759 -0.5885
 9562TIP3    H150177   1.860   6.300   5.915 -0.3396  1.3087  2.1696
 9562TIP3    H250178   1.930   6.250   6.039  1.5309 -2.7357 -0.2993
 9563TIP3   OH250179   0.544   0.825  12.892  0.6577 -0.4952  0.4278
 9563TIP3    H150180   0.505   0.903  12.934 -0.4693 -0.7592 -0.0772
 9563TIP3    H250181   0.475   0.793  12.834  1.6908 -0.9472 -0.5797
 9564TIP3   OH250182   3.750   4.706  11.090  0.3576  0.1881 -0.7200
 9564TIP3    H150183   3.793   4.627  11.058 -0.5581 -0.7197  0.1883
 9564TIP3    H250184   3.771   4.773  11.026  1.1513 -0.7997 -1.5231
 9565TIP3   OH250185   5.896   0.180   6.234  0.4654  0.2672  0.1505
 9565TIP3    H150186   5.901   0.117   6.162 -4.7618 -0.6753  0.2318
 9565TIP3    H250187   5.917   0.128   6.312  4.6254  0.9400 -0.2944
 9566TIP3   OH250188   2.869   4.468  15.400  0.0251 -0.1350  0.7101
 9566TIP3    H150189   2.829   4.507  15.478 -2.8068 -0.8946 -0.2584
 9566TIP3    H250190   2.811   4.492  15.328  2.2061 -0.0027 -1.1348
 9567TIP3   OH250191   6.738   4.401   3.196 -0.0689  0.0678 -0.1616
 9567TIP3    H150192   6.752   4.324   3.251 -1.5944  0.3417  0.6490
 9567TIP3    H250193   6.810   4.398   3.133 -0.4125 -2.3487 -0.5541
 9568TIP3   OH250194   3.703   3.705   5.416  0.6045 -0.8151  0.5794
 9568TIP3    H150195   3.691   3.734   5.507  0.7510  0.2988  0.2562
 9568TIP3    H250196   3.749   3.778   5.374 -0.8116 -0.6570 -0.7610
 9569TIP3   OH250197   4.326   4.334   3.853  0.6589  0.1894 -0.6536
 9569TIP3    H150198   4.304   4.404   3.793  2.2086  0.2848 -1.1649
 9569TIP3    H250199   4.359   4.263   3.797  0.0010 -0.5924 -0.0814
 9570TIP3   OH250200   5.332   1.965   4.585  0.4619 -0.1629  0.4487
 9570TIP3    H150201   5.406   1.970   4.646  0.4593 -0.5811  0.4901
 9570TIP3    H250202   5.373   1.952   4.499  0.4063 -2.7774  0.7435
 9571TIP3   OH250203   0.582   0.831  12.018 -0.1004  0.2710 -0.1404
 9571TIP3    H150204   0.525   0.891  12.065  0.5848  0.5787  0.3131
 9571TIP3    H250205   0.532   0.806  11.940 -0.4798  1.2363 -0.2108
 9572TIP3   OH250206   6.434   5.112  11.409 -0.0936  0.3683  0.1782
 9572TIP3    H150207   6.424   5.174  11.337  0.2522 -0.8513 -0.9532
 9572TIP3    H250208   6.351   5.065  11.412  0.5576 -0.8948 -0.7159
 9573TIP3   OH250209   2.068   0.690  10.630 -1.0889  0.3614 -0.6889
 9573TIP3    H150210   2.136   0.681  10.564  0.1195  0.5084  0.4831
 9573TIP3    H250211   2.015   0.610  10.621 -1.3951  0.7104 -2.2719
 9574TIP3   OH250212   0.926   2.509   0.705  0.1021  0.2585  0.3374
 9574TIP3    H150213   0.912   2.497   0.799 -0.5775  0.3190  0.2436
 9574TIP3    H250214   0.940   2.421   0.671  0.7848  0.2728  0.5580
 9575TIP3   OH250215   2.334   5.272   5.736  0.5188 -0.0996  0.6701
 9575TIP3    H150216   2.373   5.223   5.808  0.1799 -0.5502  0.5516
 9575TIP3    H250217   2.252   5.227   5.718  0.6106 -0.0072 -0.0124
 9576TIP3   OH250218   4.280   0.078   6.233 -0.4726  0.0636  0.5130
 9576TIP3    H150219   4.262   0.170   6.216 -2.9257 -0.5721 -0.8186
 9576TIP3    H250220   4.239   0.061   6.317  0.2813  0.2433  0.9246
 9577TIP3   OH250221   1.625   6.199  11.899 -0.2024  0.5569 -0.4894
 9577TIP3    H150222   1.577   6.213  11.981  0.6263 -0.3713  0.1801
 9577TIP3    H250223   1.580   6.254  11.835 -1.7032  0.2637  0.2666
 9578TIP3   OH250224   5.412   2.539  14.245 -0.1706  0.0283  0.2312
 9578TIP3    H150225   5.397   2.563  14.337 -0.9933 -0.3190  0.1974
 9578TIP3    H250226   5.360   2.460  14.232  1.0604 -0.7442 -0.1577
 9579TIP3   OH250227   4.741   0.543   5.393 -0.4841 -0.8534  0.0849
 9579TIP3    H150228   4.680   0.578   5.328  0.6469  0.6744 -0.2156
 9579TIP3    H250229   4.755   0.614   5.454  1.8278 -0.7325 -0.4852
 9580TIP3   OH250230   2.321   6.583  11.610 -0.1324 -0.5263  0.7086
 9580TIP3    H150231   2.280   6.568  11.524  0.4951 -1.5026  0.5621
 9580TIP3    H250232   2.248   6.603  11.668 -0.5254  0.5772 -0.1332
 9581TIP3   OH250233   6.432   1.884   2.447  0.1502  0.5822  0.2612
 9581TIP3    H150234   6.527   1.895   2.453  0.3435 -0.6318 -0.2338
 9581TIP3    H250235   6.410   1.909   2.358  0.1331  0.1361  0.1342
 9582TIP3   OH250236   1.225   2.517   5.608 -0.6451 -0.5883 -0.6959
 9582TIP3    H150237   1.198   2.452   5.673 -1.7173  0.6327  0.1246
 9582TIP3    H250238   1.160   2.509   5.538 -0.7878 -0.3788 -0.5860
 9583TIP3   OH250239   3.998   2.227  13.356  0.2647  0.1829 -0.4040
 9583TIP3    H150240   4.018   2.156  13.295  0.5255  1.2247 -1.5756
 9583TIP3    H250241   4.084   2.266  13.375  0.0250  0.7539 -0.4889
 9584TIP3   OH250242   0.513   3.284   4.959  0.3880 -0.0981  0.2649
 9584TIP3    H150243   0.437   3.280   5.016  0.1313 -2.4540 -0.1272
 9584TIP3    H250244   0.476   3.277   4.870  1.0041 -0.4033  0.0277
 9585TIP3   OH250245   4.882   1.035   0.065 -0.5726 -0.1360  0.3848
 9585TIP3    H150246   4.862   1.084   0.144 -2.0374 -0.6597  0.3759
 9585TIP3    H250247   4.798   1.030   0.018  0.4325  0.8966 -1.6277
 9586TIP3   OH250248   5.152   1.191   4.683  0.0194 -0.1696 -0.2266
 9586TIP3    H150249   5.175   1.100   4.700 -1.9194 -0.8266 -0.9178
 9586TIP3    H250250   5.205   1.215   4.607 -1.4903 -1.6717 -1.8503
 9587TIP3   OH250251   5.141   3.183  15.077  0.1308  0.0243 -0.0013
 9587TIP3    H150252   5.051   3.179  15.044  0.2095 -2.8486 -0.1464
 9587TIP3    H250253   5.133   3.168  15.171  0.5007 -4.1534 -0.4325
 9588TIP3   OH250254   1.790   0.185   0.060 -0.0573 -0.0414 -0.2379
 9588TIP3    H150255   1.779   0.261   0.118 -0.1941 -0.2915  0.0639
 9588TIP3    H250256   1.712   0.132   0.075 -1.3533  1.0682 -2.4336
 9589TIP3   OH250257   3.160   4.534   6.280  0.1540  0.5458 -0.4106
 9589TIP3    H150258   3.130   4.559   6.368 -0.8150  1.9460 -1.0949
 9589TIP3    H250259   3.244   4.491   6.295  1.5282  3.4136  1.0224
 9590TIP3   OH250260   6.294   1.343  11.235  0.1263 -0.3098 -0.6890
 9590TIP3    H150261   6.244   1.372  11.312 -0.4055  0.9798 -1.4788
 9590TIP3    H250262   6.367   1.294  11.271  0.5893  1.3111  0.7336
 9591TIP3   OH250263   6.136   5.416  15.084  0.7393  0.3541 -0.5948
 9591TIP3    H150264   6.123   5.416  15.179  1.2968  1.2948 -0.4962
 9591TIP3    H250265   6.053   5.448  15.048 -0.4255 -2.4528 -0.6417
 9592TIP3   OH250266   1.986   5.307   5.482 -0.5022  0.0453 -0.1506
 9592TIP3    H150267   1.945   5.284   5.566 -2.5333  1.9144 -0.5258
 9592TIP3    H250268   1.935   5.259   5.417  0.4958 -0.6935 -0.4146
 9593TIP3   OH250269   1.103   1.777  16.741  0.0492  0.1672  0.7350
 9593TIP3    H150270   1.128   1.697  16.788 -2.3199 -0.8179  0.4382
 9593TIP3    H250271   1.146   1.768  16.655  1.3000  0.1460  1.3419
 9594TIP3   OH250272   1.666   3.707   1.681  0.0593 -0.1501  1.1019
 9594TIP3    H150273   1.762   3.708   1.683  0.1055 -0.3548 -0.1465
 9594TIP3    H250274   1.643   3.617   1.704  0.3055 -0.8987 -1.3030
 9595TIP3   OH250275   2.542   1.989   2.631  0.7016 -0.0167  0.0752
 9595TIP3    H150276   2.569   1.982   2.539  0.4909  2.0657 -0.1799
 9595TIP3    H250277   2.623   2.001   2.680  0.6397  1.5397 -0.1651
 9596TIP3   OH250278   0.456   0.856   5.017  0.1553  0.1638  0.9451
 9596TIP3    H150279   0.512   0.791   5.060  1.4943  0.8430  0.2620
 9596TIP3    H250280   0.487   0.940   5.049 -1.3059  0.5303  1.5130
 9597TIP3   OH250281   1.963   4.847  15.186 -0.3006  0.2745 -0.6603
 9597TIP3    H150282   2.043   4.876  15.141 -0.6239  0.7498 -0.9429
 9597TIP3    H250283   1.903   4.921  15.178 -0.7885 -0.0959 -0.4902
 9598TIP3   OH250284   6.145   4.543  16.453  0.1707  0.1398  1.0292
 9598TIP3    H150285   6.205   4.469  16.447  0.0754  0.1639 -0.8959
 9598TIP3    H250286   6.098   4.543  16.369 -1.6754  0.8365  1.9905
 9599TIP3   OH250287   3.126   1.914   3.725  0.0088 -0.2754 -0.1229
 9599TIP3    H150288   3.114   1.820   3.715  0.1691 -0.5555  1.8632
 9599TIP3    H250289   3.147   1.926   3.818  0.1406  1.7054 -0.3554
 9600TIP3   OH250290   1.971   3.785  14.327  0.1756  0.2393 -0.2527
 9600TIP3    H150291   1.995   3.802  14.418  1.6010 -0.5967 -0.4392
 9600TIP3    H250292   1.911   3.710  14.331 -0.8017  1.0193  0.0706
 9601TIP3   OH250293   6.438   6.170  10.780 -0.1368  0.2875  0.5641
 9601TIP3    H150294   6.353   6.194  10.743 -0.2481  0.3248  0.8346
 9601TIP3    H250295   6.456   6.239  10.844 -0.5908 -0.4952  1.5603
 9602TIP3   OH250296   0.757   6.675   4.911 -0.1160 -0.5451 -0.5427
 9602TIP3    H150297   0.845   6.711   4.900 -0.3477 -0.2255 -1.4461
 9602TIP3    H250298   0.700   6.736   4.865 -0.9723 -0.1267  1.0106
 9603TIP3   OH250299   1.266   1.628   2.593  0.5876 -1.0524 -0.4420
 9603TIP3    H150300   1.292   1.536   2.584  1.0539 -0.8429 -1.3908
 9603TIP3    H250301   1.285   1.666   2.507  0.2282 -0.1089 -0.1112
 9604TIP3   OH250302   6.202   1.318   0.987  0.1548 -0.3371  0.4157
 9604TIP3    H150303   6.281   1.371   0.977  0.1022 -0.6680 -2.4498
 9604TIP3    H250304   6.217   1.241   0.932 -1.9588 -0.6557  0.2210
 9605TIP3   OH250305   6.645   5.014   6.394 -0.1721 -0.0233  0.0562
 9605TIP3    H150306   6.700   5.045   6.322 -0.0198 -0.8275 -0.1800
 9605TIP3    H250307   6.556   5.018   6.360 -0.1021 -0.3845 -0.1744
 9606TIP3   OH250308   6.179   5.140  17.078 -0.5414  0.1500 -0.1817
 9606TIP3    H150309   6.165   5.058  17.126 -1.0969  0.0317 -0.5401
 9606TIP3    H250310   6.246   5.119  17.013 -1.3539 -0.2844 -0.8995
 9607TIP3   OH250311   1.914   3.289  16.677  0.2237 -0.1061 -0.3149
 9607TIP3    H150312   1.832   3.282  16.726  0.5360  1.0778  0.4128
 9607TIP3    H250313   1.887   3.323  16.591  0.0083  0.9952  0.1682
 9608TIP3   OH250314   1.522   1.804   0.331  0.2305 -0.5443 -0.4284
 9608TIP3    H150315   1.487   1.838   0.249 -0.1766 -1.4205 -0.6262
 9608TIP3    H250316   1.459   1.737   0.358  1.1560 -1.3466 -0.2022
 9609TIP3   OH250317   2.114   5.578   5.853 -0.1667  0.0485  0.2357
 9609TIP3    H150318   2.089   5.587   5.761  1.2068 -1.5540 -0.3326
 9609TIP3    H250319   2.058   5.507   5.885 -0.5273  0.4955  0.6110
 9610TIP3   OH250320   4.267   1.221  11.241 -0.0605 -0.3015  0.2848
 9610TIP3    H150321   4.266   1.316  11.240 -0.5244 -0.3072  0.0548
 9610TIP3    H250322   4.329   1.198  11.310  0.4587  0.1684 -0.0115
 9611TIP3   OH250323   0.523   0.064   2.785  0.0869  0.2169  0.0849
 9611TIP3    H150324   0.542  -0.014   2.732 -2.0475 -0.1409 -0.2101
 9611TIP3    H250325   0.595   0.067   2.848  0.0963 -2.1769  0.3103
 9612TIP3   OH250326   6.744   3.401  13.354 -0.8703 -0.0400  0.2811
 9612TIP3    H150327   6.776   3.409  13.264 -0.9641  0.1530  0.2642
 9612TIP3    H250328   6.819   3.423  13.408 -0.7831 -0.2637  0.2522
 9613TIP3   OH250329   6.495   5.078   3.696 -0.1139 -0.2811  0.2081
 9613TIP3    H150330   6.499   5.151   3.635  2.5809 -1.0049 -0.5969
 9613TIP3    H250331   6.561   5.098   3.762  1.2940 -2.2876 -0.4815
 9614TIP3   OH250332   1.524   1.009  14.023 -0.4474  0.5635  0.2123
 9614TIP3    H150333   1.469   1.029  14.098  0.2280 -0.5004  1.0187
 9614TIP3    H250334   1.612   1.002  14.059 -0.0594  0.3933 -0.7442
 9615TIP3   OH250335   1.695   3.943   4.182 -0.1922 -0.1059 -0.0300
 9615TIP3    H150336   1.750   3.924   4.107  0.0907 -0.6071  0.2959
 9615TIP3    H250337   1.607   3.917   4.155 -0.3990  1.2258 -0.7570
 9616TIP3   OH250338   5.797   1.213   5.059  0.0604  0.1589 -0.2866
 9616TIP3    H150339   5.713   1.231   5.017  0.4359  2.2234 -0.2692
 9616TIP3    H250340   5.859   1.210   4.986  0.2788  0.7766 -0.1267
 9617TIP3   OH250341   5.099   4.764  14.989 -0.1770 -0.2270 -0.2767
 9617TIP3    H150342   5.084   4.809  14.906  1.5257  0.4469 -0.2657
 9617TIP3    H250343   5.012   4.757  15.028 -1.2606 -1.9076 -2.7202
 9618TIP3   OH250344   0.361   1.746  16.635 -0.2318 -0.3546  0.4549
 9618TIP3    H150345   0.393   1.830  16.666 -0.5801 -0.7742  2.0456
 9618TIP3    H250346   0.269   1.743  16.663 -0.6942 -0.6117 -0.9895
 9619TIP3   OH250347   5.222   0.441   3.898  0.4203  0.1045  0.0748
 9619TIP3    H150348   5.132   0.408   3.898 -0.3221  1.9721 -0.4629
 9619TIP3    H250349   5.270   0.378   3.843 -0.9858  0.0818 -1.2074
 9620TIP3   OH250350   6.008   6.498  15.696 -0.6016 -0.0427  0.0803
 9620TIP3    H150351   6.013   6.559  15.770  2.1976  2.2375 -1.7559
 9620TIP3    H250352   5.924   6.517  15.654 -1.1584  0.3061  1.3139
 9621TIP3   OH250353   5.742   5.097  12.743  0.1478 -0.6532  0.2584
 9621TIP3    H150354   5.694   5.109  12.825 -1.3231 -0.6442 -0.5658
 9621TIP3    H250355   5.699   5.155  12.681  1.7689 -0.0349 -0.3469
 9622TIP3   OH250356   5.258   0.234  14.759 -0.4117  1.3024  0.3209
 9622TIP3    H150357   5.297   0.319  14.780  0.4129  0.6644  1.4523
 9622TIP3    H250358   5.314   0.170  14.803 -0.0060  0.0304 -1.9155
 9623TIP3   OH250359   6.603   2.790  16.301 -0.3785  0.5203  0.0568
 9623TIP3    H150360   6.666   2.851  16.263  0.6284 -1.1370 -1.0843
 9623TIP3    H250361   6.533   2.846  16.335  0.8150  2.3219 -0.2935
 9624TIP3   OH250362   2.806   2.571   3.763  0.5044 -0.0103 -0.0372
 9624TIP3    H150363   2.853   2.488   3.763  2.1213  0.8572 -0.2084
 9624TIP3    H250364   2.762   2.574   3.678  1.4649 -0.1762 -0.5656
 9625TIP3   OH250365   1.107   0.503   4.452 -0.3377  0.1386 -0.2272
 9625TIP3    H150366   1.116   0.567   4.381 -3.0970  0.0460 -0.7489
 9625TIP3    H250367   1.055   0.547   4.519 -0.4657 -0.8472  0.3443
 9626TIP3   OH250368   6.331   0.997   5.551 -0.4999  0.3278 -0.3359
 9626TIP3    H150369   6.403   1.045   5.593  1.8674 -1.9868 -1.4766
 9626TIP3    H250370   6.284   1.064   5.502  0.5252  2.0193  0.8505
 9627TIP3   OH250371   2.875   2.256   4.600 -0.8107 -0.0968  0.0921
 9627TIP3    H150372   2.902   2.346   4.617  1.1152 -0.9412  2.0302
 9627TIP3    H250373   2.895   2.241   4.508  2.0498  0.5010  0.5297
 9628TIP3   OH250374   5.575   1.674   2.685  0.3725  0.1276 -0.4583
 9628TIP3    H150375   5.636   1.614   2.643  0.4488  0.0549 -0.2436
 9628TIP3    H250376   5.489   1.650   2.649  0.1847 -1.1209  0.7657
 9629TIP3   OH250377   0.776   6.771   3.753  0.2573  0.3828 -0.2229
 9629TIP3    H150378   0.688   6.770   3.717 -0.4920 -0.3034  1.5253
 9629TIP3    H250379   0.769   6.822   3.834  1.2611 -0.3972  0.3901
 9630TIP3   OH250380   4.239   6.398  12.710  0.2550 -0.0638 -0.1705
 9630TIP3    H150381   4.283   6.314  12.702 -0.4566 -0.3543 -1.1740
 9630TIP3    H250382   4.162   6.391  12.654  1.2972  1.9897 -2.0429
 9631TIP3   OH250383   2.054   1.880   5.726  0.7601 -0.3463  0.0008
 9631TIP3    H150384   2.052   1.863   5.632  1.3640 -2.0848  0.2681
 9631TIP3    H250385   1.966   1.858   5.756  0.5029  0.4131 -0.1696
 9632TIP3   OH250386   1.843   2.082   6.438  0.1932  0.3053  0.0073
 9632TIP3    H150387   1.838   2.170   6.477 -0.4253  0.4379 -0.3429
 9632TIP3    H250388   1.936   2.062   6.434  0.3001  0.5341  0.9995
 9633TIP3   OH250389   0.818   5.009  16.771  0.4600 -0.3234 -0.2843
 9633TIP3    H150390   0.827   4.987  16.864  1.8631 -0.6294 -0.4674
 9633TIP3    H250391   0.823   5.105  16.769 -0.3429 -0.2656  0.0147
 9634TIP3   OH250392   6.350   2.728   2.581  0.1939 -0.0479 -0.2317
 9634TIP3    H150393   6.446   2.731   2.581  0.3360 -2.2665 -1.7783
 9634TIP3    H250394   6.324   2.785   2.508  0.4911 -1.1690 -1.2444
 9635TIP3   OH250395   5.495   0.626  11.455 -0.0850  0.4088  0.4938
 9635TIP3    H150396   5.570   0.675  11.489 -1.2917  1.3006  1.9836
 9635TIP3    H250397   5.534   0.556  11.402  1.7437  1.4796  0.3560
 9636TIP3   OH250398   5.406   3.888   3.039  0.1382  0.4689 -0.0397
 9636TIP3    H150399   5.389   3.888   3.133  2.8642 -0.0910  0.5182
 9636TIP3    H250400   5.339   3.946   3.003 -0.7399  0.9925  2.2664
 9637TIP3   OH250401   0.879   1.341   5.982 -0.4144 -0.3040  0.0831
 9637TIP3    H150402   0.961   1.292   5.983  1.2865  2.3286 -0.9184
 9637TIP3    H250403   0.816   1.282   6.023  0.8749 -4.2000 -2.9109
 9638TIP3   OH250404   2.036   2.598  12.547  0.2530 -0.4708  0.1441
 9638TIP3    H150405   2.020   2.662  12.617  0.1313 -0.3895  0.0407
 9638TIP3    H250406   2.073   2.522  12.592 -0.8423 -0.8471  0.4491
 9639TIP3   OH250407   6.486   1.007  15.364 -0.0772  0.2310 -0.2142
 9639TIP3    H150408   6.419   1.006  15.432 -1.0141  1.5042 -1.0523
 9639TIP3    H250409   6.548   1.074  15.391  0.4078 -0.3650  0.1542
 9640TIP3   OH250410   2.581   6.021   4.086  0.0401 -0.6586 -0.1799
 9640TIP3    H150411   2.502   6.076   4.091 -0.2421 -1.1067  0.5040
 9640TIP3    H250412   2.651   6.077   4.120 -0.3477 -0.8861  1.0429
 9641TIP3   OH250413   0.041   1.677  10.426 -0.5578  0.0117 -0.6545
 9641TIP3    H150414   0.083   1.639  10.348 -1.2616  0.2453 -1.1579
 9641TIP3    H250415   0.105   1.742  10.457 -0.7255  0.6956 -1.6920
 9642TIP3   OH250416   4.506   4.255  15.840  0.2914  0.1477 -0.2927
 9642TIP3    H150417   4.512   4.295  15.927  0.7060 -1.7814  0.6066
 9642TIP3    H250418   4.543   4.322  15.781  0.9440  1.0993  1.1357
 9643TIP3   OH250419   3.745   6.355  13.948  0.1831 -0.1221 -0.3233
 9643TIP3    H150420   3.759   6.265  13.919 -0.6184 -0.0628 -0.9150
 9643TIP3    H250421   3.660   6.380  13.911 -1.0002 -0.0987  2.1902
 9644TIP3   OH250422   4.400   1.229  15.168 -0.5790 -0.1776  0.0099
 9644TIP3    H150423   4.494   1.247  15.166 -0.3585 -1.3514 -0.9596
 9644TIP3    H250424   4.359   1.313  15.145  0.1619  0.5775  1.3075
 9645TIP3   OH250425   5.404   1.680  14.112 -0.0693  0.2295  0.4404
 9645TIP3    H150426   5.428   1.637  14.029  1.0101  0.5985  0.5467
 9645TIP3    H250427   5.484   1.723  14.141 -0.6463  0.7697  1.2882
 9646TIP3   OH250428   0.651   0.298  13.919 -0.2757  0.0774 -0.2062
 9646TIP3    H150429   0.604   0.356  13.979  0.8324  1.7439 -0.8848
 9646TIP3    H250430   0.744   0.314  13.938  0.0693 -0.3619 -1.4557
 9647TIP3   OH250431   3.584   1.135  16.466  0.4190 -0.2286 -0.0333
 9647TIP3    H150432   3.545   1.077  16.401  0.3957  0.2037 -0.4111
 9647TIP3    H250433   3.524   1.131  16.541  1.2389 -1.9190  0.5888
 9648TIP3   OH250434   5.735   0.081   0.249  0.2136 -0.1315  0.6253
 9648TIP3    H150435   5.719   0.151   0.186  0.0417 -1.1318 -0.4856
 9648TIP3    H250436   5.801   0.117   0.309 -0.0562  1.0506  0.2390
 9649TIP3   OH250437   5.522   3.499   1.521 -0.1043 -0.7693  0.3127
 9649TIP3    H150438   5.564   3.553   1.454 -0.3702 -1.1248 -0.1436
 9649TIP3    H250439   5.554   3.410   1.503  0.3021 -0.7798  1.0341
 9650TIP3   OH250440   5.957   2.291   4.665  0.1605  0.4532  0.0605
 9650TIP3    H150441   5.919   2.354   4.604  0.7534  0.8472  0.0964
 9650TIP3    H250442   5.960   2.337   4.748  0.0483  0.1700  0.2241
 9651TIP3   OH250443   2.448   5.184  11.620 -0.0442 -0.3119 -0.4874
 9651TIP3    H150444   2.366   5.220  11.586 -0.2751  1.3035  1.5452
 9651TIP3    H250445   2.513   5.252  11.601 -0.1077  0.4503  1.7822
 9652TIP3   OH250446   1.744   3.024  14.324  0.1695  0.3118  0.3792
 9652TIP3    H150447   1.790   2.947  14.289  1.0536 -0.0662  2.2544
 9652TIP3    H250448   1.654   3.015  14.291  0.2883 -1.4730  0.4297
 9653TIP3   OH250449   5.282   2.944  12.177  0.0926 -0.0138  0.3565
 9653TIP3    H150450   5.355   2.990  12.218 -0.0926  0.1361  0.5189
 9653TIP3    H250451   5.223   2.923  12.249  0.3376 -0.8065  0.3365
 9654TIP3   OH250452   1.036   4.934   5.530 -0.7669 -0.0283 -0.4932
 9654TIP3    H150453   1.083   4.968   5.606  1.9030 -2.3493 -0.9238
 9654TIP3    H250454   1.074   4.980   5.455 -1.3137  0.1720 -0.6539
 9655TIP3   OH250455   5.952   1.064  10.213 -0.0727 -0.0092  0.2281
 9655TIP3    H150456   5.872   1.021  10.183  0.5613 -0.2979 -1.1229
 9655TIP3    H250457   5.953   1.148  10.167  0.2496  0.1227  0.4716
 9656TIP3   OH250458   0.179   5.021  16.609  0.4323  0.0031 -0.5225
 9656TIP3    H150459   0.206   5.005  16.699  0.8493 -0.7080 -0.7660
 9656TIP3    H250460   0.229   4.958  16.557 -0.0395  0.1845 -1.2163
 9657TIP3   OH250461   4.961   4.261   3.629  0.0429  0.1295  0.1682
 9657TIP3    H150462   4.943   4.236   3.538 -0.3199 -0.0257  0.2785
 9657TIP3    H250463   5.012   4.189   3.664 -0.2800 -0.0664  0.2417
 9658TIP3   OH250464   6.389   5.956   5.106 -0.0285 -0.4446  0.1560
 9658TIP3    H150465   6.381   5.901   5.183 -1.9605  0.4124  0.6137
 9658TIP3    H250466   6.305   5.948   5.060 -0.4061  2.0652  0.2580
 9659TIP3   OH250467   0.356   0.436  12.719  0.3900 -0.1883 -0.0045
 9659TIP3    H150468   0.403   0.353  12.725  1.1050  0.2741  1.3955
 9659TIP3    H250469   0.300   0.437  12.797  1.0899  1.0279  0.5170
 9660TIP3   OH250470   0.029   4.596   3.794 -0.2337  0.2640  0.2186
 9660TIP3    H150471   0.024   4.631   3.883  0.6203  1.2906 -0.1189
 9660TIP3    H250472  -0.019   4.659   3.741 -2.6456 -1.4617  0.2207
 9661TIP3   OH250473   2.458   1.550  10.912 -0.1247  0.3270  0.0773
 9661TIP3    H150474   2.397   1.487  10.875  0.0067  0.6806 -0.7701
 9661TIP3    H250475   2.449   1.540  11.007 -1.0778 -0.0202 -0.0409
 9662TIP3   OH250476   1.924   2.252  16.693  0.3565  1.0684  0.1385
 9662TIP3    H150477   2.015   2.275  16.673  0.2909 -0.2310 -2.0137
 9662TIP3    H250478   1.879   2.259  16.608 -1.7268  2.3492  1.2740
 9663TIP3   OH250479   1.260   4.075  13.142  0.1440 -1.0002  0.2329
 9663TIP3    H150480   1.326   4.094  13.076 -1.2231  0.3553 -0.8021
 9663TIP3    H250481   1.214   3.997  13.108 -0.5899 -0.2767 -0.4839
 9664TIP3   OH250482   4.306   2.587   4.521 -0.7100  0.4311 -0.0463
 9664TIP3    H150483   4.297   2.584   4.616  0.1561  0.7450  0.0580
 9664TIP3    H250484   4.216   2.587   4.488 -1.0075 -0.5563  0.7324
 9665TIP3   OH250485   5.420   1.459   3.930 -0.2537 -0.0675  0.5971
 9665TIP3    H150486   5.472   1.538   3.917 -0.5498  0.6439  3.1251
 9665TIP3    H250487   5.378   1.472   4.015 -2.4570 -1.7874 -0.1212
 9666TIP3   OH250488   4.861   4.337   5.654 -0.1930 -0.1356  0.2369
 9666TIP3    H150489   4.842   4.343   5.748 -0.2757 -1.9833  0.3644
 9666TIP3    H250490   4.775   4.334   5.612 -0.1726 -1.0201  0.2444
 9667TIP3   OH250491   3.506   5.336  14.088 -0.1032  0.3554  0.0250
 9667TIP3    H150492   3.596   5.330  14.122  0.2231  1.7391 -0.5267
 9667TIP3    H250493   3.503   5.271  14.018  0.7048  0.7804 -0.4217
 9668TIP3   OH250494   5.754   4.880   4.180  0.3403  0.5597  0.1488
 9668TIP3    H150495   5.774   4.946   4.114  2.2455  0.1271  0.2263
 9668TIP3    H250496   5.734   4.801   4.129 -0.5014  0.8152  0.0750
 9669TIP3   OH250497   2.025   2.604  15.633  0.0891  0.0863  0.1530
 9669TIP3    H150498   2.078   2.598  15.553  0.9820 -2.3231  0.8201
 9669TIP3    H250499   2.089   2.599  15.704 -0.9163 -2.1519  0.9874
 9670TIP3   OH250500   6.044   0.194   3.878 -0.2431 -0.0817 -0.3416
 9670TIP3    H150501   6.062   0.288   3.884  2.6470 -0.4695 -1.3125
 9670TIP3    H250502   6.019   0.169   3.967  1.0209  1.2604  0.4324
 9671TIP3   OH250503   4.406   6.714   3.586  0.3954 -0.6140 -0.0938
 9671TIP3    H150504   4.311   6.712   3.595  0.4178 -1.3145  0.0371
 9671TIP3    H250505   4.423   6.791   3.532 -0.0620  0.8758  1.8031
 9672TIP3   OH250506   5.453   3.188   0.687  0.5936 -0.5060  0.6065
 9672TIP3    H150507   5.402   3.111   0.714  0.6552 -0.6420  0.3445
 9672TIP3    H250508   5.542   3.154   0.676  0.3034 -0.8097 -1.2132
 9673TIP3   OH250509   0.700   3.400   0.501  0.4121 -0.2336  0.0694
 9673TIP3    H150510   0.698   3.493   0.480 -0.3870 -0.4589 -0.9540
 9673TIP3    H250511   0.789   3.384   0.532  1.0490  0.5617 -1.2427
 9674TIP3   OH250512   5.832   5.961   0.091 -0.1283 -0.2075 -0.2917
 9674TIP3    H150513   5.882   5.917   0.023  0.9645  0.5942 -0.0297
 9674TIP3    H250514   5.860   6.053   0.087  0.0070 -0.1449  1.2555
 9675TIP3   OH250515   0.466   1.074  11.126 -0.6128  0.4435  0.4371
 9675TIP3    H150516   0.378   1.110  11.119  0.0054  1.8094 -0.9231
 9675TIP3    H250517   0.523   1.146  11.100  1.2318  0.8976  4.7884
 9676TIP3   OH250518   2.921   6.441   6.244 -0.5202  0.3972  0.2394
 9676TIP3    H150519   2.986   6.378   6.215 -2.3415 -1.0070 -1.0653
 9676TIP3    H250520   2.971   6.515   6.277  1.7367  0.1612 -2.3626
 9677TIP3   OH250521   4.782   5.282   3.837  0.0917 -0.0886 -0.1929
 9677TIP3    H150522   4.807   5.366   3.875 -0.7990  0.3679 -0.5906
 9677TIP3    H250523   4.690   5.293   3.812  0.7153 -0.2474 -2.8030
 9678TIP3   OH250524   3.672   4.754   1.566 -0.4000  0.2352  0.1015
 9678TIP3    H150525   3.626   4.677   1.602 -1.5093 -0.5686 -2.7847
 9678TIP3    H250526   3.603   4.818   1.551  0.4104  1.5648  1.6948
 9679TIP3   OH250527   0.785   6.770   1.746  0.1944  0.7464 -0.8055
 9679TIP3    H150528   0.702   6.814   1.759 -0.1963  0.5760 -2.5112
 9679TIP3    H250529   0.840   6.801   1.818 -1.4716  0.4496  0.6647
 9680TIP3   OH250530   6.648   2.128  14.054  0.4725  0.1417 -0.2510
 9680TIP3    H150531   6.641   2.210  14.103 -0.0290 -1.1405  1.9714
 9680TIP3    H250532   6.560   2.090  14.060  0.4761 -0.2293 -1.9593
 9681TIP3   OH250533   0.093   2.099  14.311  0.4733 -0.3052 -0.5193
 9681TIP3    H150534   0.164   2.090  14.248 -0.2871  0.4034 -1.5299
 9681TIP3    H250535   0.038   2.023  14.297  1.0727 -0.9170  0.3482
 9682TIP3   OH250536   6.747   1.199   2.584  0.7639  0.7173 -0.2608
 9682TIP3    H150537   6.765   1.237   2.670  0.0782  1.8732 -0.6066
 9682TIP3    H250538   6.655   1.219   2.567  1.0701  1.1276 -1.5567
 9683TIP3   OH250539   4.654   3.268  12.220  0.3693 -0.5298 -0.5452
 9683TIP3    H150540   4.691   3.187  12.185 -1.5188 -1.6894  0.0110
 9683TIP3    H250541   4.698   3.280  12.304 -1.8865 -3.1205  1.1886
 9684TIP3   OH250542   0.575   5.741  13.566 -0.0593 -0.6354  0.3383
 9684TIP3    H150543   0.576   5.827  13.524 -2.5280 -0.2978  0.8358
 9684TIP3    H250544   0.630   5.686  13.510  0.7732  1.0092 -0.5279
 9685TIP3   OH250545   4.728   2.534   6.377  0.5463  0.2877 -0.8582
 9685TIP3    H150546   4.663   2.478   6.420  0.5484 -0.7703 -2.1494
 9685TIP3    H250547   4.782   2.569   6.448  0.3124 -1.0748  0.0125
 9686TIP3   OH250548   2.635   1.200   5.175 -0.2059 -0.2111  0.2807
 9686TIP3    H150549   2.658   1.179   5.084  0.7660 -1.9121  0.8714
 9686TIP3    H250550   2.651   1.118   5.222  0.2570  0.9300  2.1730
 9687TIP3   OH250551   2.820   3.552  12.907  0.2614  0.5237  0.5192
 9687TIP3    H150552   2.752   3.571  12.972 -2.1299  0.0713 -1.6737
 9687TIP3    H250553   2.886   3.620  12.921 -1.0770  1.5657  2.1846
 9688TIP3   OH250554   3.244   5.670  15.183  0.1880  0.3213 -0.7601
 9688TIP3    H150555   3.161   5.628  15.161  1.0769 -0.5747 -2.5595
 9688TIP3    H250556   3.289   5.681  15.099  1.8425  0.9073  0.1587
 9689TIP3   OH250557   6.423   5.276   4.526  0.5704  0.3714  0.2953
 9689TIP3    H150558   6.464   5.289   4.611 -0.1013 -0.6121  0.7829
 9689TIP3    H250559   6.394   5.185   4.527  0.2016  0.4628 -0.8338
 9690TIP3   OH250560   4.693   0.723  16.123  0.2667  0.1130 -0.4837
 9690TIP3    H150561   4.719   0.815  16.124  2.3541 -0.4254  0.3297
 9690TIP3    H250562   4.617   0.718  16.180 -0.6770  1.5096 -1.5484
 9691TIP3   OH250563   6.566   3.660  14.988  0.2419  0.1122 -0.6360
 9691TIP3    H150564   6.546   3.622  14.903 -0.3868 -0.6396 -0.1596
 9691TIP3    H250565   6.482   3.694  15.020  0.3381 -0.2038 -0.0303
 9692TIP3   OH250566   3.980   0.487   2.600  0.5781  0.2088 -0.5859
 9692TIP3    H150567   4.028   0.495   2.518  0.7482  0.9876 -0.4166
 9692TIP3    H250568   4.045   0.460   2.665  0.7872  1.1889 -0.3727
 9693TIP3   OH250569   4.053   1.043  13.557  0.3839  0.2036 -0.1924
 9693TIP3    H150570   4.031   1.033  13.464  1.5418  4.6924 -1.2054
 9693TIP3    H250571   3.969   1.051  13.601 -0.1612 -0.4638 -1.0716
 9694TIP3   OH250572   5.960   1.086   4.144  0.0113  0.3903 -0.0323
 9694TIP3    H150573   5.983   0.994   4.148 -0.8676  0.1400 -0.4408
 9694TIP3    H250574   6.000   1.118   4.064 -0.9600 -0.0300 -0.7132
 9695TIP3   OH250575   0.408   1.095  13.588 -0.1759 -0.2049 -0.3449
 9695TIP3    H150576   0.498   1.067  13.603  0.6768  2.3003 -0.2110
 9695TIP3    H250577   0.410   1.140  13.503 -1.6015 -1.1944 -0.9408
 9696TIP3   OH250578   4.130   1.423   1.682  0.5929  0.2726  0.4090
 9696TIP3    H150579   4.172   1.350   1.728 -0.6298 -0.0923  0.9970
 9696TIP3    H250580   4.176   1.500   1.713  0.9517 -0.1325  0.9006
 9697TIP3   OH250581   4.707   5.219   3.223 -0.0995  0.2606  0.6762
 9697TIP3    H150582   4.746   5.303   3.246 -2.3004  1.1291  1.5823
 9697TIP3    H250583   4.614   5.239   3.210 -0.3066 -1.6579 -1.3745
 9698TIP3   OH250584   5.285   3.232  14.084  0.6260 -0.1541  0.5074
 9698TIP3    H150585   5.266   3.138  14.087 -2.2080  0.3200  0.1837
 9698TIP3    H250586   5.333   3.249  14.165 -0.8266 -1.5273  1.7347
 9699TIP3   OH250587   1.892   6.414  16.871  0.0004 -0.0242 -0.5040
 9699TIP3    H150588   1.804   6.392  16.842 -0.2568  1.5991 -1.0313
 9699TIP3    H250589   1.914   6.345  16.934 -1.3811 -0.8086 -0.8388
 9700TIP3   OH250590   5.680   6.288  16.539  0.2257  0.3416  0.2953
 9700TIP3    H150591   5.697   6.328  16.453  0.7454  0.8877  0.6418
 9700TIP3    H250592   5.624   6.214  16.520 -0.1046  0.7717 -0.4655
 9701TIP3   OH250593   4.712   0.482   3.198 -0.3836 -0.3415 -0.1571
 9701TIP3    H150594   4.668   0.397   3.206  1.6220 -1.5346 -0.9173
 9701TIP3    H250595   4.715   0.516   3.287 -1.6557 -0.8046  0.0883
 9702TIP3   OH250596   0.085   5.974   0.898  0.0887  0.1282 -0.4758
 9702TIP3    H150597   0.144   6.010   0.832  1.3702 -1.7654 -0.4448
 9702TIP3    H250598   0.002   5.960   0.852  0.8030 -0.6795 -1.5724
 9703TIP3   OH250599   4.499   3.386  15.217  0.1092  0.1247 -0.0891
 9703TIP3    H150600   4.559   3.460  15.220  1.2049 -0.7589  0.2776
 9703TIP3    H250601   4.555   3.309  15.206 -0.8783 -0.8014  1.0585
 9704TIP3   OH250602   0.544   4.537  12.530 -0.3316 -0.1286 -0.4854
 9704TIP3    H150603   0.631   4.557  12.565 -0.5041 -0.3157  0.0554
 9704TIP3    H250604   0.507   4.622  12.508 -0.6705  0.0979  0.8712
 9705TIP3   OH250605   2.848   1.395   6.235 -0.9453 -0.3268  0.1397
 9705TIP3    H150606   2.930   1.418   6.191 -0.7800 -0.3135  0.4508
 9705TIP3    H250607   2.869   1.316   6.284 -0.5341  0.8075  1.8810
 9706TIP3   OH250608   5.298   3.419   2.338  0.2794  0.0958  0.2724
 9706TIP3    H150609   5.247   3.405   2.418 -0.6652  0.1343 -0.3035
 9706TIP3    H250610   5.232   3.428   2.269  1.0858 -0.4213 -0.5907
 9707TIP3   OH250611   2.458   1.025  12.255 -0.7369  0.5434  0.2076
 9707TIP3    H150612   2.551   1.023  12.278 -0.4211  0.7009 -1.0167
 9707TIP3    H250613   2.425   0.938  12.281 -0.1887  0.3839  0.3816
 9708TIP3   OH250614   4.051   5.985  14.923 -0.1699 -0.5285  1.0749
 9708TIP3    H150615   3.976   5.926  14.937  0.4845 -1.1414  2.2149
 9708TIP3    H250616   4.026   6.065  14.970 -0.7529 -0.1488  0.1402
 9709TIP3   OH250617   2.755   2.422   0.787  0.1107  0.7432 -0.2018
 9709TIP3    H150618   2.781   2.368   0.712  2.9369  0.7887  0.5967
 9709TIP3    H250619   2.732   2.359   0.855  0.2678  0.6119 -0.2682
 9710TIP3   OH250620   6.671   0.141   5.525  0.0679 -0.9152  0.5088
 9710TIP3    H150621   6.766   0.143   5.533  0.1828 -1.1730 -0.5902
 9710TIP3    H250622   6.652   0.056   5.483 -0.3478  0.4436 -2.2853
 9711TIP3   OH250623   1.909   6.614  12.697 -0.2534  0.2094 -0.7365
 9711TIP3    H150624   1.897   6.692  12.642 -1.3372  0.3831 -0.2804
 9711TIP3    H250625   1.846   6.551  12.662  0.4098 -0.3652 -0.9093
 9712TIP3   OH250626   2.467   1.735   0.771  0.0627  0.1649  0.1084
 9712TIP3    H150627   2.516   1.733   0.689 -0.4767  0.6393 -0.2283
 9712TIP3    H250628   2.534   1.733   0.839  0.5875  1.5354 -0.3439
 9713TIP3   OH250629   3.706   3.417   4.038 -0.0350 -0.0792  0.9437
 9713TIP3    H150630   3.622   3.387   4.070 -0.0160 -2.3610 -0.9273
 9713TIP3    H250631   3.770   3.386   4.103 -0.4459 -0.0517  1.3619
 9714TIP3   OH250632   6.137   5.248   0.700  0.7007 -0.4712  0.0419
 9714TIP3    H150633   6.149   5.183   0.770  0.0251 -0.7525 -0.0948
 9714TIP3    H250634   6.095   5.199   0.629  1.2646 -0.1600 -0.5204
 9715TIP3   OH250635   6.624   3.390  11.159  0.6828  0.0237  0.5075
 9715TIP3    H150636   6.705   3.338  11.161  0.8450  0.1236 -1.5590
 9715TIP3    H250637   6.590   3.378  11.071 -0.9557  0.9395  0.9784
 9716TIP3   OH250638   1.988   0.759   3.263 -0.2613  0.3626 -0.8147
 9716TIP3    H150639   2.074   0.801   3.260 -0.2531  0.4910  0.5120
 9716TIP3    H250640   1.958   0.758   3.172  1.8964 -1.2859 -1.5922
 9717TIP3   OH250641   2.493   5.396  12.186  0.0561 -0.1173  0.0790
 9717TIP3    H150642   2.528   5.478  12.150  0.6893 -0.7074 -0.6925
 9717TIP3    H250643   2.407   5.387  12.145 -0.6485  0.8741  1.2750
 9718TIP3   OH250644   0.668   0.985   0.507  0.3093  0.3361  0.1647
 9718TIP3    H150645   0.746   0.987   0.452  0.0869 -0.3421 -0.1785
 9718TIP3    H250646   0.702   0.985   0.597  0.6655  3.0909  0.1195
 9719TIP3   OH250647   2.781   4.081  15.076  0.1588  0.5015  0.0855
 9719TIP3    H150648   2.796   4.052  15.166 -2.7849 -1.7279  0.0151
 9719TIP3    H250649   2.810   4.008  15.021 -3.0207 -0.6378 -0.3512
 9720TIP3   OH250650   0.058   5.803  15.981 -0.0555  0.1562  0.1643
 9720TIP3    H150651   0.041   5.833  16.070  1.9090 -1.0559  1.0327
 9720TIP3    H250652   0.018   5.869  15.925  0.3678  2.0422  1.9477
 9721TIP3   OH250653   4.747   3.173  16.919 -0.4622 -0.0598  0.5153
 9721TIP3    H150654   4.683   3.114  16.960  0.6249 -1.4230  0.3027
 9721TIP3    H250655   4.724   3.172  16.826 -0.5009 -0.0661  0.5246
 9722TIP3   OH250656   4.437   2.760   1.450 -0.1218 -0.1836 -0.0821
 9722TIP3    H150657   4.473   2.726   1.532  0.6087  1.8828  0.5176
 9722TIP3    H250658   4.489   2.717   1.382  1.5011  0.4636  0.6819
 9723TIP3   OH250659   3.493   6.636  15.809 -0.3108  0.2583  0.0354
 9723TIP3    H150660   3.479   6.615  15.901 -0.2430  0.6772  0.1435
 9723TIP3    H250661   3.416   6.687  15.784 -0.2966  0.2025 -0.1222
 9724TIP3   OH250662   1.336   4.861  12.553  0.3976  0.1455 -0.2661
 9724TIP3    H150663   1.384   4.942  12.570  1.4167 -0.2944 -0.9511
 9724TIP3    H250664   1.382   4.821  12.479  0.0649 -1.1843  0.2187
 9725TIP3   OH250665   5.472   5.530  12.381 -0.4061 -0.7637  0.5785
 9725TIP3    H150666   5.436   5.617  12.397  0.3064 -0.7906  2.5926
 9725TIP3    H250667   5.427   5.473  12.443 -2.0284 -2.2272 -1.7617
 9726TIP3   OH250668   3.972   2.628   0.719  0.2865  0.3022  0.7237
 9726TIP3    H150669   3.932   2.602   0.802  0.8636  1.2871  1.3315
 9726TIP3    H250670   3.974   2.724   0.722 -1.5386  0.5061 -1.3200
 9727TIP3   OH250671   5.412   5.629   6.237 -0.6469  0.0651 -0.0105
 9727TIP3    H150672   5.401   5.642   6.143 -0.6505  1.3890  0.1521
 9727TIP3    H250673   5.479   5.692   6.263  2.2758 -2.8826  0.2743
 9728TIP3   OH250674   4.416   5.271   3.597 -0.0270 -0.1895  0.1997
 9728TIP3    H150675   4.396   5.206   3.529  0.7967 -0.8292  0.5420
 9728TIP3    H250676   4.484   5.326   3.558 -0.5889  0.3452 -0.0201
 9729TIP3   OH250677   5.965   2.757  15.040  0.3776 -0.2442  0.2343
 9729TIP3    H150678   5.999   2.725  15.123  1.6940 -0.5145 -0.3761
 9729TIP3    H250679   5.890   2.701  15.021 -0.8766  0.7591  1.9230
 9730TIP3   OH250680   4.271   2.166   0.132 -0.0424 -0.0941 -0.0095
 9730TIP3    H150681   4.233   2.254   0.139  0.9835  0.4288 -0.7047
 9730TIP3    H250682   4.255   2.141   0.041  1.0252  0.0419 -0.2552
 9731TIP3   OH250683   6.534   2.072  13.541 -0.4982  0.8110  0.2667
 9731TIP3    H150684   6.560   1.980  13.540  0.7154  1.1339 -0.3166
 9731TIP3    H250685   6.471   2.079  13.613 -0.4642 -0.4302  0.4356
 9732TIP3   OH250686   4.436   4.144   6.199  0.3338 -0.1273 -0.3957
 9732TIP3    H150687   4.364   4.082   6.212 -2.2127  2.4632 -1.1910
 9732TIP3    H250688   4.429   4.205   6.271  0.2491  1.4591 -1.6972
 9733TIP3   OH250689   3.194   2.213  15.928 -0.2012  0.8391  0.0233
 9733TIP3    H150690   3.134   2.227  15.855 -0.6154 -0.4146  0.0958
 9733TIP3    H250691   3.277   2.188  15.887  0.0236  1.6690 -0.0483
 9734TIP3   OH250692   3.943   5.826  10.825 -0.0440 -0.1210 -0.4092
 9734TIP3    H150693   4.029   5.838  10.786  0.2276 -1.2892 -0.2238
 9734TIP3    H250694   3.944   5.880  10.904 -0.1073  1.1792 -1.2643
 9735TIP3   OH250695   4.273   6.017  16.056 -0.4777 -0.3077 -0.0511
 9735TIP3    H150696   4.269   6.032  16.150 -0.8070 -0.6095 -0.0102
 9735TIP3    H250697   4.308   6.098  16.020  1.2913 -0.7972  0.4815
 9736TIP3   OH250698   1.072   4.976  14.882  0.3244  0.0460  0.4694
 9736TIP3    H150699   1.032   4.889  14.879  0.3018  0.0715 -0.2638
 9736TIP3    H250700   1.099   4.988  14.973 -0.6462 -0.2872  0.8054
 9737TIP3   OH250701   3.732   4.054  11.493  0.2704  0.5663 -0.3152
 9737TIP3    H150702   3.676   4.129  11.472 -0.8066  0.6272  2.3849
 9737TIP3    H250703   3.798   4.089  11.553 -2.1307 -0.9864  3.6723
 9738TIP3   OH250704   3.250   3.693   3.517  0.3665 -0.3143  0.6255
 9738TIP3    H150705   3.267   3.753   3.589 -1.1838 -0.5832  1.2610
 9738TIP3    H250706   3.333   3.688   3.469  0.9759  1.0713  1.4820
 9739TIP3   OH250707   4.908   0.060   4.337 -0.7854  0.1436 -0.1339
 9739TIP3    H150708   4.828   0.087   4.292 -0.1688  0.3976 -1.0923
 9739TIP3    H250709   4.935  -0.020   4.292 -1.0150 -0.4978  0.8245
 9740TIP3   OH250710   4.973   6.383   0.070 -0.1251 -0.4139 -0.2442
 9740TIP3    H150711   5.028   6.336   0.006 -1.2401  0.3581 -1.8083
 9740TIP3    H250712   5.004   6.473   0.067 -1.5683  0.0718 -1.2820
 9741TIP3   OH250713   1.817   4.399  15.127  0.3945 -0.6298 -0.8216
 9741TIP3    H150714   1.901   4.365  15.095  0.3590 -0.1102 -1.4876
 9741TIP3    H250715   1.762   4.322  15.138  1.4211 -1.1602  1.0795
 9742TIP3   OH250716   6.190   6.018  15.253 -0.5575  0.0031 -0.2605
 9742TIP3    H150717   6.228   5.966  15.324 -0.5528 -0.6498 -0.7309
 9742TIP3    H250718   6.247   6.095  15.247 -0.0582 -0.3452 -0.1033
 9743TIP3   OH250719   2.880   5.545  13.961 -0.0910 -0.1897 -0.0057
 9743TIP3    H150720   2.877   5.628  14.008  1.8236  0.1328 -0.3522
 9743TIP3    H250721   2.829   5.485  14.015 -2.4336  1.4133 -0.2978
 9744TIP3   OH250722   4.768   0.154  12.584 -0.4453 -0.5693  0.0958
 9744TIP3    H150723   4.843   0.119  12.632 -0.8568 -1.6272 -0.0023
 9744TIP3    H250724   4.792   0.148  12.492  0.4744  1.7604  0.1029
 9745TIP3   OH250725   1.148   3.083  13.798 -0.0957 -0.0367 -0.2976
 9745TIP3    H150726   1.077   3.114  13.742 -0.3770 -0.7543 -0.3557
 9745TIP3    H250727   1.202   3.029  13.740 -2.0314 -3.3185  0.6871
 9746TIP3   OH250728   2.960   6.016   0.024 -0.5428  0.2341 -0.5169
 9746TIP3    H150729   3.042   5.990   0.065 -1.6118 -0.9405  0.9777
 9746TIP3    H250730   2.974   6.001  -0.070  0.6915 -0.6481 -0.2156
 9747TIP3   OH250731   5.719   4.206   2.657  0.4028 -0.1888  0.4167
 9747TIP3    H150732   5.696   4.195   2.565 -0.6407  1.4246  0.4266
 9747TIP3    H250733   5.783   4.278   2.657 -0.7114  0.8509  1.0180
 9748TIP3   OH250734   0.233   3.654  11.462 -0.3346 -0.8449 -0.4560
 9748TIP3    H150735   0.199   3.731  11.506  1.5171  0.2279 -0.7671
 9748TIP3    H250736   0.157   3.599  11.446 -1.6983  0.8681 -0.1289
 9749TIP3   OH250737   2.223   5.846   4.150 -0.0159  0.3276 -0.9373
 9749TIP3    H150738   2.194   5.785   4.218 -0.3710  1.8532  0.3460
 9749TIP3    H250739   2.316   5.830   4.141 -0.0986 -0.3688 -0.5819
 9750TIP3   OH250740   4.405   5.106  14.690 -0.1495  0.3347  0.4737
 9750TIP3    H150741   4.436   5.020  14.665  0.6278  0.4557  0.9780
 9750TIP3    H250742   4.456   5.129  14.768 -1.6259  0.4740  1.4527
 9751TIP3   OH250743   4.555   6.251  14.526 -0.2489  0.2219  0.0924
 9751TIP3    H150744   4.521   6.284  14.610  1.9236 -0.5197  1.3427
 9751TIP3    H250745   4.521   6.162  14.520 -1.4465  0.6841 -0.4998
 9752TIP3   OH250746   1.407   1.511   5.270  0.0690  0.7944  0.1070
 9752TIP3    H150747   1.353   1.443   5.228 -0.4444  0.6104  1.0444
 9752TIP3    H250748   1.379   1.592   5.228 -0.8288  0.6788  0.4490
 9753TIP3   OH250749   3.545   2.996   0.102 -0.4239  0.3595 -1.1624
 9753TIP3    H150750   3.480   3.046   0.151 -0.8367 -0.6699 -0.6171
 9753TIP3    H250751   3.517   2.905   0.111  1.3663 -0.1805 -0.4759
 9754TIP3   OH250752   6.341   6.352   1.763 -0.4024 -0.6086  0.0835
 9754TIP3    H150753   6.314   6.438   1.798 -1.8334 -0.9818 -0.0198
 9754TIP3    H250754   6.268   6.327   1.705  1.7387 -0.0971 -3.0942
 9755TIP3   OH250755   2.052   1.989  16.115  0.2394 -0.4028  0.1486
 9755TIP3    H150756   2.044   1.924  16.045  0.7399 -0.1884 -0.1120
 9755TIP3    H250757   2.141   1.977  16.148 -0.0778 -0.6819  0.9375
 9756TIP3   OH250758   6.022   6.219  16.512 -0.5384  0.4425  0.1809
 9756TIP3    H150759   5.970   6.299  16.514 -0.1350  0.8333 -2.1399
 9756TIP3    H250760   6.089   6.232  16.580 -1.9431  0.9525  1.5301
 9757TIP3   OH250761   6.469   5.373  15.640  0.3978 -0.4731  0.2182
 9757TIP3    H150762   6.453   5.451  15.692  1.0771 -0.2806  0.1444
 9757TIP3    H250763   6.398   5.372  15.575  1.6946  1.4145 -1.3419
 9758TIP3   OH250764   1.500   5.281  14.150  0.3148 -0.5264  0.1016
 9758TIP3    H150765   1.511   5.242  14.063 -0.7953  0.6180 -0.5854
 9758TIP3    H250766   1.406   5.278  14.165  0.4730 -0.4765  1.1747
 9759TIP3   OH250767   2.654   3.443  11.616 -0.4721 -0.2158 -0.1752
 9759TIP3    H150768   2.699   3.491  11.546 -0.6590 -1.4424 -1.1529
 9759TIP3    H250769   2.719   3.437  11.686  0.1002  0.0384 -0.6758
 9760TIP3   OH250770   2.889   3.781   4.129 -0.2160 -0.5603  0.1123
 9760TIP3    H150771   2.933   3.848   4.181 -0.4270 -0.2775 -0.0684
 9760TIP3    H250772   2.951   3.709   4.124  0.3476 -0.0544 -0.3855
 9761TIP3   OH250773   5.261   5.628   2.904 -0.2931 -0.4585 -0.4440
 9761TIP3    H150774   5.171   5.599   2.891 -0.1066 -0.7819 -1.0148
 9761TIP3    H250775   5.258   5.680   2.985 -1.0705 -0.1092 -0.6922
 9762TIP3   OH250776   3.489   2.059   3.630 -0.4353 -0.1884  0.1663
 9762TIP3    H150777   3.449   2.049   3.544 -0.5027  1.5422 -0.0229
 9762TIP3    H250778   3.512   2.151   3.636  2.2796 -0.8267  0.8334
 9763TIP3   OH250779   1.004   1.146   5.216 -0.4047  0.2097 -0.1271
 9763TIP3    H150780   0.926   1.133   5.162 -0.1417  1.2487 -0.7792
 9763TIP3    H250781   0.986   1.226   5.267 -0.0230  0.1020  0.1868
 9764TIP3   OH250782   0.113   3.407   2.996  0.0226 -0.3434 -0.1397
 9764TIP3    H150783   0.021   3.381   2.996  0.3372 -1.8119  2.5247
 9764TIP3    H250784   0.149   3.367   2.917 -1.2266 -1.3857 -0.2126
 9765TIP3   OH250785   6.472   3.767   0.131  0.9632  0.4149  0.0092
 9765TIP3    H150786   6.428   3.709   0.069  0.4123  0.1825  0.6014
 9765TIP3    H250787   6.401   3.822   0.166  1.4344  1.2709 -0.3529
 9766TIP3   OH250788   1.892   1.538  12.230 -0.2974  0.2643 -0.0146
 9766TIP3    H150789   1.906   1.473  12.298  0.3251  1.1760  0.7471
 9766TIP3    H250790   1.977   1.581  12.219 -0.6987  0.9609 -0.4917
 9767TIP3   OH250791   1.104   1.928  13.414 -0.4838 -0.3012 -0.0104
 9767TIP3    H150792   1.072   1.840  13.394  0.3849 -0.5976 -0.1032
 9767TIP3    H250793   1.080   1.980  13.337 -1.6564 -0.2728  0.3557
 9768TIP3   OH250794   1.847   5.371  12.082  0.0275 -0.1135 -0.4670
 9768TIP3    H150795   1.879   5.346  11.996  0.4885  0.4060 -0.4534
 9768TIP3    H250796   1.920   5.352  12.141 -0.6700 -1.5044 -0.0133
 9769TIP3   OH250797   0.413   6.564  15.901  0.2101  0.3220 -0.1340
 9769TIP3    H150798   0.402   6.564  15.996 -1.3405  2.1637 -0.2530
 9769TIP3    H250799   0.508   6.555  15.888  0.4276 -0.1212  1.5599
 9770TIP3   OH250800   3.270   6.729   6.097 -0.1156 -0.5763  0.0683
 9770TIP3    H150801   3.361   6.750   6.076 -0.2381  0.0416  0.1448
 9770TIP3    H250802   3.218   6.788   6.043 -0.4523 -0.1773  0.8026
 9771TIP3   OH250803   1.325   0.006  16.533  0.0361  0.1664 -0.0875
 9771TIP3    H150804   1.368   0.067  16.472  0.5416 -1.8030 -1.8246
 9771TIP3    H250805   1.377   0.013  16.614  1.7033  0.1704 -1.1054
 9772TIP3   OH250806   2.416   1.705   2.400 -0.1593  0.4705 -0.2373
 9772TIP3    H150807   2.362   1.630   2.424  1.0813 -0.7803 -1.2618
 9772TIP3    H250808   2.378   1.778   2.450 -0.8702 -0.9694  1.4408
 9773TIP3   OH250809   1.883   2.529   3.650 -0.0476 -0.0402  0.2354
 9773TIP3    H150810   1.901   2.498   3.739  0.0236  0.5064  0.4143
 9773TIP3    H250811   1.892   2.451   3.595  1.0509 -0.1584  0.5593
 9774TIP3   OH250812   1.825   0.873   3.447 -0.1958 -0.2594  0.5003
 9774TIP3    H150813   1.881   0.835   3.379  0.3233  2.1695 -0.5346
 9774TIP3    H250814   1.751   0.911   3.398 -0.5249  0.3287  1.4287
 9775TIP3   OH250815   6.286   0.161   4.846  0.1309 -0.7569  0.3330
 9775TIP3    H150816   6.364   0.196   4.888  0.2648  0.5789 -0.9660
 9775TIP3    H250817   6.299   0.066   4.846  2.7707 -0.5114 -1.7064
 9776TIP3   OH250818   3.288   4.218   1.409  0.1522 -0.2649  0.2612
 9776TIP3    H150819   3.248   4.290   1.360  0.2989  0.4089  1.1078
 9776TIP3    H250820   3.360   4.189   1.354  1.4489  1.6807  0.8558
 9777TIP3   OH250821   5.054   4.573   5.524 -0.3808  0.4996 -0.3901
 9777TIP3    H150822   5.143   4.563   5.492 -0.2397 -0.6402  0.3216
 9777TIP3    H250823   5.053   4.529   5.609 -1.8449 -0.3098 -0.7851
 9778TIP3   OH250824   2.761   3.739   2.453 -0.4146  0.6926  0.1414
 9778TIP3    H150825   2.703   3.797   2.404  0.3348  1.5789  0.2671
 9778TIP3    H250826   2.847   3.781   2.447  0.7055 -1.5922 -1.7934
 9779TIP3   OH250827   2.229   6.614   4.714 -0.1751 -0.2306  0.2729
 9779TIP3    H150828   2.183   6.689   4.752 -0.1622  0.4876 -1.0698
 9779TIP3    H250829   2.173   6.539   4.733 -0.3936  0.1770  1.2828
 9780TIP3   OH250830   4.978   5.841   3.562 -0.1154 -1.2907  0.7227
 9780TIP3    H150831   4.967   5.762   3.615  1.3216 -0.8296  1.7484
 9780TIP3    H250832   5.065   5.874   3.585  0.6468 -1.1258 -2.0175
 9781TIP3   OH250833   0.696   3.750   4.190  0.3543  0.0125  0.7113
 9781TIP3    H150834   0.706   3.656   4.175 -1.3172  0.1618 -1.8071
 9781TIP3    H250835   0.699   3.759   4.286  0.2256 -2.6169  1.0312
 9782TIP3   OH250836   5.005   5.456   0.830  0.0248  0.0318 -0.3024
 9782TIP3    H150837   4.985   5.534   0.882  0.2976 -0.1943  0.1539
 9782TIP3    H250838   5.062   5.404   0.887 -0.2890 -0.5781 -0.5318
 9783TIP3   OH250839   3.253   0.844  14.748  0.4825  0.8639  0.2142
 9783TIP3    H150840   3.210   0.788  14.813  0.5781  1.2138  0.5834
 9783TIP3    H250841   3.345   0.818  14.751  0.6047  1.3251  0.6943
 9784TIP3   OH250842   3.478   3.972   0.506 -0.2796  0.0428  0.8890
 9784TIP3    H150843   3.390   3.958   0.542  0.1358 -2.8886  1.0215
 9784TIP3    H250844   3.467   3.960   0.412 -0.2021  0.8709  0.7692
 9785TIP3   OH250845   2.810   2.982  15.769 -0.3713 -0.7250 -0.4751
 9785TIP3    H150846   2.807   2.909  15.707 -0.1276 -1.5791  0.5064
 9785TIP3    H250847   2.819   3.059  15.713 -2.0119 -1.2924 -1.6096
 9786TIP3   OH250848   2.508   0.922   5.589  0.0109 -0.3784 -0.2118
 9786TIP3    H150849   2.507   0.853   5.655  1.8727 -1.0774 -0.8591
 9786TIP3    H250850   2.516   1.003   5.640 -0.6931 -0.7314  0.4912
 9787TIP3   OH250851   5.131   6.649   4.462  0.5644 -0.1513  0.1782
 9787TIP3    H150852   5.191   6.699   4.407  0.5787  0.9510  1.1501
 9787TIP3    H250853   5.184   6.576   4.495  0.9001 -0.1180 -0.2855
 9788TIP3   OH250854   4.903   3.722  12.142 -0.0434 -0.0758 -0.1502
 9788TIP3    H150855   4.955   3.704  12.220 -1.1440 -0.7842  0.4453
 9788TIP3    H250856   4.839   3.650  12.139 -0.7719  0.5914 -1.0365
 9789TIP3   OH250857   6.733   2.615  15.774 -0.3523 -0.4347  0.4102
 9789TIP3    H150858   6.731   2.520  15.769 -1.9775 -0.3860 -1.2554
 9789TIP3    H250859   6.761   2.634  15.864  0.2379 -2.4551  0.7073
 9790TIP3   OH250860   2.629   6.235   1.854  0.2924  0.1675  0.4542
 9790TIP3    H150861   2.569   6.288   1.906  1.3296  0.4532  1.4056
 9790TIP3    H250862   2.638   6.153   1.903 -0.9017 -0.7376 -0.7458
 9791TIP3   OH250863   0.664   4.807   3.479  0.2668 -0.2410  1.1092
 9791TIP3    H150864   0.584   4.755   3.486 -0.6993  1.3362  2.6144
 9791TIP3    H250865   0.708   4.796   3.564  0.3338  0.8947  1.2437
 9792TIP3   OH250866   0.368   6.534   1.208 -0.1956 -0.2906  0.6033
 9792TIP3    H150867   0.385   6.555   1.116 -0.9884  0.2918  0.5851
 9792TIP3    H250868   0.274   6.519   1.213 -0.2195  0.0596  1.3918
 9793TIP3   OH250869   6.224   4.311   3.810 -0.2660 -0.0966 -0.2417
 9793TIP3    H150870   6.212   4.337   3.901  3.3048  0.4964  0.1923
 9793TIP3    H250871   6.313   4.276   3.806 -1.1458 -2.4521 -3.0406
 9794TIP3   OH250872   3.397   4.668  15.147 -0.1169 -0.4933 -0.2683
 9794TIP3    H150873   3.359   4.615  15.218  0.7493 -0.3186  0.3398
 9794TIP3    H250874   3.468   4.614  15.113  1.1351  0.4605  0.7189
 9795TIP3   OH250875   4.081   1.817  14.806  1.1456  0.3156 -0.4339
 9795TIP3    H150876   4.084   1.862  14.722  0.5488  1.5501  0.1766
 9795TIP3    H250877   3.988   1.799  14.821  1.2834 -0.2365 -0.2123
 9796TIP3   OH250878   1.561   1.066  13.505 -0.0167  0.1533 -0.0631
 9796TIP3    H150879   1.631   1.036  13.447  0.6396  0.1379  0.7077
 9796TIP3    H250880   1.602   1.070  13.592 -1.1433 -0.4649  0.5218
 9797TIP3   OH250881   3.787   6.224  14.565  0.5184 -0.0418  0.5430
 9797TIP3    H150882   3.718   6.203  14.503  0.2942 -0.1320  0.8238
 9797TIP3    H250883   3.752   6.201  14.651  0.4863  0.9067  0.8047
 9798TIP3   OH250884   1.862   3.064   5.785  0.4246 -0.1046 -0.2285
 9798TIP3    H150885   1.859   3.097   5.696  1.3800  0.8296  0.0654
 9798TIP3    H250886   1.945   3.016   5.790 -0.2123 -1.2432 -0.1921
 9799TIP3   OH250887   5.231   6.365  13.099  0.4476 -0.3364  0.1800
 9799TIP3    H150888   5.235   6.312  13.178 -0.6840  0.9700  1.1467
 9799TIP3    H250889   5.143   6.351  13.065 -0.0309  1.2514  0.7058
 9800TIP3   OH250890   2.460   6.364   1.068 -0.2752 -0.2968  0.1497
 9800TIP3    H150891   2.540   6.370   1.016  0.4965  1.5039  1.4849
 9800TIP3    H250892   2.490   6.355   1.158 -1.5733  0.1763  0.6487
 9801TIP3   OH250893   4.568   5.660  14.890  0.3202 -0.1536 -0.1617
 9801TIP3    H150894   4.541   5.600  14.960  1.6119  1.1557  1.5302
 9801TIP3    H250895   4.552   5.747  14.925  0.1140  0.5459 -1.8986
 9802TIP3   OH250896   4.727   2.257   2.121 -0.0845 -0.4256  0.2635
 9802TIP3    H150897   4.738   2.275   2.214  1.1792  2.6548 -0.3404
 9802TIP3    H250898   4.633   2.242   2.110 -0.5716  1.1303  1.8064
 9803TIP3   OH250899   5.579   0.167  15.280  0.0153  0.5758 -0.2864
 9803TIP3    H150900   5.602   0.074  15.287  0.7684  0.8088  0.4704
 9803TIP3    H250901   5.646   0.212  15.331  1.5710  1.8345 -3.1863
 9804TIP3   OH250902   5.692   1.140   0.518  0.0997  0.2312 -0.1499
 9804TIP3    H150903   5.721   1.086   0.444  0.1974 -1.8381  1.3216
 9804TIP3    H250904   5.772   1.158   0.567  0.2298  2.6692 -1.1633
 9805TIP3   OH250905   6.369   3.821   4.269 -0.5021  0.1960 -0.4291
 9805TIP3    H150906   6.421   3.741   4.268  0.1441  0.5780  0.7809
 9805TIP3    H250907   6.290   3.798   4.318 -0.6298  0.1168 -0.6716
 9806TIP3   OH250908   6.732   5.954   1.296 -0.1780 -0.1195  0.2240
 9806TIP3    H150909   6.671   5.914   1.233 -0.8790  0.0330  0.7926
 9806TIP3    H250910   6.798   5.886   1.311 -0.9296 -0.7882  0.5963
 9807TIP3   OH250911   3.092   3.305   6.094  0.6634 -0.0482 -0.3974
 9807TIP3    H150912   3.143   3.253   6.031  0.2263 -0.9117 -0.0596
 9807TIP3    H250913   3.139   3.293   6.177  1.2000  1.0321 -0.5302
 9808TIP3   OH250914   0.265   3.982  17.029 -0.6318 -0.3990 -0.1084
 9808TIP3    H150915   0.323   4.058  17.030 -1.4448  0.2437  1.2496
 9808TIP3    H250916   0.186   4.012  16.983 -0.9928 -0.3730  0.5129
 9809TIP3   OH250917   0.993   0.427  15.422 -0.3869  0.3462  0.0928
 9809TIP3    H150918   0.941   0.472  15.489 -0.1158  1.4246 -0.4008
 9809TIP3    H250919   1.077   0.410  15.463 -0.7350 -0.4042  0.5251
 9810TIP3   OH250920   6.220   1.037   0.741 -0.7285  0.5111 -0.9920
 9810TIP3    H150921   6.241   1.068   0.653 -1.6572 -0.8482 -1.7207
 9810TIP3    H250922   6.236   0.942   0.737  0.3957  0.5950  0.6636
 9811TIP3   OH250923   3.760   2.121  16.814  0.1297  0.2582  0.2594
 9811TIP3    H150924   3.699   2.103  16.742  0.0993  1.7292 -0.1279
 9811TIP3    H250925   3.711   2.179  16.872 -0.4129 -2.1339  2.3511
 9812TIP3   OH250926   4.708   1.249   5.714 -0.2493  0.5524  0.1979
 9812TIP3    H150927   4.698   1.175   5.654 -2.0790  1.7908 -1.1192
 9812TIP3    H250928   4.780   1.299   5.678 -1.4310  1.3651 -1.1241
 9813TIP3   OH250929   4.440   1.698  14.635 -0.6795 -0.9447  0.4097
 9813TIP3    H150930   4.373   1.703  14.567  1.0234 -0.8770 -1.3714
 9813TIP3    H250931   4.393   1.670  14.713 -2.7756 -0.8085 -0.7274
 9814TIP3   OH250932   5.277   6.020   2.773 -0.0659  0.5998 -0.2589
 9814TIP3    H150933   5.281   5.935   2.728 -1.5683  0.6194 -0.4714
 9814TIP3    H250934   5.240   6.080   2.707 -0.5148  1.0545  0.3968
 9815TIP3   OH250935   3.088   6.570  10.811  0.2982 -0.3749 -0.1511
 9815TIP3    H150936   3.010   6.515  10.802 -0.5716  0.4957  1.5507
 9815TIP3    H250937   3.100   6.610  10.725 -0.9060 -0.8043 -0.5352
 9816TIP3   OH250938   5.221   2.575   1.179  0.2263  0.4340  0.3505
 9816TIP3    H150939   5.239   2.483   1.198  0.0156  0.5261  1.0033
 9816TIP3    H250940   5.261   2.623   1.251  2.8123  1.0832 -1.3398
 9817TIP3   OH250941   1.034   6.064  11.053  0.0133 -0.0195 -0.9863
 9817TIP3    H150942   1.117   6.083  11.098  0.3269 -0.6354 -1.2927
 9817TIP3    H250943   0.967   6.099  11.111  0.4486 -0.1897 -0.3662
 9818TIP3   OH250944   4.522   6.142   4.769 -0.4423 -0.3634 -0.2551
 9818TIP3    H150945   4.520   6.114   4.861 -1.0418 -0.1478 -0.1955
 9818TIP3    H250946   4.565   6.227   4.770 -0.0331 -0.5683 -0.2350
 9819TIP3   OH250947   1.573   2.661  11.978 -0.3704 -0.0057  0.2687
 9819TIP3    H150948   1.596   2.606  11.903 -0.2698 -1.1515  1.1160
 9819TIP3    H250949   1.624   2.626  12.050 -0.8179  0.7882  0.9889
 9820TIP3   OH250950   2.306   1.198  11.386  0.5368 -0.4960 -0.7586
 9820TIP3    H150951   2.212   1.194  11.371  0.4593 -1.7299 -0.0765
 9820TIP3    H250952   2.345   1.193  11.299 -0.0184 -0.1662 -1.0296
 9821TIP3   OH250953   2.283   2.974  12.807 -0.2872 -0.7817 -0.2667
 9821TIP3    H150954   2.211   3.024  12.845  0.0524 -0.3729 -0.1505
 9821TIP3    H250955   2.262   2.969  12.713 -0.1328 -0.0786 -0.3475
 9822TIP3   OH250956   0.799   1.873  13.072 -0.3289 -0.2185  0.0073
 9822TIP3    H150957   0.783   1.928  12.996  1.3320 -0.9119 -0.9066
 9822TIP3    H250958   0.853   1.927  13.130 -0.9885  0.0561  0.3718
 9823TIP3   OH250959   3.355   5.687  16.586 -0.0922 -0.4033  0.0282
 9823TIP3    H150960   3.308   5.770  16.591  2.8869  1.5984 -1.4713
 9823TIP3    H250961   3.322   5.646  16.506 -0.0592  0.4651 -0.4478
 9824TIP3   OH250962   6.252   5.962  11.473 -0.4286 -0.1722 -0.3778
 9824TIP3    H150963   6.297   5.982  11.391 -1.8483  1.2661 -0.8425
 9824TIP3    H250964   6.207   5.879  11.455  2.2517 -1.8638  0.2335
 9825TIP3   OH250965   4.902   1.331  12.793  0.5032  0.2190  0.2277
 9825TIP3    H150966   4.874   1.369  12.710 -1.9603 -0.7064  0.5594
 9825TIP3    H250967   4.951   1.252  12.768  0.5421  0.4223 -0.3489
 9826TIP3   OH250968   2.637   3.100  11.903 -0.2438  0.1663  0.3502
 9826TIP3    H150969   2.614   3.143  11.985  1.8054  1.1926  0.4678
 9826TIP3    H250970   2.554   3.086  11.859 -1.1842  2.8387  1.0486
 9827TIP3   OH250971   2.936   1.825  16.562 -0.0838  0.3730  0.4916
 9827TIP3    H150972   2.922   1.809  16.655  0.5839 -1.3435  0.3431
 9827TIP3    H250973   3.012   1.771  16.540  0.6016  1.7816 -0.7736
 9828TIP3   OH250974   5.906   4.945   1.081  0.0905 -0.3538 -0.1335
 9828TIP3    H150975   5.812   4.957   1.062 -0.3365 -1.2116  1.2753
 9828TIP3    H250976   5.943   5.033   1.074 -1.2367  0.3800  1.2879
 9829TIP3   OH250977   2.983   5.385  15.089  0.0404 -0.8413  0.1831
 9829TIP3    H150978   2.960   5.447  15.021  0.9588 -1.4352 -0.6931
 9829TIP3    H250979   3.027   5.438  15.156 -0.2693 -0.3699  0.0193
 9830TIP3   OH250980   5.802   1.516   3.218 -0.2593  0.5196  0.3434
 9830TIP3    H150981   5.712   1.546   3.230 -0.2113  0.6716  0.3275
 9830TIP3    H250982   5.818   1.456   3.291 -0.9442 -0.8544 -0.5930
 9831TIP3   OH250983   0.773   0.940   3.745 -0.3864 -0.1350  0.3782
 9831TIP3    H150984   0.816   0.857   3.725  1.5947  1.1374 -1.0519
 9831TIP3    H250985   0.792   0.957   3.837  2.5173  0.4715 -0.2478
 9832TIP3   OH250986   5.970   2.209  15.965  0.1589 -0.5896  0.4040
 9832TIP3    H150987   5.962   2.148  16.039  0.9303  1.3686  2.2138
 9832TIP3    H250988   6.029   2.277  15.997  0.4210  0.4191 -2.0167
 9833TIP3   OH250989   6.185   6.330  15.455  0.0936  0.1462  0.3087
 9833TIP3    H150990   6.176   6.371  15.369 -0.5452 -1.1676 -0.2767
 9833TIP3    H250991   6.126   6.254  15.452  0.9008 -0.5627  1.5021
 9834TIP3   OH250992   4.493   0.454   1.275  0.5240 -0.2087 -0.6183
 9834TIP3    H150993   4.429   0.497   1.217 -0.1304  1.6175  1.3381
 9834TIP3    H250994   4.565   0.430   1.217 -0.8908 -0.1541 -2.4975
 9835TIP3   OH250995   5.005   3.081   2.235 -0.3207  0.3653  0.0180
 9835TIP3    H150996   5.036   3.053   2.149 -2.6646 -0.8019 -0.5507
 9835TIP3    H250997   4.951   3.158   2.217 -0.1084  0.6409  0.5545
 9836TIP3   OH250998   3.289   2.623  15.576  0.0280 -0.0128  0.1084
 9836TIP3    H150999   3.245   2.670  15.505  0.5376 -1.6457 -1.3716
 9836TIP3    H251000   3.218   2.594  15.633 -0.6636 -0.7711 -1.0870
 9837TIP3   OH251001   0.840   1.013   1.753  0.2833 -0.1768  0.1351
 9837TIP3    H151002   0.841   0.935   1.807 -1.6326 -0.5861 -0.3465
 9837TIP3    H251003   0.881   0.985   1.671 -0.2983 -0.6623  0.0018
 9838TIP3   OH251004   3.662   4.718   2.172 -0.1956  0.0940 -0.5896
 9838TIP3    H151005   3.629   4.788   2.115 -0.0243  1.7832  1.3144
 9838TIP3    H251006   3.584   4.666   2.191 -1.3722  2.4305  1.5864
 9839TIP3   OH251007   6.011   1.386  11.576  0.5527  0.7083  0.4049
 9839TIP3    H151008   6.102   1.414  11.570  0.7308  0.2419  0.8946
 9839TIP3    H251009   5.974   1.440  11.646  0.9586 -0.3953  1.5155
 9840TIP3   OH251010   1.436   4.865  14.675  0.9340  0.1006  0.4261
 9840TIP3    H151011   1.392   4.934  14.626 -0.2275 -1.1489 -0.3746
 9840TIP3    H251012   1.528   4.873  14.651  0.7988  1.2738  0.2506
 9841TIP3   OH251013   2.840   5.312   4.089 -0.0728 -0.3728  0.4585
 9841TIP3    H151014   2.839   5.314   4.184  0.4998 -0.4210  0.4712
 9841TIP3    H251015   2.907   5.247   4.067 -1.6937 -1.9621  0.0173
 9842TIP3   OH251016   0.433   1.162  11.821  0.4543  0.2193  0.1422
 9842TIP3    H151017   0.388   1.233  11.867 -0.1899 -1.7318  2.6856
 9842TIP3    H251018   0.525   1.169  11.849  0.5388  0.4807 -0.1938
 9843TIP3   OH251019   0.294   6.664  14.805  0.7477  0.2029 -0.4102
 9843TIP3    H151020   0.204   6.632  14.799  0.7196  0.1569  0.1892
 9843TIP3    H251021   0.331   6.648  14.718 -0.4286  2.1075 -1.3248
 9844TIP3   OH251022   1.599   0.578  16.189  0.6038 -0.3848 -0.1989
 9844TIP3    H151023   1.590   0.645  16.257 -1.7502  0.0439 -0.8592
 9844TIP3    H251024   1.673   0.607  16.136 -0.6442  1.9924 -0.7537
 9845TIP3   OH251025   1.942   2.382   0.271  0.3592  0.6935  0.6159
 9845TIP3    H151026   2.026   2.371   0.226  0.4936  2.1459  0.4519
 9845TIP3    H251027   1.940   2.475   0.295 -1.1752  0.6708  0.6873
 9846TIP3   OH251028   0.442   5.218  14.294  0.3267 -0.2907  0.3287
 9846TIP3    H151029   0.403   5.304  14.276  0.8414 -0.2291 -0.5251
 9846TIP3    H251030   0.374   5.155  14.272 -0.8206 -0.0838  2.9058
 9847TIP3   OH251031   6.661   6.491  11.929  0.4071 -0.8566 -0.3590
 9847TIP3    H151032   6.713   6.435  11.987  0.2163 -1.0531 -0.3741
 9847TIP3    H251033   6.579   6.503  11.976  1.1699  1.0887  0.5801
 9848TIP3   OH251034   4.035   0.870  11.335 -0.5150  0.6767  0.1136
 9848TIP3    H151035   4.032   0.966  11.333 -0.0969  0.8030  2.6597
 9848TIP3    H251036   4.127   0.850  11.356 -0.5478 -0.3077 -0.6477
 9849TIP3   OH251037   1.395   5.395  13.226 -0.8359  0.1787  0.1225
 9849TIP3    H151038   1.462   5.384  13.158 -1.2743 -2.7392  0.0253
 9849TIP3    H251039   1.418   5.477  13.270  2.5692 -0.5036 -0.1406
 9850TIP3   OH251040   6.253   4.689  10.942 -0.1467 -0.8650  0.1267
 9850TIP3    H151041   6.232   4.596  10.928 -2.0297 -0.7268  1.5624
 9850TIP3    H251042   6.221   4.732  10.863  0.2049 -1.3686 -0.2999
 9851TIP3   OH251043   5.379   4.498   2.843 -0.9414  0.2084 -0.3207
 9851TIP3    H151044   5.284   4.498   2.859 -0.4018 -1.7448  4.5554
 9851TIP3    H251045   5.409   4.413   2.876  2.6711  1.1715 -0.6904
 9852TIP3   OH251046   0.203   1.298   5.966 -0.0291 -0.1824 -0.3380
 9852TIP3    H151047   0.174   1.258   5.884 -0.2824  1.6781 -1.2065
 9852TIP3    H251048   0.122   1.315   6.014  0.1278 -1.4012  0.4008
 9853TIP3   OH251049   2.381   5.911   0.643 -0.2153 -0.4805  0.2941
 9853TIP3    H151050   2.404   5.855   0.717  0.7489  1.0145  1.1775
 9853TIP3    H251051   2.334   5.985   0.682  0.4729  0.4288 -0.5396
 9854TIP3   OH251052   1.133   6.426  15.960 -0.0435  0.1209 -0.2965
 9854TIP3    H151053   1.166   6.513  15.935  1.0639 -0.0755  0.3857
 9854TIP3    H251054   1.204   6.389  16.012 -1.6379 -0.0807  1.8193
 9855TIP3   OH251055   0.618   3.676   6.559  0.0680  0.1431 -0.6610
 9855TIP3    H151056   0.527   3.689   6.587  0.2188 -2.6790  1.5918
 9855TIP3    H251057   0.613   3.605   6.494  0.7005 -0.6289  0.1160
 9856TIP3   OH251058   2.438   4.078   0.807  0.5213 -0.4710 -0.6571
 9856TIP3    H151059   2.496   4.153   0.792 -0.1439  0.4926  1.2625
 9856TIP3    H251060   2.353   4.109   0.778 -0.1925  0.3892  2.0095
 9857TIP3   OH251061   5.771   6.609   5.037  0.6021 -0.0698 -0.0886
 9857TIP3    H151062   5.715   6.620   4.960  1.6518 -0.6793 -0.9611
 9857TIP3    H251063   5.815   6.693   5.047  0.7671 -0.1208 -0.3939
 9858TIP3   OH251064   1.604   3.704   0.982 -0.4186  0.3817 -0.7861
 9858TIP3    H151065   1.657   3.625   0.969 -0.8572  0.2912 -2.2195
 9858TIP3    H251066   1.535   3.678   1.043  1.4446  0.6513  1.5662
 9859TIP3   OH251067   4.063   0.399  11.827  0.3230 -0.5646 -0.4286
 9859TIP3    H151068   4.054   0.342  11.751  0.2526  2.2088 -2.6267
 9859TIP3    H251069   4.056   0.488  11.793  0.8188  0.8593  2.7594
 9860TIP3   OH251070   0.991   3.632  15.225  0.4775  0.5144 -0.8779
 9860TIP3    H151071   1.024   3.636  15.135 -2.6133  0.3560 -2.1107
 9860TIP3    H251072   0.918   3.694  15.227  0.3491  0.3975  1.5230
 9861TIP3   OH251073   2.467   0.688  11.345 -0.3964  0.0249  0.2381
 9861TIP3    H151074   2.413   0.766  11.361 -0.7362 -0.1405 -0.0825
 9861TIP3    H251075   2.498   0.698  11.255 -1.0138 -0.5420 -0.0517
 9862TIP3   OH251076   6.175   3.692   3.990  0.6239  0.0164  0.1798
 9862TIP3    H151077   6.132   3.776   4.008 -0.9909 -0.6932 -0.1452
 9862TIP3    H251078   6.143   3.634   4.058 -0.1985 -0.9336 -0.9674
 9863TIP3   OH251079   6.291   0.360  10.906 -0.2630  0.1288  0.1507
 9863TIP3    H151080   6.295   0.384  10.814 -1.5828 -0.4648 -0.0727
 9863TIP3    H251081   6.371   0.397  10.944 -1.6099  4.0362 -0.3663
 9864TIP3   OH251082   5.926   6.156  15.208  0.1810  0.5224  0.6143
 9864TIP3    H151083   5.994   6.095  15.180 -0.2583  0.1851  0.2623
 9864TIP3    H251084   5.952   6.240  15.170  0.5959  0.4777  0.7954
 9865TIP3   OH251085   6.645   1.830  15.508 -0.6084 -0.0648 -0.1339
 9865TIP3    H151086   6.740   1.825  15.517 -0.6606 -2.8654 -0.2800
 9865TIP3    H251087   6.626   1.924  15.510  2.0489  0.5520  0.8041
 9866TIP3   OH251088   1.045   4.591   3.021 -0.2997 -0.7905 -0.0471
 9866TIP3    H151089   1.122   4.640   3.052 -0.9748  1.2022 -1.3290
 9866TIP3    H251090   0.983   4.598   3.093 -0.4185  0.3969 -0.2350
 9867TIP3   OH251091   6.318   5.505   4.439  0.2251 -0.2391  0.3143
 9867TIP3    H151092   6.356   5.418   4.447  0.9986  0.1952  1.9349
 9867TIP3    H251093   6.290   5.527   4.528  1.2755  1.6889  0.2201
 9868TIP3   OH251094   1.629   0.238  12.389 -0.3638  0.3497  0.1242
 9868TIP3    H151095   1.669   0.273  12.468  0.8076 -2.2921  0.8194
 9868TIP3    H251096   1.701   0.195  12.343 -0.6886  2.9339 -3.1852
 9869TIP3   OH251097   5.101   4.587   2.958 -0.5751  0.5853 -0.1604
 9869TIP3    H151098   5.027   4.579   3.019 -0.6520  1.0231 -0.1918
 9869TIP3    H251099   5.093   4.511   2.901 -0.7780  0.4232  0.0814
 9870TIP3   OH251100   5.285   6.075  16.312  0.4842  0.1241  0.4026
 9870TIP3    H151101   5.215   6.107  16.369 -2.6185 -0.2728 -2.8174
 9870TIP3    H251102   5.291   6.141  16.242  0.5807 -1.7046 -1.4010
 9871TIP3   OH251103   2.980   2.625  10.754 -0.3889  0.4829  0.6641
 9871TIP3    H151104   3.026   2.624  10.670 -0.1233  0.9068  0.7983
 9871TIP3    H251105   3.045   2.594  10.818 -0.5883  0.1653  0.7114
 9872TIP3   OH251106   2.693   2.064  12.769 -0.1318 -0.1762  0.3474
 9872TIP3    H151107   2.762   2.093  12.709 -0.3755  0.0100  0.1588
 9872TIP3    H251108   2.740   2.014  12.836  0.1859 -0.0705  0.2069
 9873TIP3   OH251109   2.550   2.536   1.064  0.1227 -0.6211  0.1268
 9873TIP3    H151110   2.602   2.462   1.094  1.3901  0.2629  0.2152
 9873TIP3    H251111   2.500   2.564   1.141  0.6347 -0.5848  0.4523
 9874TIP3   OH251112   2.925   2.291   0.065 -0.3966 -0.4812 -0.1841
 9874TIP3    H151113   2.875   2.287  -0.017 -4.8433  2.6762  1.9146
 9874TIP3    H251114   2.979   2.370   0.056 -1.1100  0.0368 -0.0517
 9875TIP3   OH251115   3.543   2.083  15.481  0.0523 -0.7032  0.4358
 9875TIP3    H151116   3.538   2.174  15.508  0.8282 -0.0981 -1.2840
 9875TIP3    H251117   3.502   2.081  15.394 -0.2448 -2.0654  0.5765
 9876TIP3   OH251118   1.517   6.384   3.213 -0.8030 -0.4500  0.2893
 9876TIP3    H151119   1.445   6.361   3.272 -0.6195  0.3963  0.8632
 9876TIP3    H251120   1.579   6.431   3.269  0.3223 -1.3832 -0.1284
 9877TIP3   OH251121   3.764   0.539  14.144 -0.4294  1.0120  0.0989
 9877TIP3    H151122   3.819   0.517  14.219  0.6291 -1.9163 -1.3446
 9877TIP3    H251123   3.817   0.598  14.091  0.2544  0.3845  0.0652
 9878TIP3   OH251124   2.618   4.739   2.071 -0.3467  0.2270  0.1250
 9878TIP3    H151125   2.534   4.694   2.064 -0.2336  0.0145  0.1255
 9878TIP3    H251126   2.627   4.760   2.164 -0.9309  1.2802 -0.0370
 9879TIP3   OH251127   1.569   4.552   1.026 -0.0674  0.6448 -0.4750
 9879TIP3    H151128   1.527   4.637   1.044  0.0436  0.4416  0.8249
 9879TIP3    H251129   1.660   4.573   1.006 -0.4388  0.9684 -1.8863
 9880TIP3   OH251130   5.711   4.047   0.044  0.1201  0.0432 -0.1636
 9880TIP3    H151131   5.806   4.055   0.048 -0.0365  4.0474  0.4752
 9880TIP3    H251132   5.686   4.016   0.131  0.8068 -2.5301 -0.8076
 9881TIP3   OH251133   2.243   6.032   2.478 -0.4594 -0.0360  0.1234
 9881TIP3    H151134   2.214   5.943   2.499 -0.4611  0.3242  1.7691
 9881TIP3    H251135   2.278   6.066   2.560  1.2583  0.8469 -0.9046
 9882TIP3   OH251136   0.840   3.285  11.943 -0.6641 -0.6691  0.0060
 9882TIP3    H151137   0.886   3.217  11.893 -1.3335  0.2651 -1.9966
 9882TIP3    H251138   0.880   3.367  11.914 -0.1061 -0.1429  2.1325
 9883TIP3   OH251139   5.543   1.908  16.505  0.0703  0.3046 -0.1815
 9883TIP3    H151140   5.484   1.972  16.546 -0.0404  0.6429 -0.8514
 9883TIP3    H251141   5.486   1.859  16.445  0.3671  0.2775 -0.4400
 9884TIP3   OH251142   4.079   4.704   5.714  0.0727 -0.1094 -0.2331
 9884TIP3    H151143   4.077   4.647   5.791 -0.7319 -0.4587 -0.4980
 9884TIP3    H251144   4.167   4.739   5.713  0.0962 -0.0833  0.8643
 9885TIP3   OH251145   5.843   2.117   0.861  0.1360 -0.2023  0.1209
 9885TIP3    H151146   5.786   2.116   0.785  1.0524  2.8468 -0.7633
 9885TIP3    H251147   5.921   2.069   0.834  0.5775  1.1157 -1.0607
 9886TIP3   OH251148   4.836   5.283   0.623 -0.1083 -0.3652  0.5843
 9886TIP3    H151149   4.888   5.307   0.699  1.2561  0.5740 -0.5949
 9886TIP3    H251150   4.745   5.291   0.653  0.3850  0.4610  1.9512
 9887TIP3   OH251151   6.430   0.536   6.597 -0.5821  0.1616 -0.2742
 9887TIP3    H151152   6.390   0.623   6.601 -0.8976  0.3646 -4.0252
 9887TIP3    H251153   6.462   0.529   6.507  2.7027 -2.2760  0.8726
 9888TIP3   OH251154   0.812   4.175  12.553  0.9706 -0.6670  0.3148
 9888TIP3    H151155   0.898   4.208  12.579 -0.1809  1.5967  1.5009
 9888TIP3    H251156   0.764   4.165  12.635  0.0471 -1.8358 -0.3319
 9889TIP3   OH251157   2.285   3.854   4.197  0.1212 -0.3054  0.1096
 9889TIP3    H151158   2.346   3.783   4.180  2.4564  0.3436  4.3171
 9889TIP3    H251159   2.200   3.811   4.209  0.3256 -1.6395 -2.5692
 9890TIP3   OH251160   1.622   6.499  12.091  0.3316  0.1517  0.0190
 9890TIP3    H151161   1.655   6.554  12.161 -1.1361 -0.8065  1.5296
 9890TIP3    H251162   1.549   6.451  12.130 -0.3873 -0.5937 -2.1011
 9891TIP3   OH251163   4.525   1.289   4.324  0.1111 -0.4323 -0.2818
 9891TIP3    H151164   4.508   1.307   4.416  1.6342 -2.2743  0.4247
 9891TIP3    H251165   4.467   1.216   4.303 -1.3159  0.9126 -1.2677
 9892TIP3   OH251166   4.329   2.556  15.913 -0.3888  0.1290  0.7420
 9892TIP3    H151167   4.410   2.509  15.933 -0.2663 -0.9206 -1.8642
 9892TIP3    H251168   4.259   2.497  15.940 -0.2521 -0.4264 -0.1133
 9893TIP3   OH251169   4.201   0.469  15.009 -0.0424  0.2928 -0.3540
 9893TIP3    H151170   4.212   0.374  15.001  1.6615  0.4470 -0.2099
 9893TIP3    H251171   4.154   0.481  15.091 -0.6750 -0.4460 -0.6005
 9894TIP3   OH251172   5.524   3.198  10.930  0.0564 -0.4099  1.0421
 9894TIP3    H151173   5.596   3.206  10.993 -0.0699  2.2259  0.9607
 9894TIP3    H251174   5.567   3.169  10.849  1.0801  1.0951  1.0032
 9895TIP3   OH251175   4.043   5.662   0.113 -0.6102 -0.3933 -0.3535
 9895TIP3    H151176   4.004   5.740   0.154 -0.9338 -1.1251  0.7753
 9895TIP3    H251177   4.039   5.681   0.019  0.9200  1.6917 -0.0684
 9896TIP3   OH251178   3.322   2.895  16.510  0.1204  0.1731  0.1385
 9896TIP3    H151179   3.251   2.933  16.458 -1.4230 -0.9755  1.3192
 9896TIP3    H251180   3.294   2.805  16.526  3.1772 -1.2659 -1.7108
 9897TIP3   OH251181   1.364   1.077   1.192 -0.7211  0.0009  0.1702
 9897TIP3    H151182   1.376   1.167   1.162 -1.1772  1.6139  4.2102
 9897TIP3    H251183   1.453   1.045   1.205 -0.5093  1.0596  1.5975
 9898TIP3   OH251184   4.646   4.002  14.950 -0.0339  0.5972 -0.0985
 9898TIP3    H151185   4.593   4.081  14.963  0.5230  0.8009  1.0501
 9898TIP3    H251186   4.586   3.930  14.970 -0.7910  0.6627 -1.9859
 9899TIP3   OH251187   0.111   5.242  15.002  0.1722 -0.1177 -0.5059
 9899TIP3    H151188   0.101   5.309  15.069  0.8362 -0.7788  0.2806
 9899TIP3    H251189   0.205   5.223  15.000  0.0567 -0.6906 -1.0448
 9900TIP3   OH251190   4.424   1.243   5.853  0.1783 -0.4472  0.4221
 9900TIP3    H151191   4.431   1.159   5.807  0.9826 -1.1129  1.6750
 9900TIP3    H251192   4.457   1.308   5.791  0.9378 -1.2767 -0.0596
 9901TIP3   OH251193   5.712   4.085   2.375  0.3358  0.4952 -0.2204
 9901TIP3    H151194   5.793   4.037   2.392  0.2594  0.8356  1.2966
 9901TIP3    H251195   5.649   4.018   2.350  0.3869 -0.1593  1.2799
 9902TIP3   OH251196   0.231   0.576   4.512  0.4952  0.0316  0.4811
 9902TIP3    H151197   0.192   0.518   4.578  1.3214 -3.8279 -2.1369
 9902TIP3    H251198   0.159   0.593   4.450  0.4288  1.4407  0.9021
 9903TIP3   OH251199   3.099   3.825  15.167  0.2556  0.3128  0.3669
 9903TIP3    H151200   3.026   3.763  15.178  0.7194 -0.3072  0.0157
 9903TIP3    H251201   3.072   3.881  15.094 -0.4988  1.0305  1.1683
 9904TIP3   OH251202   3.258   2.721  12.526 -1.1563 -0.1822 -0.7002
 9904TIP3    H151203   3.306   2.675  12.595 -1.1468  0.9098  0.0527
 9904TIP3    H251204   3.189   2.767  12.572 -0.8107  1.0190 -1.3492
 9905TIP3   OH251205   0.383   3.078  15.519 -0.5567 -0.3288  0.0360
 9905TIP3    H151206   0.415   3.114  15.437  1.5403  0.6753  1.2032
 9905TIP3    H251207   0.431   2.996  15.529 -1.9408 -1.2236 -0.4331
 9906TIP3   OH251208   0.322   4.109   3.467  0.3836 -0.0914  0.1296
 9906TIP3    H151209   0.315   4.199   3.498 -1.0065 -0.8802  2.3332
 9906TIP3    H251210   0.335   4.117   3.372  1.3529  2.4068  0.3971
 9907TIP3   OH251211   2.112   6.617  11.782  0.0484 -0.0017  0.3489
 9907TIP3    H151212   2.024   6.656  11.789  0.2021  0.3901  0.1581
 9907TIP3    H251213   2.161   6.655  11.855  0.7360  1.6326 -0.8940
 9908TIP3   OH251214   0.886   0.750  10.818 -0.3366 -0.3495  0.1726
 9908TIP3    H151215   0.939   0.813  10.867  0.5395  0.0760 -1.2540
 9908TIP3    H251216   0.838   0.701  10.885 -0.4048  1.2618  1.3521
 9909TIP3   OH251217   0.514   2.615   5.221  0.1541  0.7013  0.3411
 9909TIP3    H151218   0.602   2.620   5.258 -0.5578 -1.6682  2.6399
 9909TIP3    H251219   0.459   2.662   5.284 -0.3530  1.7689 -0.8464
 9910TIP3   OH251220   4.244   0.956   3.390 -0.1643 -0.6552 -0.0619
 9910TIP3    H151221   4.234   1.042   3.350 -1.6093 -1.5602 -1.8440
 9910TIP3    H251222   4.276   0.973   3.478  1.2888  1.5839 -0.9456
 9911TIP3   OH251223   6.654   4.947  16.451 -0.7036  0.0091  0.1640
 9911TIP3    H151224   6.680   4.866  16.494  1.3278  0.0823 -0.8234
 9911TIP3    H251225   6.599   4.919  16.378  0.2896 -0.5216 -0.3918
 9912TIP3   OH251226   4.202   2.991  16.236 -0.2236  0.0135  0.0711
 9912TIP3    H151227   4.211   3.049  16.160 -0.3034  0.5086  0.4362
 9912TIP3    H251228   4.112   3.002  16.265  0.1004  0.6457  0.8852
 9913TIP3   OH251229   5.653   4.964   5.308 -0.5062  0.3534  0.1342
 9913TIP3    H151230   5.732   4.912   5.321 -0.5750 -0.1047 -1.1356
 9913TIP3    H251231   5.649   4.978   5.213 -1.2817  1.4267  0.3078
 9914TIP3   OH251232   4.510   3.947   4.438 -0.1200  0.1977  0.1275
 9914TIP3    H151233   4.517   3.864   4.485  0.6154  0.5364  0.6390
 9914TIP3    H251234   4.475   4.008   4.503  0.6897  0.6171  0.1774
 9915TIP3   OH251235   5.023   4.125   3.340 -0.0394  0.7560  0.6460
 9915TIP3    H151236   4.955   4.129   3.273  1.0041 -1.1358 -0.6567
 9915TIP3    H251237   5.101   4.159   3.296  1.2882 -2.8426 -0.1234
 9916TIP3   OH251238   6.649   6.422  14.886  0.7993  0.0586  0.2534
 9916TIP3    H151239   6.593   6.456  14.816  0.3441  2.9772  1.8404
 9916TIP3    H251240   6.614   6.335  14.905 -1.8752  0.9208 -0.2858
 9917TIP3   OH251241   6.219   0.762   0.739 -0.1087  0.4717  0.4454
 9917TIP3    H151242   6.124   0.757   0.751 -0.4099  1.0387 -1.3522
 9917TIP3    H251243   6.250   0.672   0.751 -1.1459 -0.0834 -0.8413
 9918TIP3   OH251244   4.713   0.359   0.899  0.0878  0.1100  0.2491
 9918TIP3    H151245   4.735   0.359   0.993 -0.7297 -4.1091  0.6122
 9918TIP3    H251246   4.618   0.358   0.897  0.0995  0.4436 -0.6927
 9919TIP3   OH251247   5.840   1.150  15.129  0.2638 -0.6380  0.3560
 9919TIP3    H151248   5.842   1.055  15.138 -0.5324 -0.6958 -0.0176
 9919TIP3    H251249   5.858   1.166  15.036  2.3472 -0.3222  0.7688
 9920TIP3   OH251250   6.684   6.327  15.622 -0.1015  0.0837  0.0945
 9920TIP3    H151251   6.725   6.242  15.604  1.1201  0.9097 -1.3206
 9920TIP3    H251252   6.591   6.308  15.628  0.2651 -1.5947  1.5115
 9921TIP3   OH251253   5.349   6.670  11.976 -0.0475 -0.1052 -0.0986
 9921TIP3    H151254   5.261   6.644  11.948 -0.1219  0.2305 -0.1799
 9921TIP3    H251255   5.335   6.748  12.030  0.2963  0.6608 -1.0970
 9922TIP3   OH251256   0.091   0.727   0.864 -0.0294 -0.1025  0.2485
 9922TIP3    H151257   0.073   0.664   0.934  1.2073 -0.6210  0.1277
 9922TIP3    H251258   0.073   0.813   0.904  0.1830 -0.4153  1.0479
 9923TIP3   OH251259   3.976   3.779   4.512  0.0996  0.3657  0.0905
 9923TIP3    H151260   3.979   3.844   4.442 -2.5961  0.0951 -0.4013
 9923TIP3    H251261   3.913   3.815   4.575  0.5032 -0.6011  1.0843
 9924TIP3   OH251262   5.382   0.384  15.750  0.2998 -0.0945 -0.2571
 9924TIP3    H151263   5.325   0.455  15.780  0.5219  0.0462 -0.1623
 9924TIP3    H251264   5.369   0.382  15.655  0.7733  0.5027 -0.3400
 9925TIP3   OH251265   2.215   4.328   5.621 -0.0028  0.1269  0.4901
 9925TIP3    H151266   2.127   4.365   5.611  0.7271  2.0126  0.5441
 9925TIP3    H251267   2.269   4.381   5.562  0.8871 -1.9100 -0.6269
 9926TIP3   OH251268   3.084   1.179   3.240 -0.5954 -0.4704 -0.1489
 9926TIP3    H151269   3.023   1.251   3.225 -0.9667 -0.7352  0.0673
 9926TIP3    H251270   3.112   1.153   3.152  1.0860  1.2208 -0.1727
 9927TIP3   OH251271   0.344   5.632   1.218 -0.1409 -0.0558  0.2565
 9927TIP3    H151272   0.408   5.571   1.180 -0.7077  0.1232 -1.0522
 9927TIP3    H251273   0.317   5.686   1.144 -2.0525 -0.3283  0.7167
 9928TIP3   OH251274   1.990   5.547  14.704 -0.2737  0.1420  0.5697
 9928TIP3    H151275   2.048   5.494  14.650  0.9791  0.0013  2.0033
 9928TIP3    H251276   1.971   5.491  14.780 -0.6477  0.9576  1.0860
 9929TIP3   OH251277   1.056   6.654   5.343  0.0351 -0.3427 -0.2223
 9929TIP3    H151278   1.139   6.702   5.338  0.1157 -0.4064  0.3727
 9929TIP3    H251279   0.993   6.711   5.298  0.5820 -0.7358 -1.5272
 9930TIP3   OH251280   6.328   2.925   0.562 -0.1810 -0.2692  0.0702
 9930TIP3    H151281   6.319   3.020   0.548 -2.5205 -0.5066 -0.3975
 9930TIP3    H251282   6.355   2.917   0.654 -0.5599  0.8277  0.2940
 9931TIP3   OH251283   5.108   5.871   4.383  0.1931 -0.2971  0.3477
 9931TIP3    H151284   5.024   5.847   4.421  0.7284  1.0277  2.5446
 9931TIP3    H251285   5.171   5.856   4.453  1.7626 -0.8680 -1.1221
 9932TIP3   OH251286   3.660   6.620  12.973 -0.0999 -0.2042 -0.2072
 9932TIP3    H151287   3.701   6.581  12.896  1.3568 -0.0598  0.4578
 9932TIP3    H251288   3.732   6.665  13.018 -1.1072  0.5070  0.7391
 9933TIP3   OH251289   3.084   0.976   3.431 -0.6876  0.1864 -0.0729
 9933TIP3    H151290   3.096   1.026   3.351  1.1741  0.5986  0.4055
 9933TIP3    H251291   2.989   0.966   3.439 -1.0753  2.4538 -0.9118
 9934TIP3   OH251292   0.674   5.183  10.884 -0.4272 -0.0928 -0.2438
 9934TIP3    H151293   0.737   5.183  10.956 -0.7125 -0.5624  0.0146
 9934TIP3    H251294   0.697   5.105  10.832  0.9463  1.2296 -1.7192
 9935TIP3   OH251295   5.166   6.055   2.506  0.2023 -0.4101  0.8052
 9935TIP3    H151296   5.118   5.974   2.524  0.1734  0.0437  3.1564
 9935TIP3    H251297   5.258   6.029   2.501 -0.0190 -0.9510 -1.4074
 9936TIP3   OH251298   3.540   2.718  14.850  0.3937  0.2166  1.0990
 9936TIP3    H151299   3.525   2.650  14.785 -1.8827 -0.4887  2.2743
 9936TIP3    H251300   3.620   2.762  14.821  0.3797 -1.1541 -1.2066
 9937TIP3   OH251301   3.582   1.994   0.090 -0.1624 -0.3741 -0.2001
 9937TIP3    H151302   3.661   2.048   0.094 -0.0235 -0.5952  0.1879
 9937TIP3    H251303   3.561   1.976   0.182 -0.5280 -0.5096 -0.3094
 9938TIP3   OH251304   3.562   2.468   1.966 -0.0899 -0.3196  0.2715
 9938TIP3    H151305   3.527   2.382   1.992  0.0111  0.4106  3.1570
 9938TIP3    H251306   3.606   2.500   2.044  1.5771  1.5659 -1.3359
 9939TIP3   OH251307   4.067   2.903  11.498  0.2173  0.5179 -0.0277
 9939TIP3    H151308   4.016   2.824  11.479 -0.5621  0.9449  0.2245
 9939TIP3    H251309   4.088   2.895  11.592  0.8952  0.1911 -0.2019
 9940TIP3   OH251310   5.595   1.599  14.901  1.0174  0.5212 -0.1665
 9940TIP3    H151311   5.657   1.643  14.842  0.3577  2.4716  0.5158
 9940TIP3    H251312   5.632   1.511  14.913  1.6093  0.3164 -2.8028
 9941TIP3   OH251313   3.810   2.718  14.364 -0.0473 -0.2300  0.3317
 9941TIP3    H151314   3.743   2.761  14.416 -0.8817 -0.9211 -0.1585
 9941TIP3    H251315   3.815   2.769  14.283  1.0201  0.6498  0.9241
 9942TIP3   OH251316   3.114   0.729  12.661  0.3394  0.9426  0.2353
 9942TIP3    H151317   3.071   0.696  12.740  0.5290 -1.6871 -0.6608
 9942TIP3    H251318   3.068   0.810  12.641 -2.4807 -0.3945  0.8078
 9943TIP3   OH251319   1.038   5.745  13.886  0.0692  0.3482 -0.0308
 9943TIP3    H151320   1.062   5.732  13.978  1.9546  3.0472 -0.0511
 9943TIP3    H251321   0.947   5.773  13.889  0.3250  1.1048  1.0928
 9944TIP3   OH251322   6.458   0.289  16.425 -0.3929  0.0925 -0.0922
 9944TIP3    H151323   6.472   0.197  16.400  1.5542  0.2267  0.3875
 9944TIP3    H251324   6.422   0.284  16.514 -2.2842 -0.2205 -0.8204
 9945TIP3   OH251325   6.662   4.098  13.866 -0.2008  0.0030  0.5343
 9945TIP3    H151326   6.596   4.030  13.867 -0.4508  0.2419  0.5005
 9945TIP3    H251327   6.746   4.051  13.867 -0.3417 -0.3360 -1.4326
 9946TIP3   OH251328   0.293   5.878  16.236 -0.5231 -0.1277 -0.0971
 9946TIP3    H151329   0.367   5.897  16.294 -1.0772 -0.9345  0.9166
 9946TIP3    H251330   0.333   5.839  16.158  0.2323  0.9151 -0.2622
 9947TIP3   OH251331   5.718   0.563   4.680 -0.3375  0.1503 -0.4333
 9947TIP3    H151332   5.773   0.490   4.706  2.1315  2.4581  1.4127
 9947TIP3    H251333   5.639   0.523   4.644  1.0960 -3.3415 -0.0188
 9948TIP3   OH251334   6.599   1.632  10.283  0.0013  1.0756  0.3643
 9948TIP3    H151335   6.675   1.650  10.338  0.0251 -0.4118  0.8686
 9948TIP3    H251336   6.524   1.663  10.334 -0.0248 -0.7288  1.5119
 9949TIP3   OH251337   2.982   4.947  15.703  0.0837 -0.0465 -0.2435
 9949TIP3    H151338   3.029   4.911  15.628 -1.4773 -0.7860 -0.9227
 9949TIP3    H251339   2.979   5.041  15.686  0.3884 -0.1213 -0.7223
 9950TIP3   OH251340   2.265   6.625  14.604 -0.4998 -0.4229  0.1696
 9950TIP3    H151341   2.322   6.617  14.681 -1.2685 -0.9716  0.6956
 9950TIP3    H251342   2.322   6.662  14.536 -0.4973  2.9977  1.7959
 9951TIP3   OH251343   1.882   2.254  14.728 -0.2350  0.9814 -0.4408
 9951TIP3    H151344   1.970   2.247  14.690  0.8814  1.3422  1.8716
 9951TIP3    H251345   1.866   2.348  14.733 -1.9245  0.9332 -3.1818
 9952TIP3   OH251346   4.549   6.372   1.981 -0.0720 -0.6178 -0.2009
 9952TIP3    H151347   4.582   6.365   1.891  2.3665 -1.3132  0.6716
 9952TIP3    H251348   4.616   6.423   2.027 -0.8463 -0.9903  1.4035
 9953TIP3   OH251349   1.588   2.402  13.740  0.1137  0.1673  0.3936
 9953TIP3    H151350   1.504   2.448  13.738 -0.1224  0.0220  3.0769
 9953TIP3    H251351   1.648   2.459  13.692 -0.9930  1.4462  0.4661
 9954TIP3   OH251352   1.120   2.157  14.687 -0.3722 -0.1472  0.4902
 9954TIP3    H151353   1.102   2.240  14.732 -1.0081  0.2548 -0.4798
 9954TIP3    H251354   1.202   2.172  14.641 -0.3889 -0.1264  0.4674
 9955TIP3   OH251355   0.948   6.573   3.665  0.2055  0.0059  0.1882
 9955TIP3    H151356   1.018   6.609   3.719 -0.4091 -1.9045  2.4471
 9955TIP3    H251357   0.870   6.623   3.690  0.3144  0.6619 -0.7106
 9956TIP3   OH251358   4.435   2.484  14.807 -0.0789  0.5190 -0.2995
 9956TIP3    H151359   4.504   2.431  14.847  0.1602  0.2751 -1.0262
 9956TIP3    H251360   4.460   2.492  14.715  0.0202  2.1195 -0.1547
 9957TIP3   OH251361   6.464   0.420  13.137 -0.6409 -0.3476  0.4997
 9957TIP3    H151362   6.554   0.448  13.152 -0.5727 -0.4532  0.2949
 9957TIP3    H251363   6.457   0.411  13.042 -0.8737 -0.3180  0.5133
 9958TIP3   OH251364   3.685   3.035  12.579  0.0888  0.0386 -0.3698
 9958TIP3    H151365   3.645   2.952  12.551  0.1671 -0.1129 -0.0417
 9958TIP3    H251366   3.759   3.047  12.518  1.5194 -1.3345  0.9976
 9959TIP3   OH251367   6.351   6.775   0.678  0.4172  0.2864 -0.7321
 9959TIP3    H151368   6.432   6.746   0.634  0.6355  0.3706 -0.3915
 9959TIP3    H251369   6.285   6.711   0.652  0.6090  0.1804 -0.9628
 9960TIP3   OH251370   4.880   3.253  15.025  0.7059  0.7203  0.1114
 9960TIP3    H151371   4.881   3.255  14.929 -0.4480  1.7445  0.0920
 9960TIP3    H251372   4.794   3.216  15.047  0.3483  1.8759  0.7321
 9961TIP3   OH251373   0.061   2.182   2.652 -0.4369  0.5052  0.1069
 9961TIP3    H151374   0.028   2.255   2.599  1.7964  1.4932 -0.0172
 9961TIP3    H251375   0.121   2.222   2.714  0.5452 -1.1850  0.3045
 9962TIP3   OH251376   0.030   1.249   0.442 -0.2480 -0.5571  0.1713
 9962TIP3    H151377   0.039   1.323   0.382 -0.5608 -0.5200  0.1684
 9962TIP3    H251378  -0.031   1.280   0.509  0.4568 -0.4313  0.7707
 9963TIP3   OH251379   3.427   0.677  16.616 -0.5204 -0.1627 -0.4399
 9963TIP3    H151380   3.365   0.621  16.663 -0.2027 -0.9427 -0.9283
 9963TIP3    H251381   3.473   0.617  16.557  1.3878  0.2011  0.5943
 9964TIP3   OH251382   4.533   1.030  13.214 -0.0449  0.6569  0.3157
 9964TIP3    H151383   4.512   1.060  13.125 -0.6560 -4.1863 -1.5108
 9964TIP3    H251384   4.627   1.047  13.223  0.5030 -0.4565 -2.2066
 9965TIP3   OH251385   6.053   2.755   3.416  0.3927  0.0788 -0.4763
 9965TIP3    H151386   5.985   2.780   3.479  1.1094 -0.3454  0.4887
 9965TIP3    H251387   6.007   2.748   3.332 -0.7101 -0.0018  0.1204
 9966TIP3   OH251388   2.760   2.295  12.366 -0.4907  0.6095 -0.1098
 9966TIP3    H151389   2.678   2.339  12.388 -2.2422 -1.3147 -2.1654
 9966TIP3    H251390   2.759   2.290  12.270  1.4448 -0.5142 -0.1162
 9967TIP3   OH251391   3.695   4.665   3.399  0.3237  0.3596  0.4669
 9967TIP3    H151392   3.601   4.665   3.382  0.6868  0.5079 -1.9765
 9967TIP3    H251393   3.714   4.753   3.430 -0.3926  0.2015  1.3737
 9968TIP3   OH251394   5.357   2.887   3.313 -1.0667  0.4508  0.2451
 9968TIP3    H151395   5.370   2.852   3.225 -0.5964 -0.1584  0.5565
 9968TIP3    H251396   5.422   2.843   3.367 -2.3311 -0.3064  1.2088
 9969TIP3   OH251397   1.689   3.489  13.531 -0.7625 -0.5687 -0.2525
 9969TIP3    H151398   1.621   3.525  13.474 -1.3883 -0.1529  0.7192
 9969TIP3    H251399   1.640   3.439  13.597 -0.1065 -0.3891  0.3750
 9970TIP3   OH251400   2.148   3.314   1.563  0.4331  0.1014 -0.2351
 9970TIP3    H151401   2.214   3.377   1.591 -1.1536  1.7209  0.0448
 9970TIP3    H251402   2.122   3.342   1.476 -1.6368  1.0734  0.6155
 9971TIP3   OH251403   2.035   6.763  14.677 -0.5948 -0.0191 -0.5870
 9971TIP3    H151404   2.106   6.705  14.650 -0.9584 -0.3851 -0.7603
 9971TIP3    H251405   1.990   6.715  14.747  0.5686  1.0685  0.9936
 9972TIP3   OH251406   5.460   0.025  14.892 -0.1559 -0.0772  0.4175
 9972TIP3    H151407   5.502   0.051  14.974  3.0258  1.1086 -1.4125
 9972TIP3    H251408   5.500  -0.060  14.871  0.1967  0.3276 -0.5999
 9973TIP3   OH251409   0.571   6.050  14.669 -0.3501 -0.0904 -0.8891
 9973TIP3    H151410   0.622   6.065  14.590  0.0764  2.0069 -0.2828
 9973TIP3    H251411   0.481   6.074  14.645 -0.5368 -0.9453 -1.1211
 9974TIP3   OH251412   3.045   1.811   4.917  0.2173 -0.2412 -0.0588
 9974TIP3    H151413   3.004   1.874   4.858  1.6210  0.2620 -0.5262
 9974TIP3    H251414   3.138   1.832   4.914  0.4055 -0.6051  1.8629
 9975TIP3   OH251415   6.007   5.894   5.971  0.3412 -0.1732 -0.1454
 9975TIP3    H151416   5.952   5.848   6.034 -1.3324  0.9770 -0.6752
 9975TIP3    H251417   6.084   5.839   5.960 -0.5764 -1.7120  0.8593
 9976TIP3   OH251418   4.100   3.973  15.186 -0.0180 -0.3141  0.0829
 9976TIP3    H151419   4.073   3.954  15.276 -0.0313  0.0603  0.1598
 9976TIP3    H251420   4.194   3.988  15.192 -0.1318  0.3755  0.1441
 9977TIP3   OH251421   4.264   4.566   1.155  0.2280 -0.0805  0.5012
 9977TIP3    H151422   4.335   4.510   1.188  0.3776 -1.6365 -2.1883
 9977TIP3    H251423   4.308   4.642   1.119  0.2422  0.4636  1.6201
 9978TIP3   OH251424   1.811   5.701  16.376 -1.0927  0.2464 -0.3607
 9978TIP3    H151425   1.877   5.769  16.368  0.5147 -1.1943  0.1850
 9978TIP3    H251426   1.771   5.716  16.462  2.1748 -1.8655  1.7432
 9979TIP3   OH251427   2.691   0.872  14.909 -0.4070  0.3743  0.1652
 9979TIP3    H151428   2.773   0.888  14.956  1.0341  1.6733 -2.5599
 9979TIP3    H251429   2.645   0.808  14.963  2.7830 -1.0910  1.4151
 9980TIP3   OH251430   0.027   0.978   0.946 -0.0063 -0.0705  0.5764
 9980TIP3    H151431  -0.061   1.013   0.954 -0.7969 -2.0977  1.2000
 9980TIP3    H251432   0.079   1.052   0.913 -1.2140  2.1481  3.2337
 9981TIP3   OH251433   4.886   1.725  11.773 -0.2022 -0.8201  0.1385
 9981TIP3    H151434   4.844   1.649  11.733  0.1111 -0.3576 -1.1156
 9981TIP3    H251435   4.979   1.700  11.778  0.1351 -0.0351 -1.5470
 9982TIP3   OH251436   0.647   2.087   0.070 -0.8630  0.2797  0.1139
 9982TIP3    H151437   0.606   2.038  -0.001 -0.8929  0.3287  0.0977
 9982TIP3    H251438   0.646   2.178   0.040  2.2578 -0.0350 -1.4372
 9983TIP3   OH251439   0.227   6.127  14.280  1.0220 -0.1530 -0.3330
 9983TIP3    H151440   0.244   6.185  14.205 -1.8098  0.8368 -0.3128
 9983TIP3    H251441   0.163   6.175  14.333 -1.3769 -3.1837 -0.2442
 9984TIP3   OH251442   4.559   3.046   3.613  0.2251  0.5998  0.1510
 9984TIP3    H151443   4.514   2.961   3.618  0.9532  0.2434  0.9269
 9984TIP3    H251444   4.641   3.032   3.659  0.1677  1.8493  0.6761
 9985TIP3   OH251445   5.296   0.691   3.780 -0.6107 -0.0743 -0.4168
 9985TIP3    H151446   5.270   0.756   3.845 -0.1881 -0.4671  0.1591
 9985TIP3    H251447   5.262   0.608   3.815  1.1700 -0.5705  0.2527
 9986TIP3   OH251448   4.658   5.088   0.534 -0.2898 -0.2343 -0.0809
 9986TIP3    H151449   4.745   5.126   0.521 -0.9479  1.1663 -0.5856
 9986TIP3    H251450   4.669   5.028   0.607  0.8970  0.6096  0.4723
 9987TIP3   OH251451   1.943   6.689  10.667 -0.7396 -0.8108  0.5292
 9987TIP3    H151452   1.870   6.690  10.729 -1.7778 -0.8424 -0.6351
 9987TIP3    H251453   1.904   6.658  10.585  0.8834 -2.1129  0.1977
 9988TIP3   OH251454   3.454   6.800  12.883  0.0791 -1.0532  0.2116
 9988TIP3    H151455   3.504   6.739  12.938  1.4173  1.3031  1.7460
 9988TIP3    H251456   3.516   6.828  12.816  1.0071  1.8726  2.1115
 9989TIP3   OH251457   6.096   6.649  14.527 -0.2066  0.1487 -0.1142
 9989TIP3    H151458   6.151   6.606  14.461  0.0910  2.3095 -1.3975
 9989TIP3    H251459   6.008   6.649  14.489 -0.2345  0.5039 -0.0540
 9990TIP3   OH251460   6.732   3.849   5.445 -0.1397 -0.1094  0.0496
 9990TIP3    H151461   6.775   3.856   5.530  2.4429 -0.4214 -1.1180
 9990TIP3    H251462   6.751   3.933   5.402 -1.8116  0.2282 -0.1125
 9991TIP3   OH251463   1.570   5.280  14.726  1.1618  0.6960 -0.3561
 9991TIP3    H151464   1.491   5.259  14.675 -0.2624 -0.3906  2.0935
 9991TIP3    H251465   1.597   5.366  14.694  1.1301 -0.4215 -3.7133
 9992TIP3   OH251466   2.123   4.018   4.050  0.5833  0.0060 -0.0995
 9992TIP3    H151467   2.053   4.048   4.109  0.4716 -0.1434 -0.1578
 9992TIP3    H251468   2.142   3.929   4.079 -0.6107 -0.6930 -1.3311
 9993TIP3   OH251469   1.034   5.504   1.044 -0.0477 -0.4466 -0.3962
 9993TIP3    H151470   1.027   5.598   1.027  0.3898  0.0765  1.9243
 9993TIP3    H251471   0.958   5.466   1.001 -0.2511  0.9526 -1.3597
 9994TIP3   OH251472   1.704   0.161  14.824  0.1533  0.1998  0.2991
 9994TIP3    H151473   1.652   0.224  14.875  0.7240  0.8501  0.0835
 9994TIP3    H251474   1.667   0.076  14.848 -0.2612  0.5687  1.0267
 9995TIP3   OH251475   2.079   5.109   5.684  0.3818 -0.0083  0.1636
 9995TIP3    H151476   2.018   5.183   5.683 -0.8399 -0.9811  0.0638
 9995TIP3    H251477   2.041   5.048   5.747  2.0963  0.0101  1.2625
 9996TIP3   OH251478   0.797   6.402  16.849  0.0028 -0.0807 -0.0863
 9996TIP3    H151479   0.738   6.332  16.821 -0.1186  0.1362 -0.3861
 9996TIP3    H251480   0.873   6.394  16.791  0.2146 -0.2837  0.2173
 9997TIP3   OH251481   2.658   6.482  12.981 -0.9790  0.2872 -0.5268
 9997TIP3    H151482   2.715   6.507  12.908  2.9986  0.0836  2.2040
 9997TIP3    H251483   2.640   6.565  13.026 -2.7880  0.3044 -1.1636
 9998TIP3   OH251484   4.124   4.115  11.846 -0.0646 -0.1336  0.0101
 9998TIP3    H151485   4.215   4.087  11.833 -0.2973 -0.3234 -1.3550
 9998TIP3    H251486   4.079   4.035  11.874  0.1489 -0.0794  0.5210
 9999TIP3   OH251487   4.611   3.435  14.934  0.4933  0.2822  0.3392
 9999TIP3    H151488   4.617   3.503  14.867 -0.4061  0.0762  0.0437
 9999TIP3    H251489   4.649   3.475  15.012  0.3657  0.9691  0.0544
10000TIP3   OH251490   0.227   3.068   5.114 -0.5826  0.2845  0.1223
10000TIP3    H151491   0.276   3.049   5.194  0.4574  1.2406 -0.2602
10000TIP3    H251492   0.197   3.158   5.125 -2.6406 -0.3825  0.5083
10001TIP3   OH251493   2.635   2.861  17.191  0.2039 -0.0359  0.6493
10001TIP3    H151494   2.619   2.774  17.227  1.7249 -0.7298 -0.2918
10001TIP3    H251495   2.636   2.849  17.096  2.5415  0.5560  0.5358
10002TIP3   OH251496   3.933   5.208  11.985  0.1366  0.0144 -0.7181
10002TIP3    H151497   4.026   5.225  11.997  0.1332 -0.3484 -0.1655
10002TIP3    H251498   3.907   5.267  11.914  0.7153  0.3488 -0.6564
10003TIP3   OH251499   2.016   3.260  14.108  0.2076 -0.6777  0.7759
10003TIP3    H151500   1.926   3.290  14.120  0.6458  0.5554  1.0840
10003TIP3    H251501   2.054   3.260  14.195  0.7106 -0.5514  0.5593
10004TIP3   OH251502   1.132   1.367   0.278  0.1671 -0.0692 -0.0253
10004TIP3    H151503   1.207   1.361   0.219 -1.0773  0.8014 -1.7979
10004TIP3    H251504   1.109   1.460   0.279  0.1942 -0.0412  1.9523
10005TIP3   OH251505   1.502   3.069   3.657  0.1895 -0.7329  0.0492
10005TIP3    H151506   1.442   3.129   3.613  0.1562 -0.8546 -0.0710
10005TIP3    H251507   1.485   2.984   3.617  0.5677 -0.7338 -0.1172
10006TIP3   OH251508   3.326   4.917  16.356  0.0778  0.3837  0.4972
10006TIP3    H151509   3.234   4.893  16.369  0.0402  0.3403  0.1499
10006TIP3    H251510   3.374   4.835  16.373 -0.0260  0.1442 -0.3531
10007TIP3   OH251511   2.830   1.174  15.348 -0.4949  0.3210  0.2162
10007TIP3    H151512   2.903   1.223  15.311  1.1973  0.3759  3.2786
10007TIP3    H251513   2.803   1.225  15.425  0.2891 -2.6019  2.6197
10008TIP3   OH251514   4.319   1.782  13.811 -0.1274 -0.2279  0.7668
10008TIP3    H151515   4.231   1.766  13.778  0.4969 -3.8354  0.3945
10008TIP3    H251516   4.376   1.731  13.753  1.9717  0.2909  2.2322
10009TIP3   OH251517   0.877   3.223   2.955  0.5565  0.7268 -0.1776
10009TIP3    H151518   0.790   3.236   2.917 -0.1419  1.8882  1.6785
10009TIP3    H251519   0.934   3.282   2.907 -0.1147  1.4546 -0.1034
10010TIP3   OH251520   2.232   5.814   5.928  0.2823  0.5816  1.2030
10010TIP3    H151521   2.191   5.747   5.872  1.5305  0.0874  0.8276
10010TIP3    H251522   2.160   5.869   5.957 -0.8923 -1.2806  2.0098
10011TIP3   OH251523   2.720   0.931   3.683  0.0470 -0.1464  0.3256
10011TIP3    H151524   2.780   0.973   3.622 -2.1267 -0.0505 -1.9270
10011TIP3    H251525   2.741   0.969   3.768  1.6703  1.4792 -0.7381
10012TIP3   OH251526   5.869   6.486  12.170  0.0324  0.4651 -0.2118
10012TIP3    H151527   5.889   6.579  12.166 -0.4551  0.5614 -0.6644
10012TIP3    H251528   5.894   6.452  12.083 -3.1404  0.9141 -1.4522
10013TIP3   OH251529   4.772   0.059   1.585  0.1557 -0.0001 -0.5053
10013TIP3    H151530   4.718   0.132   1.554 -0.2323 -0.0134  0.1317
10013TIP3    H251531   4.852   0.101   1.617  0.1197  0.1041 -0.5483
10014TIP3   OH251532   6.320   0.542  15.955  0.4401 -0.3945 -0.1067
10014TIP3    H151533   6.297   0.576  16.041 -2.6316 -1.2820 -0.4738
10014TIP3    H251534   6.306   0.448  15.962 -0.1105 -0.4493 -1.6341
10015TIP3   OH251535   5.612   5.861  17.187 -0.4661  0.0977 -0.3767
10015TIP3    H151536   5.679   5.902  17.242 -0.6006  1.5267 -1.2112
10015TIP3    H251537   5.607   5.918  17.110 -0.9971 -1.2883 -1.3944
10016TIP3   OH251538   4.381   2.753  16.318  0.0419  0.2034  0.3009
10016TIP3    H151539   4.298   2.792  16.291 -0.6017 -0.9325  0.5573
10016TIP3    H251540   4.437   2.758  16.240 -0.8288 -0.4850 -0.3783
10017TIP3   OH251541   6.119   5.530   1.586 -0.4118  0.3841 -0.5811
10017TIP3    H151542   6.095   5.437   1.583 -0.7375  0.3777  1.1234
10017TIP3    H251543   6.050   5.574   1.536 -1.1517 -0.1460 -0.0430
10018TIP3   OH251544   5.344   5.714  17.057 -0.1576 -0.2078  0.2687
10018TIP3    H151545   5.418   5.764  17.091 -1.4054  1.9408  0.0159
10018TIP3    H251546   5.380   5.668  16.981  0.6297  1.8837 -0.6915
10019TIP3   OH251547   1.464   6.113  13.578 -0.1587 -0.2339 -0.5274
10019TIP3    H151548   1.521   6.164  13.521 -0.4051 -0.8745 -1.3615
10019TIP3    H251549   1.511   6.030  13.591 -0.0232 -0.0289  0.3484
10020TIP3   OH251550   2.853   4.003   1.769 -0.6439  0.0678 -1.0391
10020TIP3    H151551   2.799   4.014   1.847  1.7515  1.8629  0.5212
10020TIP3    H251552   2.868   4.093   1.738  0.7404 -0.4329 -1.9066
10021TIP3   OH251553   2.302   6.527  15.357 -0.4601  0.5680  0.3031
10021TIP3    H151554   2.374   6.517  15.419 -0.9774  0.2825  0.8729
10021TIP3    H251555   2.228   6.483  15.399  0.0986 -3.3183 -2.2366
10022TIP3   OH251556   6.369   3.301   5.230 -0.5079  0.4566 -0.1666
10022TIP3    H151557   6.354   3.285   5.324 -0.2735 -1.2939 -0.3904
10022TIP3    H251558   6.355   3.216   5.189  1.0010  0.8044 -1.5225
10023TIP3   OH251559   4.441   6.011  14.470 -0.2408  0.1820 -0.1576
10023TIP3    H151560   4.389   6.040  14.396  0.0132  0.5467 -0.1999
10023TIP3    H251561   4.428   5.916  14.475 -2.7085  0.5163  1.2198
10024TIP3   OH251562   3.758   0.877   4.066  0.4998  0.2251 -0.2853
10024TIP3    H151563   3.783   0.960   4.107  0.1073  0.5736 -0.7400
10024TIP3    H251564   3.674   0.855   4.108  0.0071  0.6725 -0.9989
10025TIP3   OH251565   1.044   3.458  15.508 -0.2638 -0.2835 -0.0674
10025TIP3    H151566   1.001   3.474  15.592 -1.2194 -1.8022 -0.2287
10025TIP3    H251567   0.972   3.447  15.446  0.3473 -1.8284 -0.5499
10026TIP3   OH251568   0.539   5.181   5.373 -0.1109  0.1883 -0.7968
10026TIP3    H151569   0.572   5.130   5.299  1.4157  0.2501 -0.2087
10026TIP3    H251570   0.617   5.198   5.426 -1.0441  0.8111  0.4202
10027TIP3   OH251571   5.029   0.374   6.084  0.3137  0.1902  0.1475
10027TIP3    H151572   5.118   0.403   6.062  0.4604 -0.7567 -0.5622
10027TIP3    H251573   4.973   0.419   6.022  0.2761  0.8434  0.6408
10028TIP3   OH251574   1.961   3.667  11.597 -0.2102 -0.6532 -0.4230
10028TIP3    H151575   1.868   3.676  11.613 -0.5078  0.4944 -2.4691
10028TIP3    H251576   1.980   3.729  11.527  2.2054 -0.4681  0.2956
10029TIP3   OH251577   4.146   4.424   0.440 -0.2632 -0.1423 -0.3855
10029TIP3    H151578   4.154   4.434   0.535  2.2505 -1.4554 -0.3522
10029TIP3    H251579   4.107   4.337   0.429  0.7116 -0.5781 -0.5117
10030TIP3   OH251580   0.096   3.354   6.285 -0.0418  0.6176  0.1712
10030TIP3    H151581   0.006   3.358   6.252 -1.0136 -1.2659  2.3258
10030TIP3    H251582   0.092   3.393   6.372  1.2999  0.8151  0.1662
10031TIP3   OH251583   4.970   4.544   5.839  0.2696 -0.2245  0.1630
10031TIP3    H151584   5.030   4.475   5.864 -1.8095 -2.0685  0.3928
10031TIP3    H251585   4.891   4.527   5.891 -0.2331  2.5345  0.4602
10032TIP3   OH251586   5.735   1.485   4.174 -0.3236 -0.0858  0.2321
10032TIP3    H151587   5.740   1.580   4.173 -2.0844  0.0663  1.6686
10032TIP3    H251588   5.820   1.457   4.208 -0.8147  1.1670  2.7636
10033TIP3   OH251589   2.649   3.136  16.784 -0.5824  0.0107  0.7344
10033TIP3    H151590   2.642   3.138  16.689 -0.7588 -0.6649  0.7271
10033TIP3    H251591   2.615   3.222  16.813  0.6795  0.7316  0.1304
10034TIP3   OH251592   4.258   1.707   0.119  0.1993 -0.4635  0.1301
10034TIP3    H151593   4.353   1.711   0.130  0.1575  0.2816  0.2770
10034TIP3    H251594   4.233   1.625   0.161  0.4097  0.8108  2.9894
10035TIP3   OH251595   0.105   1.067   4.315  0.1948  0.0705 -0.2322
10035TIP3    H151596   0.080   1.113   4.234 -0.2054 -1.1195 -0.8040
10035TIP3    H251597   0.200   1.071   4.316  0.1651  2.3660  0.6120
10036TIP3   OH251598   1.822   1.983  10.791 -0.0230 -0.1948 -0.1196
10036TIP3    H151599   1.743   1.955  10.746 -0.0605  2.5647 -2.0026
10036TIP3    H251600   1.850   2.061  10.744  3.4544 -0.6441  0.9160
10037TIP3   OH251601   2.425   4.170   1.075 -0.3613  0.5859  0.0047
10037TIP3    H151602   2.436   4.265   1.081  1.5404  0.4044  0.1638
10037TIP3    H251603   2.437   4.149   0.983 -1.2426  0.5263 -0.1068
10038TIP3   OH251604   1.991   4.018  15.569  0.0047  0.3787 -0.3951
10038TIP3    H151605   1.979   4.111  15.550  0.7665  0.6439  0.3527
10038TIP3    H251606   1.989   4.011  15.664  0.2969 -0.3194 -0.4270
10039TIP3   OH251607   1.717   1.865   4.465  0.3366 -0.2245  0.1656
10039TIP3    H151608   1.730   1.896   4.376 -2.7227  0.7850 -0.0598
10039TIP3    H251609   1.680   1.777   4.454 -1.0329  0.3066  0.3422
10040TIP3   OH251610   3.428   2.703  17.024  0.5811 -0.0380  0.5507
10040TIP3    H151611   3.494   2.773  17.026 -0.6990  1.1920  1.7131
10040TIP3    H251612   3.437   2.664  16.938  1.3201  1.5899 -0.1488
10041TIP3   OH251613   2.872   6.435   3.050  0.5567  0.1466 -0.2844
10041TIP3    H151614   2.812   6.509   3.059  0.6731  0.1641  0.3662
10041TIP3    H251615   2.892   6.432   2.957 -2.1340 -1.1636 -0.9290
10042TIP3   OH251616   3.592   1.607  11.078 -0.4632 -1.0357 -0.3640
10042TIP3    H151617   3.535   1.544  11.121  1.2210 -1.3993  1.4624
10042TIP3    H251618   3.676   1.562  11.070  0.9010  1.0497  1.3629
10043TIP3   OH251619   2.203   6.216   3.294 -0.3557 -0.1571 -0.1500
10043TIP3    H151620   2.144   6.214   3.369  0.8880 -0.7567  0.8387
10043TIP3    H251621   2.290   6.230   3.331  0.0569  1.6910 -1.6422
10044TIP3   OH251622   3.033   0.537   5.636  0.0533  0.0252  0.3575
10044TIP3    H151623   2.982   0.474   5.586  0.6815  0.2200 -0.5612
10044TIP3    H251624   3.052   0.493   5.719  0.6881 -1.0955 -0.3622
10045TIP3   OH251625   4.325   4.740   3.512 -0.3473 -0.1136  0.4372
10045TIP3    H151626   4.310   4.834   3.518 -0.2713  0.1143 -1.8037
10045TIP3    H251627   4.405   4.731   3.460 -1.0292 -1.3777 -0.4871
10046TIP3   OH251628   2.265   3.942  15.713  0.3079  0.1848  0.3505
10046TIP3    H151629   2.189   3.887  15.733 -1.5151  1.9263 -1.3355
10046TIP3    H251630   2.317   3.941  15.794 -0.7386 -2.2001  1.0887
10047TIP3   OH251631   1.032   5.261   6.029  0.6250 -0.0058  0.2837
10047TIP3    H151632   0.981   5.335   6.063  1.1391 -0.3250  1.8395
10047TIP3    H251633   1.104   5.302   5.980  0.7421  0.5262  0.8912
10048TIP3   OH251634   1.507   4.322  12.086  0.2207 -0.3672  0.6196
10048TIP3    H151635   1.509   4.418  12.088 -0.1993 -0.3237 -0.3405
10048TIP3    H251636   1.451   4.297  12.160 -0.7497  0.1888  0.0961
10049TIP3   OH251637   1.924   3.672   4.881 -0.0353 -0.0713  0.1129
10049TIP3    H151638   1.841   3.641   4.917 -1.1358  2.4607 -0.0535
10049TIP3    H251639   1.907   3.682   4.787  1.5739 -2.7582 -0.5553
10050TIP3   OH251640   2.053   1.322  12.686 -0.1601  0.1102  0.5429
10050TIP3    H151641   2.018   1.253  12.743  0.6884  0.1966  1.1911
10050TIP3    H251642   2.042   1.403  12.736 -1.5744  0.5396 -0.4051
10051TIP3   OH251643   6.121   4.673  13.714  0.3329  0.0950  0.3942
10051TIP3    H151644   6.102   4.597  13.659  2.4450 -0.5431  0.4489
10051TIP3    H251645   6.039   4.724  13.715 -0.4865 -1.1057 -1.3211
10052TIP3   OH251646   5.578   0.029   4.873  0.0964 -0.7001  0.0017
10052TIP3    H151647   5.562   0.052   4.965 -1.6346  0.9894 -0.6524
10052TIP3    H251648   5.532  -0.055   4.861 -0.9312 -0.2064  0.3479
10053TIP3   OH251649   4.884   0.091  16.315  0.0938 -0.2025  0.5117
10053TIP3    H151650   4.923   0.004  16.320 -0.7173 -0.5840  0.4975
10053TIP3    H251651   4.957   0.151  16.301  0.5109 -1.0495 -1.1312
10054TIP3   OH251652   5.380   0.966   5.475 -0.5518 -0.0832  0.1164
10054TIP3    H151653   5.353   0.911   5.549  0.7101  0.4376  1.0170
10054TIP3    H251654   5.408   1.048   5.516  0.3188  0.1638 -0.9283
10055TIP3   OH251655   0.868   4.815  11.756  0.3465 -0.0725 -0.0302
10055TIP3    H151656   0.780   4.788  11.731 -0.5373  0.2634  2.4898
10055TIP3    H251657   0.912   4.733  11.780  0.0824 -0.0432  0.5588
10056TIP3   OH251658   0.367   0.709  12.692  0.2764 -0.0990  0.2929
10056TIP3    H151659   0.275   0.725  12.671  0.2396  1.1226  1.3035
10056TIP3    H251660   0.372   0.614  12.703 -1.0978 -0.1050  1.2186
10057TIP3   OH251661   2.170   3.125  17.080  0.0799  0.8663  0.6661
10057TIP3    H151662   2.150   3.185  17.152  1.8417  2.2292  0.1090
10057TIP3    H251663   2.115   3.154  17.008 -1.3274 -0.1919  1.2615
10058TIP3   OH251664   5.290   2.539  12.530  1.1223 -0.6398  0.3890
10058TIP3    H151665   5.301   2.592  12.451  1.5427 -1.1895  0.0752
10058TIP3    H251666   5.197   2.549  12.553  1.0239 -0.3929 -0.1136
10059TIP3   OH251667   0.391   3.293  13.262 -0.1485  0.1385 -0.2238
10059TIP3    H151668   0.458   3.287  13.330  1.2388  0.1013 -1.5481
10059TIP3    H251669   0.438   3.280  13.180 -1.7834  0.1269 -1.2128
10060TIP3   OH251670   0.576   4.418   0.335  0.0515 -0.0979  0.0029
10060TIP3    H151671   0.581   4.510   0.360  0.4840  0.8224 -3.0663
10060TIP3    H251672   0.484   4.395   0.347 -0.5288  1.4314 -1.2274
10061TIP3   OH251673   0.639   1.979  15.601  0.0583  0.6861 -0.3016
10061TIP3    H151674   0.566   1.932  15.641  0.9357  0.2017  0.8024
10061TIP3    H251675   0.615   1.989  15.509 -1.9726  1.6746  0.2850
10062TIP3   OH251676   2.160   5.703  12.766  0.0299  0.2523 -0.6026
10062TIP3    H151677   2.176   5.764  12.694  0.7071 -0.8383 -1.4013
10062TIP3    H251678   2.066   5.711  12.784 -0.1565  0.4859 -1.6552
10063TIP3   OH251679   0.090   6.507  13.145  0.3167 -0.6666  0.0934
10063TIP3    H151680   0.034   6.435  13.117 -0.8606  0.0948  0.4026
10063TIP3    H251681   0.111   6.487  13.236  0.3396 -0.8229  0.0542
10064TIP3   OH251682   2.974   1.832   2.938  0.0182 -0.2843  0.1985
10064TIP3    H151683   2.911   1.777   2.890 -1.7434  1.3608  0.4809
10064TIP3    H251684   3.041   1.854   2.873 -2.7904  2.6777 -2.0561
10065TIP3   OH251685   2.321   1.565  16.151 -0.7180 -0.4132  0.1639
10065TIP3    H151686   2.245   1.535  16.203  0.2613  0.3764  2.1557
10065TIP3    H251687   2.297   1.544  16.061 -2.3231 -2.3156  0.9324
10066TIP3   OH251688   0.805   2.809  11.242  0.4949  0.1138 -0.1665
10066TIP3    H151689   0.735   2.757  11.202  2.2168 -0.7893 -2.2425
10066TIP3    H251690   0.778   2.899  11.229 -1.2713 -0.1963  1.0345
10067TIP3   OH251691   6.717   2.290  14.373  0.2084 -0.7669 -0.7676
10067TIP3    H151692   6.788   2.227  14.386  0.6897  0.2521  2.1977
10067TIP3    H251693   6.728   2.354  14.444 -1.6970  1.3160 -2.2214
10068TIP3   OH251694   2.056   2.423   4.956 -0.1971  0.9913 -0.3408
10068TIP3    H151695   2.022   2.467   5.034  1.0640  1.2850  0.0552
10068TIP3    H251696   2.132   2.375   4.987 -0.3168  0.2262 -1.1914
10069TIP3   OH251697   2.462   0.811  17.177 -0.1344  0.5170  0.2784
10069TIP3    H151698   2.434   0.869  17.107 -1.6913 -0.4828  0.0274
10069TIP3    H251699   2.393   0.745  17.183  0.6196 -0.1885  1.8614
10070TIP3   OH251700   6.432   0.307   2.643 -0.0468 -0.3295  0.3846
10070TIP3    H151701   6.507   0.325   2.586 -0.7764 -1.5839 -1.0266
10070TIP3    H251702   6.356   0.308   2.585 -0.8226 -1.5782  1.3196
10071TIP3   OH251703   1.723   1.374   5.074 -0.1672 -0.2086 -0.1248
10071TIP3    H151704   1.633   1.368   5.042 -0.8068  3.4986  0.5868
10071TIP3    H251705   1.777   1.357   4.996 -1.5466  0.3983 -1.2546
10072TIP3   OH251706   4.381   4.584  12.328 -0.1200 -0.0632 -0.5559
10072TIP3    H151707   4.313   4.650  12.316 -0.4227 -0.4026 -0.7053
10072TIP3    H251708   4.432   4.616  12.403 -1.7425 -0.8833  0.9750
10073TIP3   OH251709   6.354   2.363  13.727  0.2727 -0.7004 -0.0880
10073TIP3    H151710   6.429   2.416  13.699 -0.7632  1.1664  0.5166
10073TIP3    H251711   6.337   2.390  13.817 -0.9869 -1.2738 -0.1315
10074TIP3   OH251712   2.023   1.330   2.496  0.0851 -0.1311  0.5800
10074TIP3    H151713   2.047   1.415   2.533 -0.7906  0.9828 -1.2793
10074TIP3    H251714   1.957   1.295   2.556 -1.8936  1.9807 -0.2555
10075TIP3   OH251715   6.558   6.305   5.337  0.4107 -0.9132  0.7445
10075TIP3    H151716   6.536   6.373   5.400  1.1420 -1.1199  1.2355
10075TIP3    H251717   6.531   6.341   5.253  0.5720 -0.1167  1.0247
10076TIP3   OH251718   2.720   1.601   3.135  0.7249  0.3729 -0.0790
10076TIP3    H151719   2.804   1.634   3.106  1.3185  0.4205  1.5612
10076TIP3    H251720   2.663   1.678   3.139  0.3833  0.2449 -1.7951
10077TIP3   OH251721   2.517   5.294   2.831 -0.3655 -0.1147 -1.2373
10077TIP3    H151722   2.528   5.209   2.788 -1.3001 -1.3478  0.8093
10077TIP3    H251723   2.430   5.289   2.871 -0.0357  1.4301 -0.2640
10078TIP3   OH251724   3.996   2.948  14.912 -0.2862  0.1175 -0.1488
10078TIP3    H151725   3.965   2.866  14.950 -1.0698 -0.9903 -2.9748
10078TIP3    H251726   3.917   2.988  14.874  0.3434  1.4948 -0.0753
10079TIP3   OH251727   0.226   6.309  15.709  0.3595 -0.1513  0.1825
10079TIP3    H151728   0.179   6.284  15.788 -1.3938 -0.6521 -0.9881
10079TIP3    H251729   0.216   6.404  15.705 -1.4906 -0.3516 -0.5985
10080TIP3   OH251730   1.469   6.051  17.077 -0.1981 -0.1194  0.6838
10080TIP3    H151731   1.432   6.101  17.004 -0.6937 -1.1481  0.2158
10080TIP3    H251732   1.557   6.088  17.089 -0.8302  1.3910  0.8829
10081TIP3   OH251733   6.358   3.771   2.037  0.3372 -0.3390 -0.5611
10081TIP3    H151734   6.381   3.853   2.081 -0.7955 -0.0230 -0.5382
10081TIP3    H251735   6.374   3.703   2.103  0.0239 -0.0079 -0.1413
10082TIP3   OH251736   0.715   2.582  16.344 -0.0626 -0.5793  0.4023
10082TIP3    H151737   0.698   2.619  16.257 -2.6177 -1.6251  0.3842
10082TIP3    H251738   0.753   2.655  16.393  0.7528  0.2513 -1.3429
10083TIP3   OH251739   2.327   6.128   3.656  0.5816 -0.0289  0.2521
10083TIP3    H151740   2.332   6.046   3.607  0.9460 -0.8355  1.5962
10083TIP3    H251741   2.383   6.114   3.732  1.8153  1.9861 -0.2105
10084TIP3   OH251742   5.675   2.170   2.917  0.3899  0.3459 -0.0226
10084TIP3    H151743   5.718   2.088   2.941  0.4935  0.4242  0.0559
10084TIP3    H251744   5.587   2.162   2.954  0.8412  0.8678  1.2227
10085TIP3   OH251745   1.600   4.092  16.521  0.2468  0.2503 -0.2939
10085TIP3    H151746   1.556   4.169  16.485 -2.4894 -1.2653 -0.3879
10085TIP3    H251747   1.664   4.067  16.455  2.4626  3.3328  0.4537
10086TIP3   OH251748   2.337   0.398  11.093 -0.1935 -0.6199  0.4320
10086TIP3    H151749   2.338   0.369  11.002  1.6416 -0.5423  0.3899
10086TIP3    H251750   2.302   0.487  11.090 -0.0555 -0.5840 -0.2071
10087TIP3   OH251751   1.388   0.119   1.122 -0.4403  0.4145 -0.7121
10087TIP3    H151752   1.301   0.148   1.149  0.7362  0.8965  3.1703
10087TIP3    H251753   1.417   0.185   1.059 -1.8430  1.7361 -0.0418
10088TIP3   OH251754   5.202   3.846  14.781  0.3328  0.3062 -0.5532
10088TIP3    H151755   5.256   3.858  14.703 -0.0681  0.3118 -0.8336
10088TIP3    H251756   5.222   3.921  14.837 -0.5285  1.1259 -1.3302
10089TIP3   OH251757   3.875   0.084  15.708 -0.8335  0.5859  0.6690
10089TIP3    H151758   3.865   0.091  15.803  0.2008  0.8545  0.7740
10089TIP3    H251759   3.839  -0.002  15.686  0.5603 -0.2592  1.5678
10090TIP3   OH251760   2.077   0.139  14.909 -0.0001 -0.3545 -0.0401
10090TIP3    H151761   2.010   0.193  14.866 -2.2779  0.4514  3.9826
10090TIP3    H251762   2.049   0.049  14.895 -0.1545 -0.1603 -1.0030
10091TIP3   OH251763   1.553   1.680  15.093  0.4358  0.0619 -0.5556
10091TIP3    H151764   1.535   1.728  15.174 -0.7438 -1.8614  0.3879
10091TIP3    H251765   1.649   1.684  15.084  0.9931 -2.0191  2.5470
10092TIP3   OH251766   1.706   2.480  11.775  0.2361 -0.0199 -0.0092
10092TIP3    H151767   1.801   2.467  11.773  0.4069  1.1522 -1.0750
10092TIP3    H251768   1.670   2.407  11.725  0.6366 -0.1170 -0.1571
10093TIP3   OH251769   2.483   0.956  15.801 -0.4380  0.1685  0.5449
10093TIP3    H151770   2.537   0.891  15.755  0.2120  0.3864  0.9936
10093TIP3    H251771   2.425   0.903  15.856  0.3277 -0.0483  1.1793
10094TIP3   OH251772   6.231   3.321   5.828  0.5285  0.7431 -0.2527
10094TIP3    H151773   6.269   3.343   5.913  0.2590  1.1053 -0.2246
10094TIP3    H251774   6.272   3.238   5.804  3.3162  2.3419 -1.4344
10095TIP3   OH251775   5.818   3.353   0.562 -0.2567 -0.1340  0.0661
10095TIP3    H151776   5.865   3.340   0.480 -0.4358 -1.6573  0.1781
10095TIP3    H251777   5.745   3.410   0.540  1.5413  2.2522 -0.1241
10096TIP3   OH251778   5.787   4.033   6.659 -0.4574 -0.3763 -0.2027
10096TIP3    H151779   5.729   4.038   6.735 -0.0731  0.1762  0.0633
10096TIP3    H251780   5.737   4.073   6.588 -0.0023  1.0927  0.2848
10097TIP3   OH251781   2.809   1.825  12.588 -0.1578  0.3505 -0.1299
10097TIP3    H151782   2.784   1.867  12.506  0.1408  1.1129  0.1618
10097TIP3    H251783   2.810   1.896  12.653 -0.3392 -0.2306  0.5237
10098TIP3   OH251784   4.134   6.552   2.576 -0.1330 -0.1606  0.0614
10098TIP3    H151785   4.139   6.510   2.662 -2.7111  0.4486  0.5982
10098TIP3    H251786   4.049   6.526   2.541  0.0376  1.1400 -1.4780
10099TIP3   OH251787   1.988   4.762   1.571 -0.2858  0.1995 -0.2283
10099TIP3    H151788   2.020   4.684   1.525  0.6590 -0.2145  1.0660
10099TIP3    H251789   1.910   4.788   1.522  0.9935  0.1602 -2.4462
10100TIP3   OH251790   5.351   0.245  13.623 -0.1942  0.2044 -0.7026
10100TIP3    H151791   5.371   0.182  13.553  0.9935  0.5716 -0.7253
10100TIP3    H251792   5.298   0.197  13.685  0.0550 -0.5950 -1.0976
10101TIP3   OH251793   5.239   1.410  13.824 -0.8503  0.0997  0.1331
10101TIP3    H151794   5.183   1.484  13.848  0.1166  0.9937 -0.2558
10101TIP3    H251795   5.273   1.433  13.738 -0.9524 -1.0665 -0.2313
10102TIP3   OH251796   0.294   3.426  15.248 -0.1419  0.6706  0.0464
10102TIP3    H151797   0.263   3.510  15.213 -2.9279  0.6076  2.0361
10102TIP3    H251798   0.223   3.365  15.230  1.8205 -1.3656 -1.3359
10103TIP3   OH251799   2.660   6.082  14.142  0.3773  0.0939  0.0978
10103TIP3    H151800   2.629   6.172  14.140 -1.1683 -0.4135 -0.4210
10103TIP3    H251801   2.643   6.052  14.231 -0.1896 -0.0276 -0.0472
10104TIP3   OH251802   6.451   0.779  12.389 -0.0630 -0.1544 -0.0868
10104TIP3    H151803   6.492   0.843  12.448  1.6542 -2.1393  1.0058
10104TIP3    H251804   6.364   0.814  12.373  0.2762  1.6939  1.6744
10105TIP3   OH251805   3.298   0.702  15.449 -0.0520 -0.1597 -0.5299
10105TIP3    H151806   3.384   0.716  15.488 -1.1980 -0.5666  2.3830
10105TIP3    H251807   3.252   0.645  15.510 -2.3530 -0.1228 -2.0753
10106TIP3   OH251808   1.310   4.386   1.477  0.2883 -0.8260 -0.3474
10106TIP3    H151809   1.381   4.439   1.514 -0.0802 -0.6625  0.1245
10106TIP3    H251810   1.245   4.449   1.448 -0.9526 -1.0268  1.8074
10107TIP3   OH251811   1.808   5.786   3.500 -0.3521  0.1229 -0.1495
10107TIP3    H151812   1.753   5.755   3.572  0.2778 -0.5164  0.0664
10107TIP3    H251813   1.897   5.761   3.525  0.0785  1.3550 -0.3875
10108TIP3   OH251814   1.079   1.571   0.688  0.2247 -0.3532 -0.2686
10108TIP3    H151815   1.042   1.483   0.692 -1.0927  0.2001  0.3068
10108TIP3    H251816   1.037   1.610   0.611 -1.4617  0.7127  1.1244
10109TIP3   OH251817   1.459   3.532   1.918  0.4171  0.1005  0.3769
10109TIP3    H151818   1.441   3.457   1.973 -1.3842 -1.4208 -2.0779
10109TIP3    H251819   1.477   3.604   1.979  1.3293 -2.0698  2.8175
10110TIP3   OH251820   6.470   6.536   5.212  0.0153 -0.5193 -0.4882
10110TIP3    H151821   6.431   6.621   5.193  0.2075 -0.8095 -2.2882
10110TIP3    H251822   6.522   6.516   5.135  1.2144 -1.5805  0.5619
10111TIP3   OH251823   0.206   3.802   5.538  0.6498 -0.0419 -0.3315
10111TIP3    H151824   0.291   3.812   5.581  0.0965 -2.4855  1.6077
10111TIP3    H251825   0.143   3.833   5.603 -0.2249 -3.9115  0.9335
10112TIP3   OH251826   5.135   6.658   5.521  0.1747 -0.1850 -0.5377
10112TIP3    H151827   5.181   6.574   5.518  2.1413  0.7003  1.8080
10112TIP3    H251828   5.123   6.676   5.614  0.5777  2.4984 -0.9089
10113TIP3   OH251829   6.534   1.526   2.465 -0.6491  0.1182  0.2866
10113TIP3    H151830   6.484   1.596   2.507  0.9034  1.8388 -0.6150
10113TIP3    H251831   6.614   1.519   2.516 -0.0296  0.2106 -0.6548
10114TIP3   OH251832   6.765   5.859   4.105  0.5998 -1.1019 -0.1304
10114TIP3    H151833   6.834   5.915   4.069  0.1232  0.3093  1.0666
10114TIP3    H251834   6.708   5.841   4.030  1.9861 -1.9253 -1.0365
10115TIP3   OH251835   2.827   4.938   5.854 -0.1547 -0.2424  0.3782
10115TIP3    H151836   2.771   4.908   5.925 -1.0332 -0.4264 -0.3775
10115TIP3    H251837   2.909   4.890   5.868 -0.5134 -0.7262  0.9251
10116TIP3   OH251838   6.399   0.405  13.776 -0.2012  0.5420  0.0434
10116TIP3    H151839   6.313   0.387  13.738  0.0414 -1.3986  0.2682
10116TIP3    H251840   6.440   0.466  13.716  0.2406 -2.5256 -3.1198
10117TIP3   OH251841   1.990   2.868   4.416 -0.2405 -0.7793  0.0133
10117TIP3    H151842   2.036   2.794   4.457 -0.3887 -0.5637  0.5745
10117TIP3    H251843   2.059   2.933   4.402 -0.1737 -0.8862 -0.1775
10118TIP3   OH251844   0.203   3.338  17.002 -0.8856  0.5537  0.0937
10118TIP3    H151845   0.224   3.293  16.920 -1.3968  0.0009  0.2624
10118TIP3    H251846   0.175   3.426  16.974  1.0701  1.1500 -0.1679
10119TIP3   OH251847   3.187   0.300  13.330  0.6404 -0.0245 -0.1624
10119TIP3    H151848   3.177   0.215  13.288 -1.3463  0.9921 -1.9437
10119TIP3    H251849   3.198   0.362  13.257 -1.3930  1.6395  0.8248
10120TIP3   OH251850   1.688   5.020  11.390  0.5724 -0.1092  0.7130
10120TIP3    H151851   1.739   4.940  11.376 -0.6423 -0.8527  0.3978
10120TIP3    H251852   1.648   5.007  11.476 -0.8081 -0.5214  0.0286
10121TIP3   OH251853   0.561   4.647  15.025  0.2349 -0.1298  0.1861
10121TIP3    H151854   0.594   4.566  14.985  0.3738 -1.0693  2.0887
10121TIP3    H251855   0.615   4.658  15.103  0.5592  2.1291 -0.2906
10122TIP3   OH251856   6.356   4.863  10.502  0.1777 -0.5314  0.2473
10122TIP3    H151857   6.278   4.907  10.466  0.9923  0.3064 -0.5414
10122TIP3    H251858   6.414   4.935  10.527  0.0568 -1.1168  2.3385
10123TIP3   OH251859   1.165   2.395  16.686 -0.4249  0.6174  0.2906
10123TIP3    H151860   1.222   2.318  16.690 -0.6353  0.5040  1.5330
10123TIP3    H251861   1.152   2.411  16.593 -2.7514 -2.6647 -0.1269
10124TIP3   OH251862   1.302   6.632  16.281  0.6608 -0.1962 -0.5203
10124TIP3    H151863   1.337   6.708  16.327 -2.6294 -0.1358  2.2331
10124TIP3    H251864   1.225   6.665  16.235 -0.5246 -1.7287  0.2915
10125TIP3   OH251865   0.018   3.312   3.835  0.0685 -0.2476 -0.0493
10125TIP3    H151866   0.066   3.374   3.889  0.0975  0.3994 -0.8041
10125TIP3    H251867  -0.011   3.363   3.760 -1.5756 -0.6753  0.2459
10126TIP3   OH251868   2.728   0.205   1.695  0.4207 -0.3774 -0.4410
10126TIP3    H151869   2.750   0.138   1.631  1.3518 -1.4990  0.9936
10126TIP3    H251870   2.789   0.277   1.676  0.7572 -0.7392 -0.7577
10127TIP3   OH251871   4.091   1.403  13.057 -0.4302  0.2065 -0.1072
10127TIP3    H151872   4.053   1.397  12.970  0.2335  0.8804 -0.4560
10127TIP3    H251873   4.051   1.331  13.106  0.0952 -0.9325 -1.2948
10128TIP3   OH251874   1.163   4.301   0.983  0.8180 -0.1748 -0.1640
10128TIP3    H151875   1.184   4.386   0.945  2.8277 -0.4836  0.1209
10128TIP3    H251876   1.116   4.322   1.064  0.2304  0.6056 -0.6891
10129TIP3   OH251877   0.776   0.315  13.533  0.2162 -0.5366  0.2359
10129TIP3    H151878   0.718   0.370  13.585  0.0506 -1.3851  0.9676
10129TIP3    H251879   0.863   0.353  13.546  0.0022  0.0295  0.0740
10130TIP3   OH251880   0.222   4.488  15.156  0.3114  0.1724 -0.3474
10130TIP3    H151881   0.214   4.511  15.064  2.3484  1.8170 -0.2073
10130TIP3    H251882   0.268   4.404  15.156 -0.5793 -0.3201 -0.8324
10131TIP3   OH251883   3.088   1.669   4.215 -0.3003  0.8821 -0.6255
10131TIP3    H151884   3.030   1.699   4.145 -1.0333 -1.0803 -0.9148
10131TIP3    H251885   3.034   1.674   4.295  0.0802  1.7589 -0.4082
10132TIP3   OH251886   3.232   0.567  16.769 -0.1298  0.0747  0.2400
10132TIP3    H151887   3.158   0.597  16.823 -2.6185 -1.4862 -2.0457
10132TIP3    H251888   3.248   0.478  16.799  0.1463  0.0699  0.0752
10133TIP3   OH251889   0.122   1.360  13.519 -0.1650 -0.0554 -0.3056
10133TIP3    H151890   0.165   1.410  13.588  0.7754 -0.3820 -0.6513
10133TIP3    H251891   0.189   1.301  13.485 -1.1827 -1.4311 -0.0477
10134TIP3   OH251892   5.571   3.559  16.226  0.4601 -0.3246 -0.5675
10134TIP3    H151893   5.578   3.464  16.232  1.2969 -0.3456 -1.5541
10134TIP3    H251894   5.657   3.587  16.196 -0.6924  0.4115 -3.5415
10135TIP3   OH251895   4.577   6.768  12.369  0.0232 -0.2070  0.0648
10135TIP3    H151896   4.567   6.855  12.330  0.8718 -0.0329  0.2140
10135TIP3    H251897   4.580   6.708  12.295  0.4028 -0.0076 -0.0791
10136TIP3   OH251898   4.951   3.203   0.303 -0.3098 -0.1211 -0.1521
10136TIP3    H151899   4.901   3.271   0.258 -2.2034 -1.9640 -0.9974
10136TIP3    H251900   4.908   3.121   0.279  2.5677 -1.7813 -0.1220
10137TIP3   OH251901   5.141   0.574  15.286  0.5867  0.3826  0.1327
10137TIP3    H151902   5.046   0.563  15.281  0.5255  1.2628 -1.2598
10137TIP3    H251903   5.171   0.565  15.196  2.1292 -2.0504  0.7928
10138TIP3   OH251904   1.281   3.324  15.540  0.3825  0.2641 -0.2624
10138TIP3    H151905   1.209   3.385  15.524 -0.5022 -1.0976 -1.7349
10138TIP3    H251906   1.238   3.241  15.560  1.5669  0.0433  1.6890
10139TIP3   OH251907   2.468   2.742   0.632  0.4647  0.5181 -0.3151
10139TIP3    H151908   2.380   2.747   0.594  0.8173  1.3038 -1.0755
10139TIP3    H251909   2.464   2.669   0.693 -1.1413  1.4865  0.8063
10140TIP3   OH251910   0.125   0.221  10.726 -0.0715  0.5410 -0.1008
10140TIP3    H151911   0.200   0.185  10.773 -0.2271  1.1206  0.6259
10140TIP3    H251912   0.163   0.278  10.659  0.1440  1.0293  0.4273
10141TIP3   OH251913   5.738   5.585   0.687  0.4613 -0.3112  0.2784
10141TIP3    H151914   5.646   5.611   0.687  0.8867  1.3610 -1.1859
10141TIP3    H251915   5.744   5.517   0.620  0.5489  0.7118 -0.7769
10142TIP3   OH251916   3.661   4.051   5.375  0.0192 -0.9490  0.0833
10142TIP3    H151917   3.726   3.981   5.379 -0.8275 -1.9027 -1.6800
10142TIP3    H251918   3.641   4.061   5.282 -2.4218 -0.8208  0.5373
10143TIP3   OH251919   3.598   1.786  14.089  0.6804  0.0252  0.3698
10143TIP3    H151920   3.594   1.859  14.028 -0.3811 -0.1193  0.2542
10143TIP3    H251921   3.592   1.708  14.035  1.4545 -0.1531  0.5250
10144TIP3   OH251922   3.153   0.138  11.798  0.0619 -0.5600 -0.2347
10144TIP3    H151923   3.227   0.088  11.764  0.3507 -0.9611  0.9540
10144TIP3    H251924   3.109   0.171  11.719  0.3100 -2.0228 -1.0291
10145TIP3   OH251925   3.565   6.056   2.452  0.8086 -0.4968 -0.6912
10145TIP3    H151926   3.620   5.987   2.490  2.5701  0.7350 -0.9187
10145TIP3    H251927   3.503   6.078   2.522  0.1298 -2.3396 -0.6456
10146TIP3   OH251928   4.698   5.155  15.100  0.3646 -0.0990 -0.0611
10146TIP3    H151929   4.703   5.249  15.083  1.3669 -0.4109 -1.7317
10146TIP3    H251930   4.789   5.128  15.114  0.1033 -0.8444  0.3009
10147TIP3   OH251931   6.583   4.065  14.629  0.1873  0.2921 -1.1206
10147TIP3    H151932   6.515   4.030  14.687  2.6848 -1.5281  0.9802
10147TIP3    H251933   6.538   4.083  14.547 -2.7293 -1.1144  0.0171
10148TIP3   OH251934   3.096   5.465   1.048  0.1502  0.3161  0.3146
10148TIP3    H151935   3.116   5.411   1.125  0.5334  1.5287  1.1073
10148TIP3    H251936   3.093   5.403   0.975  0.2900 -0.8028  1.2221
10149TIP3   OH251937   4.396   6.486  16.840  0.0002 -0.6083 -0.6176
10149TIP3    H151938   4.330   6.535  16.889 -0.1861 -1.2265 -0.2338
10149TIP3    H251939   4.475   6.540  16.845 -0.2275 -0.3001 -0.2944
10150TIP3   OH251940   6.071   5.185   5.885  0.0174 -0.0846 -0.3220
10150TIP3    H151941   6.019   5.238   5.945  2.5637  1.2859  0.8442
10150TIP3    H251942   6.055   5.095   5.913 -3.0263  0.0811 -1.1993
10151TIP3   OH251943   0.178   0.331  15.019 -0.5538  0.5761  0.4605
10151TIP3    H151944   0.095   0.347  14.974 -1.0248  0.7434  1.3607
10151TIP3    H251945   0.244   0.369  14.962 -0.8054 -1.5719 -1.4518
10152TIP3   OH251946   5.545   1.142  14.740  0.9897 -0.0835  0.9092
10152TIP3    H151947   5.458   1.167  14.708  1.0321  1.1141  1.6704
10152TIP3    H251948   5.572   1.070  14.682 -0.1168  0.1319  0.0875
10153TIP3   OH251949   2.657   0.898  13.598  0.0091 -0.0663 -0.2270
10153TIP3    H151950   2.690   0.974  13.645  0.9317  0.2467 -1.3209
10153TIP3    H251951   2.609   0.936  13.524 -1.7032 -0.5382  0.5915
10154TIP3   OH251952   1.970   0.949   3.659 -0.7454 -0.1762 -0.4452
10154TIP3    H151953   1.931   1.023   3.706  0.3459 -0.2816  0.6936
10154TIP3    H251954   1.917   0.940   3.580 -1.1946  1.5205 -0.3795
10155TIP3   OH251955   5.906   1.539  12.543  0.4293  0.1356 -0.6185
10155TIP3    H151956   5.977   1.553  12.480  2.3478 -2.3985  0.7991
10155TIP3    H251957   5.826   1.551  12.492  1.6866  4.0674 -2.0919
10156TIP3   OH251958   5.665   0.686  11.830  0.8095  0.5529 -0.2995
10156TIP3    H151959   5.613   0.727  11.761  1.1420  0.0105 -0.8865
10156TIP3    H251960   5.604   0.677  11.903  0.0847 -0.0080 -0.9514
10157TIP3   OH251961   3.714   5.025   1.807  0.1822  0.0172  0.1273
10157TIP3    H151962   3.764   4.999   1.883  1.4949 -1.3191 -1.1286
10157TIP3    H251963   3.757   5.105   1.776 -0.3471  0.5557  0.7552
10158TIP3   OH251964   4.496   1.586   6.349 -0.1780  0.5213 -0.2069
10158TIP3    H151965   4.558   1.558   6.416 -0.8268 -0.3421  0.0533
10158TIP3    H251966   4.419   1.614   6.399 -1.4918 -2.1078 -0.5821
10159TIP3   OH251967   5.463   5.207   2.779  0.0465  0.5220  0.5167
10159TIP3    H151968   5.496   5.216   2.689 -2.0502  0.5693 -0.2995
10159TIP3    H251969   5.530   5.154   2.823  2.1278  2.1983 -0.4587
10160TIP3   OH251970   1.481   2.407  15.869  0.3311 -0.1634  0.1275
10160TIP3    H151971   1.428   2.390  15.947  0.8867  2.4824  1.1825
10160TIP3    H251972   1.417   2.416  15.798 -0.1131 -4.0991 -0.1962
10161TIP3   OH251973   4.806   6.124  14.652  0.0627 -0.4426 -0.6104
10161TIP3    H151974   4.830   6.203  14.604 -0.9741  0.0787 -0.2799
10161TIP3    H251975   4.721   6.099  14.616  0.5588 -1.6507 -1.0047
10162TIP3   OH251976   1.550   0.981   6.173 -0.2416  0.7545  0.2795
10162TIP3    H151977   1.638   0.947   6.191 -0.4990 -0.5399 -0.7325
10162TIP3    H251978   1.559   1.076   6.183  1.7680  0.8478 -1.5629
10163TIP3   OH251979   4.207   1.279  14.081  0.0586  0.7738 -0.9185
10163TIP3    H151980   4.247   1.237  14.157  1.7141  1.0417 -1.5980
10163TIP3    H251981   4.137   1.220  14.055 -1.5131  1.3814  1.6458
10164TIP3   OH251982   5.104   2.168  15.605 -0.0800  0.0820 -0.5586
10164TIP3    H151983   5.065   2.235  15.661  0.6980 -0.3764  0.5455
10164TIP3    H251984   5.176   2.213  15.561  0.1528  0.0879 -0.1697
10165TIP3   OH251985   0.390   5.787  15.558 -0.0764 -0.1457 -0.0674
10165TIP3    H151986   0.354   5.875  15.550  1.4300  0.4824 -0.2069
10165TIP3    H251987   0.358   5.756  15.643  1.2795  1.4561  1.0747
10166TIP3   OH251988   6.814   4.356   4.872  0.1109  0.3306  0.2237
10166TIP3    H151989   6.835   4.448   4.888 -2.1367  1.0946 -0.7103
10166TIP3    H251990   6.794   4.321   4.959  3.3383 -0.0320  0.9294
10167TIP3   OH251991   1.463   5.400  11.814  0.1755  0.1553 -0.0460
10167TIP3    H151992   1.532   5.451  11.857 -1.3298  0.1351  2.6067
10167TIP3    H251993   1.382   5.446  11.837 -0.8392 -0.3940 -2.2303
10168TIP3   OH251994   2.999   0.140   0.793 -0.6950  0.1443  0.1321
10168TIP3    H151995   3.043   0.215   0.753 -0.5985  0.4208  0.7587
10168TIP3    H251996   2.966   0.090   0.718 -1.1404  1.0388 -0.2859
10169TIP3   OH251997   5.737   4.494   6.135  0.5509 -0.4745  0.4943
10169TIP3    H151998   5.685   4.438   6.193 -0.0132 -0.6852 -0.2077
10169TIP3    H251999   5.719   4.461   6.047 -1.7286  2.3157 -0.2121
10170TIP3   OH252000   0.090   1.252  14.191 -0.5852 -0.5864 -0.5696
10170TIP3    H152001   0.086   1.287  14.102 -0.7663 -1.3071 -0.8515
10170TIP3    H252002   0.172   1.201  14.193  0.7633  1.5018  0.4695
10171TIP3   OH252003   5.453   0.501  12.208 -0.2670  0.0947  0.9744
10171TIP3    H152004   5.518   0.432  12.221 -0.5596  0.0627  2.4467
10171TIP3    H252005   5.503   0.582  12.217  0.3804  0.1783 -2.2584
10172TIP3   OH252006   2.413   4.529   4.824  0.1097  0.0753  0.5436
10172TIP3    H152007   2.496   4.535   4.871 -0.4365  1.0150  1.4301
10172TIP3    H252008   2.381   4.441   4.841  0.8182 -0.2241  0.3578
10173TIP3   OH252009   4.071   3.240  13.250 -0.2531  0.5468 -0.2012
10173TIP3    H152010   4.053   3.281  13.165  1.6697  0.6865 -0.6034
10173TIP3    H252011   4.143   3.292  13.287 -1.9035  1.3211  2.1639
10174TIP3   OH252012   1.104   2.746   1.713  0.2281 -0.2165 -0.5105
10174TIP3    H152013   1.056   2.821   1.749  0.4487 -0.2356 -0.1753
10174TIP3    H252014   1.067   2.735   1.625 -1.4558 -1.1618  0.2620
10175TIP3   OH252015   0.677   2.622  14.094  0.3494  0.1412  0.5322
10175TIP3    H152016   0.696   2.613  14.188  0.8855 -0.4443  0.3736
10175TIP3    H252017   0.590   2.662  14.091 -0.5213 -1.5644  1.3081
10176TIP3   OH252018   2.825   0.136   2.370 -0.1412 -0.0686  0.3078
10176TIP3    H152019   2.772   0.215   2.383 -0.6438 -0.1304 -1.1345
10176TIP3    H252020   2.899   0.146   2.430 -1.4518  0.3182  1.9340
10177TIP3   OH252021   4.297   2.533   3.933 -0.0853 -0.2544 -0.3117
10177TIP3    H152022   4.331   2.464   3.876  0.0439 -0.5324  0.0956
10177TIP3    H252023   4.206   2.542   3.907 -0.3221 -1.1459  0.1701
10178TIP3   OH252024   4.806   1.377  15.354 -0.4180 -0.1111 -0.4117
10178TIP3    H152025   4.772   1.449  15.408  0.0043  0.9448 -1.4934
10178TIP3    H252026   4.901   1.392  15.351 -0.4702  0.0945 -1.7380
10179TIP3   OH252027   1.407   1.794  11.440  1.0040 -0.0843  0.1654
10179TIP3    H152028   1.459   1.749  11.373  1.0582  0.4093 -0.1313
10179TIP3    H252029   1.469   1.852  11.483  0.5047  1.3569 -0.9461
10180TIP3   OH252030   3.004   6.460   0.243  0.2377  0.4881 -0.2087
10180TIP3    H152031   3.029   6.528   0.180  1.2007 -0.1381 -0.5256
10180TIP3    H252032   3.002   6.505   0.328 -0.8458  1.2884 -0.6265
10181TIP3   OH252033   4.469   1.095  16.029 -0.0208  0.4039 -0.3520
10181TIP3    H152034   4.442   1.187  16.021 -1.0326  0.0086 -1.8300
10181TIP3    H252035   4.516   1.076  15.948  0.1897 -0.3948 -0.0577
10182TIP3   OH252036   5.078   0.786  11.342 -0.7433 -0.4362  0.3825
10182TIP3    H152037   5.064   0.697  11.309 -0.4275 -0.6854  0.9090
10182TIP3    H252038   5.160   0.780  11.392  0.4463  0.6097 -1.3238
10183TIP3   OH252039   5.543   2.602  16.103 -0.7124  0.2246 -0.3227
10183TIP3    H152040   5.570   2.522  16.149 -0.8809  0.4845  0.2412
10183TIP3    H252041   5.621   2.657  16.103 -0.6580  0.1490 -0.5203
10184TIP3   OH252042   3.878   0.816   3.254 -0.5206 -0.5736  0.1850
10184TIP3    H152043   3.891   0.779   3.341  0.0004 -0.9755 -0.0604
10184TIP3    H252044   3.966   0.837   3.223 -0.8066  1.4723  0.5628
10185TIP3   OH252045   1.728   2.608  12.753 -0.0292 -0.2476  0.0116
10185TIP3    H152046   1.682   2.665  12.815  1.1706  1.5734 -0.6734
10185TIP3    H252047   1.678   2.618  12.671  0.4832  0.2634 -0.2468
10186TIP3   OH252048   2.212   4.414  14.223  0.3679  0.5602  0.2663
10186TIP3    H152049   2.277   4.416  14.153  0.0572  2.0779 -0.0083
10186TIP3    H252050   2.128   4.420  14.177  0.1470  1.1567  0.7347
10187TIP3   OH252051   5.497   5.018  15.575 -0.5321 -0.0490  0.0353
10187TIP3    H152052   5.529   4.940  15.620 -1.6882 -0.3741  0.3278
10187TIP3    H252053   5.476   4.988  15.487 -2.2942 -0.4274  0.5477
10188TIP3   OH252054   3.676   5.043  13.500  0.2202 -0.5500 -0.3597
10188TIP3    H152055   3.674   5.138  13.490  0.8713 -0.4579  0.3000
10188TIP3    H252056   3.586   5.020  13.524  0.4058  0.0949  1.0594
10189TIP3   OH252057   5.618   3.191  14.474 -0.1285  0.4188  0.2643
10189TIP3    H152058   5.559   3.126  14.511 -0.1445  0.4333  0.2643
10189TIP3    H252059   5.633   3.254  14.545  0.1749  0.2203  0.3775
10190TIP3   OH252060   5.807   6.338  13.090  0.2950 -0.0687 -0.1222
10190TIP3    H152061   5.847   6.314  13.007  0.3041 -0.5198  0.0105
10190TIP3    H252062   5.775   6.427  13.076  1.3706  0.3156 -0.2173
10191TIP3   OH252063   2.418   3.001   0.527 -1.1100 -0.2026 -0.1617
10191TIP3    H152064   2.452   2.914   0.549 -0.2737 -0.0216 -0.6881
10191TIP3    H252065   2.396   2.995   0.434  2.1178  1.0765 -1.1304
10192TIP3   OH252066   3.898   4.172   6.528 -0.2338  0.3538  0.1820
10192TIP3    H152067   3.988   4.151   6.552 -0.6673 -1.0472  0.6693
10192TIP3    H252068   3.846   4.152   6.606 -1.1484 -0.3149 -0.5763
10193TIP3   OH252069   3.445   3.214  14.879 -0.0277  0.3119 -0.7936
10193TIP3    H152070   3.393   3.175  14.949  1.9131  0.0588  0.6070
10193TIP3    H252071   3.443   3.308  14.897  0.9114  0.1992 -0.0450
10194TIP3   OH252072   1.339   1.394  11.190  0.1140 -0.5421 -0.0721
10194TIP3    H152073   1.333   1.428  11.279  1.1860 -1.8308  0.5155
10194TIP3    H252074   1.251   1.406  11.154 -0.1484  0.6527  0.8904
10195TIP3   OH252075   1.140   4.479  15.707 -0.0919 -0.1211 -0.3885
10195TIP3    H152076   1.051   4.451  15.728  0.0058 -0.8518 -0.8730
10195TIP3    H252077   1.154   4.558  15.759 -1.1183  0.1586 -0.5143
10196TIP3   OH252078   3.859   0.200   3.977  0.4213 -0.3047  0.2106
10196TIP3    H152079   3.889   0.128   3.922  2.4956  0.1725  0.6572
10196TIP3    H252080   3.845   0.272   3.916  1.5378 -0.1345  0.1379
10197TIP3   OH252081   4.100   5.441  13.389 -0.1024 -0.1469  0.6661
10197TIP3    H152082   4.131   5.457  13.300 -0.8388 -0.2152  0.3861
10197TIP3    H252083   4.006   5.458  13.385  0.0769  1.3362  1.7949
10198TIP3   OH252084   0.535   0.381  15.800 -0.6850  0.2559 -0.2280
10198TIP3    H152085   0.494   0.328  15.731  1.3572 -0.2282 -1.1555
10198TIP3    H252086   0.505   0.341  15.882  1.4178 -3.0377 -0.8579
10199TIP3   OH252087   0.720   3.658   1.673 -0.0621  0.2526  0.1251
10199TIP3    H152088   0.697   3.681   1.763 -2.5828  1.0994 -0.6355
10199TIP3    H252089   0.689   3.732   1.620  1.1617 -0.3130 -1.4750
10200TIP3   OH252090   1.088   5.003  16.502  0.6502  0.3810  0.0806
10200TIP3    H152091   1.053   4.962  16.581  0.6606 -0.8583 -0.5407
10200TIP3    H252092   1.035   4.968  16.431  0.1118  2.1012 -0.4233
10201TIP3   OH252093   0.206   0.743  12.973 -0.4437  0.3346 -0.4736
10201TIP3    H152094   0.220   0.805  13.044 -0.3863 -0.2134 -0.0006
10201TIP3    H252095   0.199   0.797  12.895  0.7264  0.8669 -0.2261
10202TIP3   OH252096   3.186   0.950  10.294 -0.2318  0.0463  0.1629
10202TIP3    H152097   3.148   0.889  10.357 -0.4341 -0.5515 -0.5275
10202TIP3    H252098   3.112   1.002  10.263 -0.1887  0.1088  0.1656
10203TIP3   OH252099   4.877   4.326   3.879 -0.4960 -0.2129  0.4348
10203TIP3    H152100   4.924   4.347   3.799  1.0009 -0.2984  1.2459
10203TIP3    H252101   4.811   4.262   3.852 -1.6453  1.5410 -1.1181
10204TIP3   OH252102   5.331   1.474  15.157  0.3282 -0.4967  0.6028
10204TIP3    H152103   5.328   1.509  15.068  2.4526  0.4498  0.8424
10204TIP3    H252104   5.403   1.412  15.156  0.3432 -0.5164  1.6429
10205TIP3   OH252105   0.088   2.653  12.493 -0.1181  0.5446 -0.0745
10205TIP3    H152106   0.062   2.662  12.402 -1.4034  2.6978  0.4238
10205TIP3    H252107   0.089   2.559  12.509 -1.9071  0.1825 -1.7484
10206TIP3   OH252108   2.248   3.560   4.710  0.2483  0.6665 -0.6764
10206TIP3    H152109   2.241   3.467   4.726 -1.0307  0.7663 -0.5623
10206TIP3    H252110   2.328   3.570   4.659 -0.5096 -0.7112 -2.2155
10207TIP3   OH252111   6.343   0.918   3.110  0.5351 -0.1035 -0.4488
10207TIP3    H152112   6.389   0.885   3.188 -0.4967  0.1246  0.2789
10207TIP3    H252113   6.267   0.965   3.146  1.1558  1.7880 -1.4993
10208TIP3   OH252114   6.013   3.205   5.450  0.0129 -0.5484 -0.7512
10208TIP3    H152115   6.101   3.240   5.436 -0.6082  0.8942 -1.2075
10208TIP3    H252116   6.028   3.121   5.493  1.5623  0.2071  0.2867
10209TIP3   OH252117   6.421   5.419   2.024 -0.3727  0.6409 -0.3925
10209TIP3    H152118   6.412   5.340   2.078 -0.1411  1.3701  0.7375
10209TIP3    H252119   6.437   5.490   2.087 -1.4439  1.7440 -1.3293
10210TIP3   OH252120   5.271   4.787   3.013 -0.3720  0.0023 -0.4209
10210TIP3    H152121   5.221   4.865   2.989 -2.0969 -0.1619  2.2558
10210TIP3    H252122   5.219   4.714   2.978 -0.8281 -0.0754  0.3998
10211TIP3   OH252123   4.353   1.784   3.305 -0.1043  0.5596  0.3338
10211TIP3    H152124   4.323   1.786   3.214  2.7856 -1.6218 -0.8449
10211TIP3    H252125   4.334   1.694   3.334  0.2912  0.8100  1.3909
10212TIP3   OH252126   5.314   3.052  16.183  0.0264 -0.1869 -0.3023
10212TIP3    H152127   5.228   3.092  16.197 -0.1970 -0.1984 -1.5608
10212TIP3    H252128   5.361   3.114  16.127 -0.6905 -2.0324 -3.1825
10213TIP3   OH252129   1.218   4.972  15.146  0.0182 -0.5233  0.5672
10213TIP3    H152130   1.244   5.064  15.135 -2.6773  0.2024 -0.6393
10213TIP3    H252131   1.292   4.922  15.113  1.6611  1.1872  1.4673
10214TIP3   OH252132   6.531   3.705  13.549 -0.0021  0.3145  0.4193
10214TIP3    H152133   6.502   3.787  13.509 -0.3393 -0.1545 -0.3111
10214TIP3    H252134   6.499   3.637  13.490  1.3656 -0.2844  0.3374
10215TIP3   OH252135   3.411   1.518   4.564  0.2781  0.5972 -0.0124
10215TIP3    H152136   3.340   1.519   4.627  1.1567 -0.9020  1.0795
10215TIP3    H252137   3.368   1.505   4.480 -0.7869  0.6557  0.5066
10216TIP3   OH252138   6.310   1.342  13.692 -0.4011 -0.2411  0.2349
10216TIP3    H152139   6.261   1.417  13.659 -1.4553 -1.0613 -0.1265
10216TIP3    H252140   6.339   1.296  13.614  1.2756  0.4011  0.4408
10217TIP3   OH252141   4.281   6.697  13.078  0.3329  0.4539  0.0784
10217TIP3    H152142   4.230   6.617  13.066  0.3349  0.5666 -0.7252
10217TIP3    H252143   4.234   6.745  13.146 -1.5047  1.2351 -1.6462
10218TIP3   OH252144   0.115   4.230  17.101 -0.4440  0.0726 -0.1785
10218TIP3    H152145   0.192   4.220  17.157 -0.3805  1.1081 -0.0493
10218TIP3    H252146   0.122   4.320  17.067 -1.4448  0.0859 -0.3869
10219TIP3   OH252147   5.059   5.852   5.637 -0.4011 -0.2656  0.0629
10219TIP3    H152148   4.980   5.830   5.588 -0.8717 -1.1836  1.2036
10219TIP3    H252149   5.097   5.925   5.588 -0.8347 -1.1448 -1.6742
10220TIP3   OH252150   6.052   4.455   3.629 -0.9008  0.2098  0.1331
10220TIP3    H152151   6.068   4.549   3.627  0.7934 -0.0699 -0.8167
10220TIP3    H252152   6.119   4.420   3.688  0.3607 -0.6823 -1.7348
10221TIP3   OH252153   3.125   4.505   1.893  0.5178  0.0815  0.0301
10221TIP3    H152154   3.212   4.518   1.932  0.8813  1.4324 -1.1657
10221TIP3    H252155   3.064   4.534   1.961  1.0947  1.0879  0.1438
10222TIP3   OH252156   5.705   2.244  10.645  0.3062  0.0948 -0.3903
10222TIP3    H152157   5.780   2.285  10.689  0.0473 -0.1145  0.2502
10222TIP3    H252158   5.642   2.229  10.715 -0.0382 -0.4050 -0.8076
10223TIP3   OH252159   4.961   4.203   5.034 -0.3182  0.2614 -0.5170
10223TIP3    H152160   4.993   4.264   5.100  0.0165  1.2399 -1.5523
10223TIP3    H252161   5.039   4.155   5.005 -0.0035  1.5126 -1.8773
10224TIP3   OH252162   1.859   6.403   4.901 -0.1964  0.3428  0.0087
10224TIP3    H152163   1.833   6.491   4.873  1.1022  0.8885  0.4116
10224TIP3    H252164   1.863   6.352   4.820  0.1979  0.9891 -0.3908
10225TIP3   OH252165   3.490   1.987   5.430  0.3262 -0.1022  0.3146
10225TIP3    H152166   3.524   2.029   5.509  0.5217  0.4200 -0.0490
10225TIP3    H252167   3.421   1.929   5.463  0.7015 -0.2229  0.9177
10226TIP3   OH252168   0.583   2.105   5.960  0.1175 -0.3764  0.4795
10226TIP3    H152169   0.529   2.054   5.899  1.8621  0.2968 -1.7385
10226TIP3    H252170   0.650   2.044   5.989  1.1619  0.1205 -0.8042
10227TIP3   OH252171   4.639   0.041  16.983  0.3163 -0.3343  0.2026
10227TIP3    H152172   4.549   0.061  16.959  0.3806 -0.6797 -0.3398
10227TIP3    H252173   4.647   0.071  17.074 -0.1936  0.1581  0.0890
10228TIP3   OH252174   5.675   1.583   5.856 -0.2625  0.0594  0.8841
10228TIP3    H152175   5.746   1.542   5.905 -0.0369  0.5418  0.9702
10228TIP3    H252176   5.615   1.511   5.836  1.2239 -0.7504 -0.9504
10229TIP3   OH252177   4.887   3.007   5.067  0.5742 -0.1545  0.4776
10229TIP3    H152178   4.824   3.059   5.117  0.3566  0.8473 -0.7637
10229TIP3    H252179   4.951   3.071   5.036 -0.1956 -0.4247 -1.8535
10230TIP3   OH252180   4.138   5.759  16.018  0.0750 -0.0605  0.1214
10230TIP3    H152181   4.227   5.723  16.015 -0.4236 -1.2950 -1.7336
10230TIP3    H252182   4.151   5.851  16.041  1.9439  0.0061 -0.9030
10231TIP3   OH252183   3.075   2.516  14.613 -0.0324  0.0146 -0.3836
10231TIP3    H152184   3.088   2.425  14.640 -0.6416 -0.3273 -1.2037
10231TIP3    H252185   3.031   2.557  14.687  0.2438 -0.3599 -0.0097
10232TIP3   OH252186   2.258   5.625  13.099 -0.1534  0.3759  0.4337
10232TIP3    H152187   2.195   5.692  13.076 -0.6407 -0.4332 -0.6537
10232TIP3    H252188   2.335   5.674  13.129 -0.9446  1.3822  0.8951
10233TIP3   OH252189   3.704   0.626  14.728  0.1723  0.0939  0.1019
10233TIP3    H152190   3.766   0.624  14.802 -0.3827  0.5599  0.5822
10233TIP3    H252191   3.664   0.713  14.731 -0.3948 -0.1440 -0.3016
10234TIP3   OH252192   3.929   2.911   0.448 -0.2364 -0.0529 -0.0701
10234TIP3    H152193   3.877   2.899   0.369 -1.7685 -0.2041  0.9235
10234TIP3    H252194   4.014   2.872   0.427 -0.2825  0.7721 -1.9500
10235TIP3   OH252195   2.018   5.596   0.954  0.4506 -0.3085 -0.2591
10235TIP3    H152196   1.924   5.579   0.950  0.3128  0.4070 -0.2884
10235TIP3    H252197   2.034   5.617   1.045  0.5483 -0.2555 -0.2886
10236TIP3   OH252198   0.879   4.122   0.275  0.1892 -0.0507 -0.1181
10236TIP3    H152199   0.873   4.155   0.365 -0.2342 -0.9182  0.1749
10236TIP3    H252200   0.969   4.090   0.267  0.1264 -0.2857  0.1060
10237TIP3   OH252201   0.740   1.938   4.817 -0.2824 -0.2450  0.3370
10237TIP3    H152202   0.707   1.923   4.905  0.8112  0.0374  0.8118
10237TIP3    H252203   0.726   2.032   4.803 -0.6625 -0.3326  0.1151
10238TIP3   OH252204   2.965   2.652   4.022 -0.3129  0.3027 -0.2936
10238TIP3    H152205   2.931   2.654   3.932  2.6655  0.4063 -1.5309
10238TIP3    H252206   3.060   2.652   4.011  0.1531 -0.9347  2.8670
10239TIP3   OH252207   0.097   1.519  14.715 -0.5120  0.2512 -0.6570
10239TIP3    H152208   0.181   1.563  14.722 -0.1287 -0.7378  2.6645
10239TIP3    H252209   0.113   1.443  14.658  0.5265  0.6630 -0.9273
10240TIP3   OH252210   5.676   5.981   4.881  0.4845  0.0139  0.3250
10240TIP3    H152211   5.763   5.942   4.877  0.7877  0.7379 -0.3362
10240TIP3    H252212   5.687   6.069   4.843 -0.9950 -0.7203 -1.9997
10241TIP3   OH252213   3.580   1.128  14.079 -0.0201  0.2084 -0.8086
10241TIP3    H152214   3.592   1.141  13.985  0.0775  2.4503 -0.5386
10241TIP3    H252215   3.632   1.196  14.120  0.5492 -1.1836  0.9392
10242TIP3   OH252216   4.581   2.269   1.120 -0.3479 -0.0213  1.0149
10242TIP3    H152217   4.605   2.210   1.191  1.9981 -1.1703 -0.5609
10242TIP3    H252218   4.564   2.211   1.045  0.1100  1.2031 -0.0858
10243TIP3   OH252219   2.051   3.079   1.131 -0.0831 -0.2144 -0.0542
10243TIP3    H152220   1.979   3.044   1.078 -1.1105  0.5080  0.8107
10243TIP3    H252221   2.096   3.141   1.073 -1.2831  0.6799 -0.0764
10244TIP3   OH252222   5.062   4.280  15.953  0.3927 -0.4524  0.0753
10244TIP3    H152223   5.068   4.260  16.047  0.3618  0.5966  0.3104
10244TIP3    H252224   5.112   4.361  15.942 -1.6267  0.8168 -0.3584
10245TIP3   OH252225   3.668   0.584   4.278  0.0670  0.2393 -0.7623
10245TIP3    H152226   3.751   0.614   4.242  0.8441 -0.1952  0.6014
10245TIP3    H252227   3.644   0.508   4.225  2.2391 -1.6703  0.8064
10246TIP3   OH252228   5.262   1.779   5.404 -0.2245 -0.2138 -0.0528
10246TIP3    H152229   5.175   1.774   5.443 -1.2072  0.7249 -1.9508
10246TIP3    H252230   5.248   1.825   5.321  1.8042 -1.5205 -1.2051
10247TIP3   OH252231   3.627   5.888   1.938  0.3464  0.9122  0.2130
10247TIP3    H152232   3.707   5.917   1.895  0.3656  0.7454  0.1338
10247TIP3    H252233   3.640   5.911   2.030  0.1448  1.6047  0.0682
10248TIP3   OH252234   6.817   5.424  16.638 -0.3669  0.0347  0.0540
10248TIP3    H152235   6.816   5.359  16.568 -1.7866 -0.0862  0.1583
10248TIP3    H252236   6.874   5.386  16.705  0.4287 -0.1701 -0.7229
10249TIP3   OH252237   3.236   5.305   3.864 -0.1401 -0.7638 -0.5193
10249TIP3    H152238   3.286   5.285   3.943  1.1081 -1.8226 -1.5141
10249TIP3    H252239   3.298   5.354   3.809 -1.8569  2.4726  0.2013
10250TIP3   OH252240   3.918   6.613  11.091 -0.0217  0.3448 -0.0520
10250TIP3    H152241   3.921   6.618  10.996 -1.7544 -0.6857 -0.1939
10250TIP3    H252242   3.880   6.696  11.119  0.3155  0.5730 -0.2597
10251TIP3   OH252243   2.328   4.991   0.739 -0.2655  0.2294  0.7214
10251TIP3    H152244   2.303   5.083   0.741 -0.3047  0.4196 -2.5931
10251TIP3    H252245   2.246   4.943   0.725  0.0278 -0.0804  0.0230
10252TIP3   OH252246   5.511   4.914   3.160 -0.0813 -0.0327 -0.0513
10252TIP3    H152247   5.464   4.831   3.162 -0.2131 -0.0131 -1.5013
10252TIP3    H252248   5.552   4.921   3.246 -1.0684 -1.0113  0.5073
10253TIP3   OH252249   4.787   3.017   3.770  0.2426  1.1036  0.5200
10253TIP3    H152250   4.872   3.046   3.740  0.8849  0.0146  1.2164
10253TIP3    H252251   4.787   2.922   3.755 -0.3526  0.8990  1.6685
10254TIP3   OH252252   4.516   6.536  16.109 -0.4044 -0.1687 -0.3249
10254TIP3    H152253   4.471   6.530  16.025 -1.2383  3.2310 -0.2956
10254TIP3    H252254   4.591   6.593  16.091  0.2321 -0.5734  0.9484
10255TIP3   OH252255   0.518   0.235   4.528 -0.5574  0.0490 -0.2914
10255TIP3    H152256   0.430   0.213   4.496 -0.4166 -0.3880 -0.3764
10255TIP3    H252257   0.516   0.214   4.621 -0.8389  0.9402 -0.0842
10256TIP3   OH252258   0.905   4.001   5.990 -0.7061 -0.5265  0.3196
10256TIP3    H152259   0.894   3.912   5.956  0.0838  0.1803 -1.9577
10256TIP3    H252260   0.959   3.990   6.069 -0.2608 -2.0299 -0.1613
10257TIP3   OH252261   6.242   6.587  13.616 -0.4026 -0.1320  0.0694
10257TIP3    H152262   6.216   6.532  13.542  0.1242  0.5217 -0.6196
10257TIP3    H252263   6.238   6.676  13.582 -1.1592  0.2592  1.1448
10258TIP3   OH252264   4.744   3.495  16.098  0.6589 -0.1153  0.3236
10258TIP3    H152265   4.715   3.550  16.025 -1.5568 -1.9948 -0.2954
10258TIP3    H252266   4.838   3.484  16.083  0.1857 -0.9067 -2.6184
10259TIP3   OH252267   2.670   5.760   5.315  0.5055  0.6682  0.0583
10259TIP3    H152268   2.723   5.817   5.371  1.2464  0.5001 -0.4530
10259TIP3    H252269   2.636   5.693   5.373 -0.0160  1.3813  0.5876
10260TIP3   OH252270   1.515   5.510   4.162  0.6287  0.0299 -0.6350
10260TIP3    H152271   1.555   5.597   4.169  0.3152  0.0922  0.6647
10260TIP3    H252272   1.422   5.528   4.144  0.4642 -0.0106  0.1414
10261TIP3   OH252273   3.566   5.632   3.417  1.0787  0.7087  0.4581
10261TIP3    H152274   3.630   5.632   3.346  0.5044 -1.5334 -0.1259
10261TIP3    H252275   3.487   5.671   3.377  0.7283 -0.6297 -0.2016
10262TIP3   OH252276   4.644   4.002  16.291  0.4346  0.3218  0.1068
10262TIP3    H152277   4.694   3.920  16.286 -0.0929  0.0579 -1.5473
10262TIP3    H252278   4.553   3.974  16.301  0.3496  0.7415  0.5455
10263TIP3   OH252279   4.092   0.322   3.714  0.0437  0.5340  0.2450
10263TIP3    H152280   4.015   0.372   3.741  0.2304  0.3950  1.0489
10263TIP3    H252281   4.165   0.365   3.757  0.4638  0.8329 -0.7391
10264TIP3   OH252282   0.212   3.759   4.666  0.1962 -0.4198  0.1697
10264TIP3    H152283   0.180   3.748   4.756 -1.3029  1.3740 -0.0700
10264TIP3    H252284   0.136   3.793   4.618  1.4796  0.4738 -1.3277
10265TIP3   OH252285   5.643   5.851   2.498  0.1275 -0.0588 -0.4803
10265TIP3    H152286   5.570   5.912   2.493  0.1536 -0.0888 -1.6694
10265TIP3    H252287   5.663   5.844   2.591 -0.8433  0.5853 -0.2104
10266TIP3   OH252288   3.978   3.574   2.225  0.1417 -0.5410  0.2523
10266TIP3    H152289   3.947   3.558   2.314 -0.6215 -0.0390  0.0804
10266TIP3    H252290   4.064   3.615   2.236 -0.6209  0.9515  0.7920
10267TIP3   OH252291   4.538   3.255   3.187 -0.3953 -1.1636 -0.1029
10267TIP3    H152292   4.630   3.272   3.165  0.0394  1.1665  2.7670
10267TIP3    H252293   4.488   3.307   3.125  0.5739  2.0499  1.5992
10268TIP3   OH252294   5.409   4.253   0.086 -0.2802 -0.0846 -0.3141
10268TIP3    H152295   5.394   4.187   0.155  0.1975  0.2362  0.1023
10268TIP3    H252296   5.445   4.203   0.013 -2.5064 -0.7395 -1.0362
10269TIP3   OH252297   0.383   5.348  15.198  0.1352 -0.1415 -0.5361
10269TIP3    H152298   0.316   5.416  15.208 -0.0281 -0.4288  0.4588
10269TIP3    H252299   0.349   5.274  15.247 -0.0293 -1.2174 -2.2130
10270TIP3   OH252300   0.552   4.369   4.000  0.0372  0.5553  0.0339
10270TIP3    H152301   0.602   4.425   4.059 -1.1722 -0.0190  1.6965
10270TIP3    H252302   0.460   4.388   4.020 -0.4318 -1.9971  0.7382
10271TIP3   OH252303   3.035   5.584   4.553  0.3015 -0.2427  0.6630
10271TIP3    H152304   3.125   5.550   4.549  0.2580 -0.2670 -0.2504
10271TIP3    H252305   2.981   5.510   4.527  0.1856  0.4349 -1.1145
10272TIP3   OH252306   1.893   5.079  12.704 -0.2251 -0.2733  0.0190
10272TIP3    H152307   1.988   5.090  12.695  0.1656 -1.6566  1.7358
10272TIP3    H252308   1.884   4.997  12.753 -2.3218 -0.0803  0.0290
10273TIP3   OH252309   6.141   5.982   3.828 -0.1902 -0.4091 -0.2603
10273TIP3    H152310   6.193   6.054   3.794 -1.0484  0.3418  0.0029
10273TIP3    H252311   6.203   5.909   3.834  1.6511  1.2232  2.8762
10274TIP3   OH252312   3.298   2.429   5.035  0.3043  0.4190 -0.0462
10274TIP3    H152313   3.287   2.355   5.094  1.4462 -0.4972 -0.9349
10274TIP3    H252314   3.226   2.488   5.056 -1.5295 -1.6256 -0.3283
10275TIP3   OH252315   2.571   1.796  16.973  0.2034  0.3549  0.2072
10275TIP3    H152316   2.636   1.858  17.005  0.5898 -1.3728  3.0799
10275TIP3    H252317   2.487   1.839  16.986  0.5953  1.9103 -1.9082
10276TIP3   OH252318   6.777   2.326  15.754 -0.3842 -0.7045 -0.1724
10276TIP3    H152319   6.781   2.247  15.701  0.1350 -0.1713 -0.9590
10276TIP3    H252320   6.869   2.353  15.764 -0.4969 -0.6191  0.7326
10277TIP3   OH252321   2.455   3.137  17.121  0.1554  0.2185 -0.0773
10277TIP3    H152322   2.365   3.152  17.094  0.0563  0.2761  0.2819
10277TIP3    H252323   2.477   3.051  17.085  0.1361  0.4379 -0.6198
10278TIP3   OH252324   3.651   2.763  11.765  0.2320  0.8717  0.2508
10278TIP3    H152325   3.613   2.844  11.799 -1.0781  0.2559  0.3526
10278TIP3    H252326   3.656   2.777  11.670  1.8580  1.7829  0.4439
10279TIP3   OH252327   0.931   4.207   2.116 -0.6523  0.0777 -0.3237
10279TIP3    H152328   1.004   4.161   2.074  1.1367  2.6358 -0.2530
10279TIP3    H252329   0.898   4.265   2.048 -0.4407  1.2889  0.5824
10280TIP3   OH252330   4.255   2.418   2.660  0.3287 -0.5055  0.5611
10280TIP3    H152331   4.252   2.508   2.692 -0.0619 -0.7603  1.2588
10280TIP3    H252332   4.282   2.366   2.735 -0.9541 -1.1580  0.5921
10281TIP3   OH252333   1.760   3.775   2.813  0.5521 -0.1119 -0.1248
10281TIP3    H152334   1.812   3.855   2.824 -0.6294  0.3683  3.8673
10281TIP3    H252335   1.680   3.805   2.770  0.1245  0.9706  1.3117
10282TIP3   OH252336   6.362   2.811   5.168  0.1729  0.2359 -0.2097
10282TIP3    H152337   6.435   2.749   5.172  0.8136  1.0216  1.8167
10282TIP3    H252338   6.397   2.886   5.119  0.7818  0.6314  0.7971
10283TIP3   OH252339   2.659   5.481  14.658  0.3429  0.1846  0.2270
10283TIP3    H152340   2.655   5.530  14.740 -0.4655  3.0109 -1.3759
10283TIP3    H252341   2.751   5.485  14.631  0.6398 -0.8799  0.9978
10284TIP3   OH252342   0.837   4.504  14.801 -0.0361  0.4325  0.6374
10284TIP3    H152343   0.857   4.424  14.752 -1.8570 -0.0498  0.6074
10284TIP3    H252344   0.783   4.556  14.742  1.4904  1.9410  0.4912
10285TIP3   OH252345   1.311   5.600  11.571 -0.1910  0.0271 -0.2022
10285TIP3    H152346   1.379   5.654  11.531 -1.3647  0.5719 -1.5662
10285TIP3    H252347   1.292   5.643  11.654 -0.4538  1.2088 -0.8515
10286TIP3   OH252348   5.279   4.363  10.909 -0.3454 -0.1353 -0.1799
10286TIP3    H152349   5.208   4.371  10.845 -0.0719 -0.1674 -0.4880
10286TIP3    H252350   5.330   4.443  10.898  1.1441 -1.2410 -1.7476
10287TIP3   OH252351   6.292   5.649  12.424  0.4152  0.2734  0.1817
10287TIP3    H152352   6.231   5.638  12.351  1.0377 -0.1116 -0.2919
10287TIP3    H252353   6.236   5.668  12.499 -0.2385  0.6449 -0.3862
10288TIP3   OH252354   4.354   0.932   0.619 -0.1446 -0.4252 -0.3551
10288TIP3    H152355   4.331   1.017   0.583 -0.5416  0.4427  1.8376
10288TIP3    H252356   4.443   0.944   0.653 -0.8910 -0.2826  1.6454
10289TIP3   OH252357   1.986   1.940   4.492  0.4327 -0.2788  0.3885
10289TIP3    H152358   1.962   1.919   4.582 -0.9565  1.5368  0.4995
10289TIP3    H252359   1.909   1.918   4.441  0.2421  1.1626  0.0320
10290TIP3   OH252360   4.397   0.743   0.236 -0.4270 -0.8200  0.1745
10290TIP3    H152361   4.345   0.702   0.168  1.4522 -0.8247 -1.3543
10290TIP3    H252362   4.486   0.711   0.220  0.6729  1.8486  0.4830
10291TIP3   OH252363   3.550   0.139  13.349  0.4176 -0.0351 -0.3026
10291TIP3    H152364   3.509   0.182  13.274  0.7062 -0.8451 -0.9417
10291TIP3    H252365   3.498   0.167  13.425  0.4867  1.2721 -0.7124
10292TIP3   OH252366   0.920   5.516   3.271 -0.4536 -0.2508 -0.1335
10292TIP3    H152367   0.991   5.541   3.212 -0.7435 -0.4030 -0.5575
10292TIP3    H252368   0.874   5.446   3.223  0.2359 -1.4872  0.9290
10293TIP3   OH252369   0.827   2.731   2.506 -0.3022 -0.3552  0.1989
10293TIP3    H152370   0.898   2.698   2.561 -0.2724  0.9411  1.0060
10293TIP3    H252371   0.779   2.653   2.478  1.1948 -1.2261 -0.0345
10294TIP3   OH252372   2.158   2.765  11.735 -0.2058  0.3218  0.3218
10294TIP3    H152373   2.198   2.680  11.751  0.5619  1.0669  2.9287
10294TIP3    H252374   2.221   2.812  11.681  0.8679  0.2479  1.4514
10295TIP3   OH252375   4.325   5.820  11.500 -0.4657 -0.4459  0.5530
10295TIP3    H152376   4.339   5.851  11.590  0.5753  2.3231 -0.4753
10295TIP3    H252377   4.406   5.774  11.478 -0.0257  0.3661  0.4619
10296TIP3   OH252378   5.754   4.357  12.841 -0.1410 -0.6344  0.3221
10296TIP3    H152379   5.828   4.342  12.783 -1.0562  0.8173 -1.3256
10296TIP3    H252380   5.791   4.402  12.917  0.6460  0.3694 -0.6280
10297TIP3   OH252381   5.261   4.004  15.731  1.0800  0.8642  0.2117
10297TIP3    H152382   5.315   4.031  15.804  1.7313  1.0881 -0.3423
10297TIP3    H252383   5.232   4.087  15.691  0.4969  0.7461  0.3817
10298TIP3   OH252384   3.671   3.274  12.725 -0.2424 -0.3317 -0.5364
10298TIP3    H152385   3.748   3.306  12.678  0.2469 -1.1242 -0.3098
10298TIP3    H252386   3.674   3.179  12.712 -0.9696 -0.4014 -0.2028
10299TIP3   OH252387   3.481   2.714  16.020 -0.0867  0.3941  0.4910
10299TIP3    H152388   3.475   2.691  15.927  1.4816  1.2083  0.1543
10299TIP3    H252389   3.427   2.791  16.030 -0.6222  0.0394  0.3580
10300TIP3   OH252390   5.127   2.008  11.646 -0.2037 -0.0771 -0.0925
10300TIP3    H152391   5.206   2.055  11.673 -0.9476  1.1625  0.0179
10300TIP3    H252392   5.139   1.919  11.680  0.8020  0.2976  0.5753
10301TIP3   OH252393   2.602   1.655   5.513  0.5800  0.1034 -0.5861
10301TIP3    H152394   2.542   1.727   5.494  1.2289  0.2718 -2.1623
10301TIP3    H252395   2.571   1.618   5.596  0.1502  2.0918  0.1895
10302TIP3   OH252396   0.226   4.526  13.575  0.2815  0.3860  0.0523
10302TIP3    H152397   0.249   4.436  13.551  3.3058  0.7200  1.3373
10302TIP3    H252398   0.160   4.516  13.644 -2.7602 -0.6440 -2.7318
10303TIP3   OH252399   2.956   5.254   6.600 -0.0485 -0.2968  0.3818
10303TIP3    H152400   2.874   5.285   6.563  0.8716  0.2294 -1.3285
10303TIP3    H252401   2.986   5.325   6.656 -0.4987 -0.2664  0.5807
10304TIP3   OH252402   6.821   2.145  13.184 -0.5004  0.0741 -0.3552
10304TIP3    H152403   6.773   2.203  13.244 -0.5118 -1.5185  1.2413
10304TIP3    H252404   6.868   2.205  13.126  1.1714  1.7762  2.5109
10305TIP3   OH252405   1.158   1.976  17.164  0.4258  0.2289 -0.0757
10305TIP3    H152406   1.211   2.014  17.093  0.2087 -0.1777 -0.4619
10305TIP3    H252407   1.091   2.042  17.182 -0.0244 -0.0083 -0.8275
10306TIP3   OH252408   4.956   5.107   1.385 -0.2720 -0.1728 -0.0132
10306TIP3    H152409   5.015   5.151   1.445 -0.4839 -2.2870  1.8758
10306TIP3    H252410   4.869   5.117   1.425 -0.6377 -0.3022 -0.7582
10307TIP3   OH252411   6.119   0.659  12.084  0.0077 -0.3626  0.3772
10307TIP3    H152412   6.087   0.603  12.014 -0.5249 -1.6793  1.6370
10307TIP3    H252413   6.061   0.643  12.157  2.1347 -1.1139  2.0101
10308TIP3   OH252414   0.969   1.275  13.821 -0.1743 -0.3021  0.1752
10308TIP3    H152415   0.893   1.333  13.816  0.9960  1.4080  1.2652
10308TIP3    H252416   1.005   1.275  13.732  1.1912  2.7041  0.6095
10309TIP3   OH252417   2.104   3.261   2.685 -0.5921 -0.6246 -0.3361
10309TIP3    H152418   2.046   3.201   2.731 -1.2865  0.6556  0.5177
10309TIP3    H252419   2.154   3.304   2.754  0.7921 -1.0805 -1.0091
10310TIP3   OH252420   2.473   0.803   0.991  0.3900  0.0473  0.0652
10310TIP3    H152421   2.398   0.749   1.017  1.3117 -3.3303 -3.2988
10310TIP3    H252422   2.442   0.850   0.914  0.2669  2.9196  1.7487
10311TIP3   OH252423   3.614   3.999   6.081 -0.1312  0.3097 -0.5421
10311TIP3    H152424   3.538   4.031   6.129 -0.3386  1.1577 -1.4064
10311TIP3    H252425   3.689   4.038   6.127 -0.2690  0.2285 -0.2475
10312TIP3   OH252426   6.342   0.754   4.188 -0.5899 -0.3365 -0.3078
10312TIP3    H152427   6.318   0.688   4.123 -0.2940 -1.7401  0.9480
10312TIP3    H252428   6.396   0.817   4.140 -1.9356 -0.2848 -1.8275
10313TIP3   OH252429   2.658   1.422  16.109 -0.2332  0.6234  0.2824
10313TIP3    H152430   2.708   1.446  16.186 -0.7782 -1.5336  1.3901
10313TIP3    H252431   2.603   1.349  16.137  0.4917 -1.1498 -2.4491
10314TIP3   OH252432   5.427   6.581  15.787  0.0138  0.6004  0.0093
10314TIP3    H152433   5.476   6.499  15.797 -0.0705  0.6371  0.7644
10314TIP3    H252434   5.340   6.561  15.821  0.2344  1.2318  0.9743
10315TIP3   OH252435   6.227   6.407  12.878  0.2710 -0.0414 -0.0189
10315TIP3    H152436   6.193   6.459  12.805 -1.7247  0.3762  1.1319
10315TIP3    H252437   6.245   6.470  12.948  0.6400 -0.5949  0.3984
10316TIP3   OH252438   1.401   5.360  11.135  0.1988 -0.4991 -0.1167
10316TIP3    H152439   1.421   5.444  11.178  0.8889 -1.6258  1.8786
10316TIP3    H252440   1.473   5.348  11.073 -0.9103  1.2360 -1.9076
10317TIP3   OH252441   2.260   4.064  11.711  0.0880 -0.3109  0.3854
10317TIP3    H152442   2.240   4.024  11.796  0.1218  0.5119  0.7859
10317TIP3    H252443   2.314   3.999  11.666 -0.1429 -0.8603  0.8904
10318TIP3   OH252444   2.963   5.615   2.101 -0.5971 -0.0114 -0.0728
10318TIP3    H152445   3.052   5.581   2.091 -0.2734  0.7957 -0.0183
10318TIP3    H252446   2.947   5.614   2.195 -1.1230 -1.3078 -0.1510
10319TIP3   OH252447   0.630   4.804  12.280 -0.3382 -0.3163 -0.2424
10319TIP3    H152448   0.571   4.785  12.352 -1.2658  0.0758 -0.8799
10319TIP3    H252449   0.577   4.854  12.218  0.4115 -0.7184 -1.2313
10320TIP3   OH252450   0.442   6.680  13.519  0.4869  0.0784  0.2464
10320TIP3    H152451   0.430   6.642  13.606 -1.8832 -0.5581 -0.2736
10320TIP3    H252452   0.524   6.643  13.487  0.5931 -0.9189  1.6026
10321TIP3   OH252453   5.939   1.030  11.845 -0.3913  0.1056 -0.3071
10321TIP3    H152454   5.968   0.944  11.873 -1.1547  0.0776  0.4312
10321TIP3    H252455   6.013   1.065  11.794  0.2569 -0.6236  0.1115
10322TIP3   OH252456   5.557   4.297  14.110 -0.5723  0.2500 -0.0665
10322TIP3    H152457   5.650   4.310  14.091 -0.8742 -0.9298 -2.7218
10322TIP3    H252458   5.556   4.233  14.181  0.6374  0.0912 -0.1785
10323TIP3   OH252459   5.720   4.408  15.937 -0.1114  0.2603 -0.3828
10323TIP3    H152460   5.684   4.376  16.020 -0.4144  1.9654  0.1878
10323TIP3    H252461   5.644   4.440  15.888  0.1462 -0.0933 -1.0224
10324TIP3   OH252462   5.845   2.053   3.264  0.0502 -0.0397 -0.5431
10324TIP3    H152463   5.803   2.037   3.179 -0.4218 -0.6365 -0.2092
10324TIP3    H252464   5.817   2.141   3.289  0.1676  0.1279 -0.9888
10325TIP3   OH252465   0.674   5.415  14.571 -0.0404  0.2697 -0.2453
10325TIP3    H152466   0.609   5.454  14.629  0.5796 -0.0705  0.7073
10325TIP3    H252467   0.757   5.423  14.619  0.7541  1.2856 -1.7026
10326TIP3   OH252468   5.905   2.578   5.246  0.2085  0.5253 -0.0106
10326TIP3    H152469   5.866   2.493   5.267 -0.4131  0.3671 -1.6352
10326TIP3    H252470   5.913   2.622   5.331  1.3102 -1.4323  0.9936
10327TIP3   OH252471   5.742   2.010  16.012 -0.0482 -0.1397 -0.7952
10327TIP3    H152472   5.761   2.094  15.971  1.0756 -0.2853 -0.6104
10327TIP3    H252473   5.813   1.997  16.075 -1.1734 -0.4022  0.4629
10328TIP3   OH252474   5.355   2.407   4.815  0.5945  0.1697 -0.0545
10328TIP3    H152475   5.325   2.438   4.900 -0.2293 -0.1902 -0.2023
10328TIP3    H252476   5.360   2.312   4.825  0.7084  0.1444 -0.3448
10329TIP3   OH252477   3.129   4.429   1.307 -0.1227  0.3160 -0.3965
10329TIP3    H152478   3.064   4.360   1.289  0.5146 -0.1592 -0.8943
10329TIP3    H252479   3.103   4.463   1.392 -0.3900 -0.6237 -0.0836
10330TIP3   OH252480   3.218   6.135   1.341 -0.2859 -0.3528 -0.0539
10330TIP3    H152481   3.231   6.058   1.396  0.6617 -0.6973 -0.7276
10330TIP3    H252482   3.246   6.209   1.395 -0.5104 -0.5532  0.3425
10331TIP3   OH252483   6.214   2.175  16.736 -0.4028  0.0396  0.1743
10331TIP3    H152484   6.277   2.217  16.676 -1.3151  1.1932 -0.0188
10331TIP3    H252485   6.267   2.114  16.786  0.8189  0.6974 -0.2508
10332TIP3   OH252486   5.833   5.616   4.230 -0.1234 -0.6963  0.2125
10332TIP3    H152487   5.778   5.646   4.302  0.6298 -0.9803  0.9214
10332TIP3    H252488   5.923   5.628   4.261  0.2767  0.9827 -1.4251
10333TIP3   OH252489   4.142   1.567   5.252 -0.3037  0.2477 -0.3104
10333TIP3    H152490   4.078   1.633   5.225 -3.4562 -2.7108 -0.8250
10333TIP3    H252491   4.184   1.540   5.170 -2.4536 -1.5436 -0.9213
10334TIP3   OH252492   3.283   5.235   4.549  0.1089 -0.3443 -0.2834
10334TIP3    H152493   3.335   5.228   4.629  0.1545  0.4019 -0.2453
10334TIP3    H252494   3.195   5.207   4.575  0.6830 -2.6323 -0.5869
10335TIP3   OH252495   1.307   1.757   2.318  1.0375 -0.0822  0.0198
10335TIP3    H152496   1.364   1.724   2.249 -0.8881  1.3385 -2.3981
10335TIP3    H252497   1.245   1.815   2.273 -1.7039 -0.7420  2.6100
10336TIP3   OH252498   0.471   5.881   5.767 -0.3680  0.2586 -0.1477
10336TIP3    H152499   0.466   5.975   5.752 -1.3817 -0.0352 -2.0382
10336TIP3    H252500   0.445   5.869   5.858  0.7888  1.8530  0.4352
10337TIP3   OH252501   0.805   4.789   3.712  0.1433  0.4754 -0.1433
10337TIP3    H152502   0.885   4.841   3.721 -1.1039  3.0800 -2.3990
10337TIP3    H252503   0.778   4.770   3.802  3.6377 -1.2763  0.7075
10338TIP3   OH252504   4.789   5.852   6.443 -0.1225  0.1032 -0.2163
10338TIP3    H152505   4.727   5.844   6.371 -0.9533  0.5274  0.4381
10338TIP3    H252506   4.779   5.771   6.493 -0.4603  0.3621  0.1336
10339TIP3   OH252507   0.821   2.521  15.307 -0.4818  0.0482  0.0121
10339TIP3    H152508   0.835   2.492  15.397  1.8248  0.5032 -0.1256
10339TIP3    H252509   0.878   2.465  15.254 -0.5312  0.8711 -0.9545
10340TIP3   OH252510   4.865   2.566   6.118 -0.5345 -0.2599  0.5398
10340TIP3    H152511   4.856   2.660   6.103  3.0024  0.1331 -0.1179
10340TIP3    H252512   4.850   2.556   6.212 -1.0029  0.9750  0.6209
10341TIP3   OH252513   0.680   3.800   1.161  0.0491  0.2313 -0.8083
10341TIP3    H152514   0.600   3.843   1.190 -0.7474 -0.9149 -1.2284
10341TIP3    H252515   0.696   3.837   1.074 -0.6619 -0.3202 -1.1914
10342TIP3   OH252516   0.384   3.973   0.857  0.2073 -0.5547 -0.4540
10342TIP3    H152517   0.400   3.913   0.929  1.9698 -1.5647 -1.6160
10342TIP3    H252518   0.331   3.922   0.795 -1.9875  0.5620  0.3943
10343TIP3   OH252519   0.336   4.339   5.654  0.1958  0.1127 -0.0412
10343TIP3    H152520   0.407   4.380   5.604  2.7236 -3.3852  0.2543
10343TIP3    H252521   0.341   4.380   5.740  0.9315  0.9343 -0.4567
10344TIP3   OH252522   6.166   3.815  14.351 -0.1329 -0.6257  0.2295
10344TIP3    H152523   6.126   3.902  14.350 -1.6757 -1.2243  2.3323
10344TIP3    H252524   6.097   3.757  14.318  0.2475 -1.2646  0.5484
10345TIP3   OH252525   6.587   5.280  13.075  0.4814  0.4926  0.1226
10345TIP3    H152526   6.535   5.360  13.066 -0.3782 -0.1564 -0.8112
10345TIP3    H252527   6.533   5.211  13.038  0.0236 -1.0469  3.3021
10346TIP3   OH252528   4.533   5.991  16.117 -0.5957 -0.2458  0.4868
10346TIP3    H152529   4.538   5.906  16.160  0.0772  0.3473  1.6196
10346TIP3    H252530   4.465   5.980  16.050  0.1136 -1.9327 -0.0112
10347TIP3   OH252531   3.801   5.382  11.495  0.1458  0.0512  0.3739
10347TIP3    H152532   3.712   5.346  11.491 -0.0636  0.6580 -0.8574
10347TIP3    H252533   3.799   5.444  11.568 -0.4064 -0.0100  0.4123
10348TIP3   OH252534   2.244   2.012  12.780 -0.0927  0.2011  0.3363
10348TIP3    H152535   2.192   2.007  12.860 -1.1231  0.4433 -0.2995
10348TIP3    H252536   2.330   1.978  12.805 -0.4662  0.0565  1.4805
10349TIP3   OH252537   2.426   2.290  11.638  0.5389 -0.4802 -0.2040
10349TIP3    H152538   2.383   2.205  11.634  1.1018 -0.8015  0.3969
10349TIP3    H252539   2.401   2.334  11.557  0.4760 -1.3332 -0.6543
10350TIP3   OH252540   2.531   5.302   0.658 -0.3737  0.0924  0.0441
10350TIP3    H152541   2.488   5.273   0.577  1.0982  1.0523 -1.1455
10350TIP3    H252542   2.484   5.256   0.727 -2.6465  0.3077 -1.2166
10351TIP3   OH252543   1.455   6.091   4.540  0.0130 -0.0810 -0.0448
10351TIP3    H152544   1.407   6.174   4.545  1.4017  0.7391  0.0531
10351TIP3    H252545   1.424   6.041   4.615 -1.5599 -0.0705 -0.6454
10352TIP3   OH252546   0.682   1.645   0.828 -0.2162  0.2070  0.0685
10352TIP3    H152547   0.644   1.729   0.852 -0.9488  0.7178 -2.5098
10352TIP3    H252548   0.646   1.627   0.740 -0.4914 -3.0464  0.7128
10353TIP3   OH252549   1.846   0.280   4.712 -0.0321 -0.3627 -0.1241
10353TIP3    H152550   1.753   0.299   4.702  0.2580  1.4250  0.2899
10353TIP3    H252551   1.848   0.202   4.767 -1.2714 -0.4758 -0.1993
10354TIP3   OH252552   5.078   3.054   1.224  0.0433  0.5528 -0.1483
10354TIP3    H152553   5.137   3.014   1.161 -0.6381 -0.1011 -0.3811
10354TIP3    H252554   5.112   3.143   1.235  0.9064  0.2759 -0.4776
10355TIP3   OH252555   0.367   6.516  13.016  0.4067  0.3794  0.0489
10355TIP3    H152556   0.273   6.496  13.021  0.3124  0.5439 -0.8336
10355TIP3    H252557   0.410   6.441  13.056 -0.1243  0.5735  1.0077
10356TIP3   OH252558   5.979   2.694   3.122  0.2579 -0.6183  0.0684
10356TIP3    H152559   5.961   2.739   3.040  1.0638 -0.4575 -0.0352
10356TIP3    H252560   6.051   2.634   3.101 -0.1181 -1.2044  0.4483
10357TIP3   OH252561   2.654   6.250   4.573  0.2226  0.2124  0.4683
10357TIP3    H152562   2.694   6.163   4.565 -0.0171  0.0862  0.6233
10357TIP3    H252563   2.662   6.271   4.667  0.6720  0.5461  0.3581
10358TIP3   OH252564   0.470   4.553   1.240  0.1339  0.1108  0.1832
10358TIP3    H152565   0.501   4.586   1.156 -3.6343 -0.0103 -1.4666
10358TIP3    H252566   0.433   4.629   1.284  1.8204  0.1159  1.6878
10359TIP3   OH252567   6.413   5.672   5.662 -0.0936  0.3281  0.7519
10359TIP3    H152568   6.474   5.599   5.676  0.1387  0.8046  2.4029
10359TIP3    H252569   6.360   5.644   5.587  0.1291 -1.4482  1.1980
10360TIP3   OH252570   1.984   5.333   0.462  0.5794  0.2813 -0.0615
10360TIP3    H152571   1.891   5.330   0.442  0.5498  0.8968 -0.0500
10360TIP3    H252572   2.026   5.358   0.380  0.5603  1.7296  0.3403
10361TIP3   OH252573   0.411   5.535   5.950  0.5360 -0.4550  0.2790
10361TIP3    H152574   0.438   5.591   6.022 -0.1304  0.3750 -0.1017
10361TIP3    H252575   0.413   5.446   5.986 -0.3820  0.0021  1.4908
10362TIP3   OH252576   3.084   1.405  14.903 -0.0906 -0.1472 -0.4586
10362TIP3    H152577   3.104   1.485  14.952  0.9940 -0.5809 -0.1686
10362TIP3    H252578   3.073   1.434  14.813 -1.8204  0.6225 -0.0434
10363TIP3   OH252579   3.041   2.189   6.588 -0.1012  0.6178 -0.0627
10363TIP3    H152580   3.016   2.123   6.524 -0.8165  0.8721 -0.0498
10363TIP3    H252581   3.136   2.195   6.580 -0.1447  0.3799 -0.8347
10364TIP3   OH252582   3.577   4.330  13.241 -0.4715 -0.4955  0.1180
10364TIP3    H152583   3.630   4.250  13.232  0.4889  0.1793 -0.4076
10364TIP3    H252584   3.539   4.344  13.155  1.6228  1.1166 -0.6347
10365TIP3   OH252585   2.177   0.920   0.551 -0.1176 -0.1330  0.5312
10365TIP3    H152586   2.158   1.011   0.528  1.3951 -0.0186 -0.4173
10365TIP3    H252587   2.255   0.925   0.607  0.6777 -0.8729 -0.4531
10366TIP3   OH252588   1.064   4.431  11.356  0.1919 -0.2753  0.2000
10366TIP3    H152589   1.144   4.379  11.350 -0.6502 -1.7534  0.9866
10366TIP3    H252590   0.994   4.366  11.367 -1.1562  0.9491 -0.6473
10367TIP3   OH252591   2.753   3.923  14.527  0.4321 -0.3708 -0.1301
10367TIP3    H152592   2.674   3.929  14.581  1.1022  1.5016  0.7103
10367TIP3    H252593   2.753   4.003  14.475  1.0441 -1.0428 -1.1943
10368TIP3   OH252594   5.733   4.903   5.780  0.2074  0.4402 -0.0559
10368TIP3    H152595   5.816   4.914   5.735 -0.2523 -0.5514 -1.2196
10368TIP3    H252596   5.717   4.809   5.779 -0.9933  0.6185  0.0033
10369TIP3   OH252597   6.643   0.819  12.680  0.3808  0.0872  0.6010
10369TIP3    H152598   6.548   0.811  12.683  0.3582 -0.8545 -1.1533
10369TIP3    H252599   6.660   0.874  12.603  1.3026 -2.1294 -0.8551
10370TIP3   OH252600   6.715   0.667   2.397  0.0760 -0.2432  0.2134
10370TIP3    H152601   6.773   0.711   2.459  0.0194  1.4109 -0.8640
10370TIP3    H252602   6.628   0.702   2.416  0.1161  0.5974 -1.0316
10371TIP3   OH252603   2.679   1.051  11.307  0.0379  0.3824  0.2129
10371TIP3    H152604   2.603   1.046  11.249 -0.8420  0.2332  1.3456
10371TIP3    H252605   2.717   0.963  11.305 -0.3255  0.2236  0.2919
10372TIP3   OH252606   4.544   5.840   5.262  0.6032  0.1652 -0.0476
10372TIP3    H152607   4.451   5.855   5.243  0.9516  1.7626 -0.6365
10372TIP3    H252608   4.548   5.825   5.356 -0.1564  1.0161  0.1289
10373TIP3   OH252609   6.044   3.797   4.691  0.1647  0.5670 -0.1812
10373TIP3    H152610   6.001   3.848   4.759  1.5437  3.0639 -1.0682
10373TIP3    H252611   5.972   3.752   4.646 -0.8698 -0.2044  2.0944
10374TIP3   OH252612   6.075   1.317  14.147  0.4216  0.2039  0.3877
10374TIP3    H152613   6.096   1.261  14.073 -0.5576 -0.1541  0.3730
10374TIP3    H252614   6.037   1.258  14.212 -3.0619  1.1042 -0.5854
10375TIP3   OH252615   1.243   3.275  11.588  0.2560 -0.0357  0.1578
10375TIP3    H152616   1.242   3.180  11.586  1.5304 -0.1932  2.8090
10375TIP3    H252617   1.334   3.298  11.608  0.8091  1.9633 -3.5175
10376TIP3   OH252618   5.591   4.093   5.839 -0.3581 -0.1050 -1.3538
10376TIP3    H152619   5.598   4.026   5.772 -0.3541 -1.9613  0.4073
10376TIP3    H252620   5.525   4.060   5.900 -3.1920  3.2674 -2.2771
10377TIP3   OH252621   1.917   5.445  14.932 -0.5977  0.1297  0.5801
10377TIP3    H152622   1.850   5.419  14.995  0.6950  1.1953  2.5004
10377TIP3    H252623   2.000   5.417  14.972  0.2893  1.1673 -0.4574
10378TIP3   OH252624   2.428   2.164  15.362  0.1311 -0.0463  0.0815
10378TIP3    H152625   2.397   2.162  15.452 -1.1127 -0.1371 -0.3308
10378TIP3    H252626   2.497   2.230  15.361  1.2157 -1.0896  1.4064
10379TIP3   OH252627   0.390   4.168  10.902  0.3061 -0.6447 -0.3260
10379TIP3    H152628   0.411   4.081  10.937  1.7654  0.7102  2.4852
10379TIP3    H252629   0.464   4.189  10.845  1.2394 -0.2753  0.9854
10380TIP3   OH252630   1.379   3.453   4.957  0.2631  0.0244  0.0203
10380TIP3    H152631   1.325   3.513   4.905  0.5386  1.7863  1.6600
10380TIP3    H252632   1.327   3.437   5.036  1.0406 -0.3424  0.4632
10381TIP3   OH252633   1.851   4.846   2.861  0.1699 -0.1327  0.3886
10381TIP3    H152634   1.894   4.809   2.784 -0.7443 -2.1394  0.7892
10381TIP3    H252635   1.813   4.771   2.906 -0.1799  1.1100  2.2733
10382TIP3   OH252636   4.199   4.411   3.101 -0.4547  0.8866 -0.7591
10382TIP3    H152637   4.161   4.473   3.163 -0.5017  0.3053 -0.1960
10382TIP3    H252638   4.132   4.344   3.089  0.0370  0.3245 -0.4472
10383TIP3   OH252639   0.578   0.019   1.344  0.3846 -0.2619  0.0365
10383TIP3    H152640   0.616  -0.069   1.338 -0.9203 -0.7588 -2.1719
10383TIP3    H252641   0.645   0.072   1.387  1.3766 -2.2310  1.0347
10384TIP3   OH252642   1.556   1.867  15.287 -0.4562  0.8976 -0.3445
10384TIP3    H152643   1.628   1.844  15.344  1.1765  0.3568 -2.4905
10384TIP3    H252644   1.526   1.952  15.319  2.5021  2.1430 -0.5624
10385TIP3   OH252645   1.441   4.073  15.830  0.1033  0.5549  0.6009
10385TIP3    H152646   1.405   4.066  15.918 -0.5639 -0.9912  0.2272
10385TIP3    H252647   1.506   4.003  15.824  2.3323  2.4422  0.8014
10386TIP3   OH252648   2.065   4.889  13.898  0.1160  0.1703  0.6204
10386TIP3    H152649   2.132   4.871  13.964 -1.0650 -0.7190  1.6235
10386TIP3    H252650   1.982   4.882  13.945 -0.8936 -2.1215 -1.2553
10387TIP3   OH252651   5.695   2.377  16.482 -0.3373  0.8577 -0.0774
10387TIP3    H152652   5.657   2.465  16.476 -0.3786  0.9120  0.8151
10387TIP3    H252653   5.698   2.359  16.576  0.6164  0.3090 -0.2043
10388TIP3   OH252654   5.282   4.246  13.971  0.3429 -0.3639 -0.4965
10388TIP3    H152655   5.279   4.156  13.941 -0.8153 -0.8461  0.9480
10388TIP3    H252656   5.365   4.252  14.019  0.3192 -0.7329 -0.4056
10389TIP3   OH252657   5.448   1.891  13.357  0.5219  0.4472 -0.4486
10389TIP3    H152658   5.435   1.965  13.297  0.8104  0.3814 -0.5911
10389TIP3    H252659   5.377   1.900  13.421 -1.0982 -0.6736 -1.9724
10390TIP3   OH252660   6.817   1.242  14.715 -0.1325 -0.3351 -0.2950
10390TIP3    H152661   6.817   1.147  14.726 -0.5093 -0.6265 -2.4490
10390TIP3    H252662   6.900   1.271  14.754  0.7808 -1.7520 -1.1262
10391TIP3   OH252663   0.167   4.921  12.432 -0.0540 -0.3314  0.2539
10391TIP3    H152664   0.206   4.989  12.487  0.5424 -0.0416 -0.5121
10391TIP3    H252665   0.156   4.963  12.347 -2.7082 -0.1636  0.6002
10392TIP3   OH252666   2.051   0.924   1.710 -0.0805 -0.3879 -0.0874
10392TIP3    H152667   2.040   0.829   1.697 -0.4013 -0.3937  0.1964
10392TIP3    H252668   2.003   0.963   1.637 -1.7934 -0.4226  0.9449
10393TIP3   OH252669   5.309   1.299   4.496  0.7519  0.1445  0.2413
10393TIP3    H152670   5.374   1.297   4.426  0.0324  0.2847 -0.4468
10393TIP3    H252671   5.336   1.372   4.552  0.1467  1.4635 -1.0948
10394TIP3   OH252672   3.474   3.671   4.576  0.4085 -0.0488  0.7036
10394TIP3    H152673   3.397   3.623   4.545  0.8281 -0.7030  0.6458
10394TIP3    H252674   3.548   3.621   4.541  0.8503  1.1992 -0.1945
10395TIP3   OH252675   4.214   2.605  17.187  0.3577  0.0620  0.0941
10395TIP3    H152676   4.153   2.634  17.120  1.4616 -0.7053 -1.2952
10395TIP3    H252677   4.235   2.514  17.163  0.4884 -0.3727  1.7129
10396TIP3   OH252678   6.567   0.535   4.118 -0.3650 -0.4439  0.2748
10396TIP3    H152679   6.622   0.609   4.092 -0.8483 -0.5561 -1.1137
10396TIP3    H252680   6.496   0.576   4.169  2.0036 -0.4891  4.0127
10397TIP3   OH252681   6.553   0.905  12.167 -0.1258  0.4522  0.5355
10397TIP3    H152682   6.498   0.847  12.113 -0.5001  1.1312  0.1782
10397TIP3    H252683   6.528   0.883  12.257 -0.7468  0.5222  0.3852
10398TIP3   OH252684   6.416   2.458   1.686  0.9118 -0.1192 -0.1273
10398TIP3    H152685   6.375   2.514   1.620  0.7039  1.7527  1.4923
10398TIP3    H252686   6.343   2.424   1.737  1.1592  1.7932  1.6494
10399TIP3   OH252687   1.378   4.778   2.022 -0.3776 -0.0999  0.5868
10399TIP3    H152688   1.304   4.823   2.065  0.2630  1.3597  0.2274
10399TIP3    H252689   1.440   4.762   2.093  0.2265  1.3656  0.4232
10400TIP3   OH252690   3.407   1.292   0.620 -0.1028 -0.1497 -0.3520
10400TIP3    H152691   3.462   1.356   0.575  0.7272 -1.3937 -1.1538
10400TIP3    H252692   3.462   1.258   0.690 -0.4453 -0.1922 -0.0991
10401TIP3   OH252693   5.689   5.882  14.767  0.1579  0.3403 -0.3461
10401TIP3    H152694   5.750   5.808  14.764 -1.4581 -1.1165  0.8923
10401TIP3    H252695   5.661   5.893  14.676  0.8333 -0.1913 -0.6321
10402TIP3   OH252696   4.190   2.711  15.388  0.5758 -0.4884 -0.0339
10402TIP3    H152697   4.112   2.711  15.443  0.9229 -1.8213  0.5026
10402TIP3    H252698   4.161   2.749  15.305 -0.3014  0.2704  0.6058
10403TIP3   OH252699   2.387   5.532   5.689  1.0447 -0.3826  0.1465
10403TIP3    H152700   2.414   5.440   5.692 -0.3047 -0.7801  0.6891
10403TIP3    H252701   2.292   5.530   5.703  1.0257  1.1126  0.3829
10404TIP3   OH252702   2.348   1.651   1.740 -0.1520  0.6840 -0.3308
10404TIP3    H152703   2.260   1.653   1.777 -0.1530  1.6633 -0.3472
10404TIP3    H252704   2.391   1.579   1.784 -0.0965  1.9137  1.7513
10405TIP3   OH252705   3.018   2.548  12.228  0.2200 -0.0062  0.3965
10405TIP3    H152706   2.965   2.592  12.294 -0.9523  0.0270 -0.5299
10405TIP3    H252707   3.109   2.562  12.257 -0.2117  1.0645  1.3277
10406TIP3   OH252708   6.219   2.159  11.354 -0.2664 -0.4780  0.6995
10406TIP3    H152709   6.162   2.133  11.426 -1.3421 -1.3158 -0.3977
10406TIP3    H252710   6.195   2.250  11.335 -2.1678 -1.1708 -0.5147
10407TIP3   OH252711   5.893   0.661   1.831  0.2216 -0.0495  0.0381
10407TIP3    H152712   5.858   0.582   1.789  2.0034 -0.8959  0.0738
10407TIP3    H252713   5.856   0.659   1.919  1.1669 -1.5203  0.4387
10408TIP3   OH252714   6.656   6.444   5.034  0.1628  0.0291  0.0310
10408TIP3    H152715   6.631   6.362   4.991 -2.1059 -0.0930  1.3912
10408TIP3    H252716   6.658   6.509   4.964 -1.5164 -0.5364 -0.6047
10409TIP3   OH252717   0.801   1.307   4.492  0.1931 -0.5147  0.1198
10409TIP3    H152718   0.786   1.381   4.433 -0.3247 -0.3371  0.4700
10409TIP3    H252719   0.894   1.285   4.480  0.1571 -0.3091 -0.5571
10410TIP3   OH252720   2.908   3.890   2.934 -0.0619 -0.1280  0.0095
10410TIP3    H152721   2.866   3.966   2.894  0.1354  0.2762  0.5514
10410TIP3    H252722   2.917   3.914   3.026 -0.3404 -0.9651  0.2621
10411TIP3   OH252723   5.218   2.025   0.672 -0.0251  0.3616  0.0442
10411TIP3    H152724   5.189   2.021   0.581 -1.0302  0.4386  0.3426
10411TIP3    H252725   5.222   2.119   0.692 -0.7935  0.3360  0.3633
10412TIP3   OH252726   3.207   4.720   2.565 -0.1134  0.0285  0.7864
10412TIP3    H152727   3.241   4.765   2.488  1.1433 -0.6054  0.9395
10412TIP3    H252728   3.255   4.637   2.568 -0.9930 -0.4753  1.5885
10413TIP3   OH252729   4.373   0.051   4.296 -0.0091  0.2357  0.5237
10413TIP3    H152730   4.304   0.058   4.361 -0.3283 -0.2353  0.2379
10413TIP3    H252731   4.354   0.121   4.233 -0.4047 -0.0842  0.2825
10414TIP3   OH252732   6.702   2.997  11.984  0.7283  0.3089 -0.1092
10414TIP3    H152733   6.769   2.942  11.944  0.0541 -0.0744 -0.7400
10414TIP3    H252734   6.726   3.086  11.959 -0.4630 -0.0000 -2.6606
10415TIP3   OH252735   2.985   5.401   5.631  0.2825 -0.0694 -0.4059
10415TIP3    H152736   2.928   5.466   5.672  0.9177  0.5465 -0.4864
10415TIP3    H252737   2.989   5.329   5.694  1.3881  0.9343  0.7210
10416TIP3   OH252738   3.972   6.520   5.873  0.0912 -0.0863  0.3940
10416TIP3    H152739   3.967   6.451   5.940  1.4088 -1.2278 -0.6117
10416TIP3    H252740   3.883   6.530   5.841 -0.2388 -0.8345  1.0519
10417TIP3   OH252741   3.213   4.958   2.683  0.3480 -0.3721  0.6163
10417TIP3    H152742   3.229   4.941   2.776  1.2083 -2.9225  0.0927
10417TIP3    H252743   3.183   4.873   2.648 -0.0079  0.5304 -1.4177
10418TIP3   OH252744   6.754   1.649   6.063  0.3833  0.1473 -0.0393
10418TIP3    H152745   6.705   1.579   6.105 -0.9882  0.4042 -1.1061
10418TIP3    H252746   6.767   1.715   6.131 -0.3697 -0.1357  0.3848
10419TIP3   OH252747   0.993   0.373   6.043 -0.2664  0.4416  0.6162
10419TIP3    H152748   0.934   0.416   6.105 -0.8649  0.2366  0.2076
10419TIP3    H252749   0.997   0.433   5.968  2.4868  1.9406  1.8265
10420TIP3   OH252750   2.827   0.874   3.166  0.2684 -0.4039 -0.2212
10420TIP3    H152751   2.881   0.918   3.100 -1.6630  0.5203 -1.2555
10420TIP3    H252752   2.863   0.786   3.172  0.5200 -0.5066 -2.5176
10421TIP3   OH252753   0.746   2.505  12.894 -0.0579 -0.2081 -0.2574
10421TIP3    H152754   0.801   2.576  12.859 -0.1895 -0.2132 -0.4744
10421TIP3    H252755   0.675   2.550  12.938  0.5860 -0.1879  0.7929
10422TIP3   OH252756   0.792   1.144  12.431  0.6284  0.1710 -0.2277
10422TIP3    H152757   0.751   1.120  12.514  0.8829 -1.0128 -0.4241
10422TIP3    H252758   0.822   1.234  12.444  1.8365 -0.4271  1.4447
10423TIP3   OH252759   5.745   0.238   0.664  0.0191 -0.0676  0.5548
10423TIP3    H152760   5.701   0.155   0.646 -0.5940  0.1390  1.0586
10423TIP3    H252761   5.816   0.242   0.600  0.0581 -0.9795  0.5242
10424TIP3   OH252762   1.277   4.552  15.065 -0.4204  0.0245 -0.5576
10424TIP3    H152763   1.321   4.478  15.024 -1.9739 -1.1229 -0.2666
10424TIP3    H252764   1.335   4.577  15.137 -0.5993 -2.0491  0.4113
10425TIP3   OH252765   5.561   5.163  12.964  0.0611  0.0249  0.4503
10425TIP3    H152766   5.488   5.192  13.019 -0.0554 -0.7081  0.6874
10425TIP3    H252767   5.527   5.088  12.916  0.0584  0.8429 -0.8926
10426TIP3   OH252768   0.960   1.993  12.839 -0.2886 -0.2573  0.0885
10426TIP3    H152769   0.953   2.087  12.854 -0.3940 -0.1927 -0.3639
10426TIP3    H252770   1.003   1.959  12.918  0.4598  0.2780 -0.0802
10427TIP3   OH252771   0.770   4.438   3.646  0.4031 -0.4352  0.3830
10427TIP3    H152772   0.755   4.353   3.687  0.5296 -0.5000  0.2959
10427TIP3    H252773   0.806   4.493   3.716  0.2993 -0.4458  0.4449
10428TIP3   OH252774   1.848   3.866   6.287 -0.1583 -0.4191 -0.2982
10428TIP3    H152775   1.937   3.901   6.292 -0.8041  1.1427  1.2689
10428TIP3    H252776   1.859   3.772   6.275  1.6753 -0.1072 -1.3614
10429TIP3   OH252777   4.780   2.570   1.572 -0.7800 -0.2098  0.1087
10429TIP3    H152778   4.800   2.519   1.651 -0.1852  0.3491  0.3195
10429TIP3    H252779   4.847   2.545   1.509 -0.7629 -0.0293  0.0560
10430TIP3   OH252780   2.366   1.345   2.781  0.4313 -0.2719 -0.4303
10430TIP3    H152781   2.371   1.252   2.803  1.1331 -0.0514  0.3716
10430TIP3    H252782   2.449   1.382   2.811 -1.0517  1.2195  2.1459
10431TIP3   OH252783   3.351   1.918  16.179  0.2715  0.2936 -0.5654
10431TIP3    H152784   3.385   1.828  16.182 -1.3876 -0.3580  0.1711
10431TIP3    H252785   3.359   1.944  16.088 -0.4151 -1.1231 -1.0606
10432TIP3   OH252786   4.207   0.136   5.662 -0.0360  0.2258 -0.1609
10432TIP3    H152787   4.112   0.146   5.656 -0.2097 -1.4801 -0.8738
10432TIP3    H252788   4.239   0.154   5.574  0.0794 -1.0653 -0.3983
10433TIP3   OH252789   6.322   3.338  11.249 -0.4260 -0.2962  0.1118
10433TIP3    H152790   6.320   3.394  11.172 -0.3942  0.9217  0.9782
10433TIP3    H252791   6.405   3.358  11.292 -1.3176  0.5466  1.5331
10434TIP3   OH252792   1.782   4.895  15.972 -0.7094  0.3400  0.0188
10434TIP3    H152793   1.724   4.966  15.943 -0.8911  0.4140  0.5492
10434TIP3    H252794   1.747   4.817  15.929 -0.1489  0.6534 -1.0485
10435TIP3   OH252795   5.557   1.879   4.843  0.1554 -0.0763  0.3380
10435TIP3    H152796   5.570   1.878   4.938  0.8249 -0.4076  0.2527
10435TIP3    H252797   5.483   1.820   4.829 -0.6312  0.7902  0.7339
10436TIP3   OH252798   6.708   2.135   0.848 -0.1285 -0.5759  0.3115
10436TIP3    H152799   6.720   2.229   0.831 -0.0984 -0.3864  1.3169
10436TIP3    H252800   6.672   2.131   0.936 -0.3046 -1.5080  0.2071
10437TIP3   OH252801   2.798   2.819  15.550  0.1706  0.4994 -0.4622
10437TIP3    H152802   2.842   2.852  15.471 -1.5423  0.9657 -1.2583
10437TIP3    H252803   2.788   2.725  15.534  0.0754  0.5450 -0.6634
10438TIP3   OH252804   5.333   1.602  14.898  1.0935 -0.0737  0.4018
10438TIP3    H152805   5.425   1.579  14.883  1.6281  2.8080 -1.5512
10438TIP3    H252806   5.297   1.617  14.811 -0.2873  1.9416  1.2272
10439TIP3   OH252807   0.493   3.191  14.226 -0.1306  0.3953 -0.0360
10439TIP3    H152808   0.403   3.165  14.243  0.1261  0.5002  1.6682
10439TIP3    H252809   0.512   3.258  14.292  1.1428  0.4918 -0.4643
10440TIP3   OH252810   4.660   6.713   4.806  0.4005  0.1548  0.0687
10440TIP3    H152811   4.620   6.792   4.769 -2.7712 -0.9324  0.8587
10440TIP3    H252812   4.626   6.709   4.895  0.6837 -1.9804  0.1182
10441TIP3   OH252813   1.275   3.429   2.293  0.1602 -0.2736 -0.2325
10441TIP3    H152814   1.275   3.474   2.377 -0.7366  0.7015 -0.7382
10441TIP3    H252815   1.189   3.446   2.256  1.3231  1.4188 -2.4302
10442TIP3   OH252816   4.834   1.390  14.402  0.0306  0.2718 -0.5988
10442TIP3    H152817   4.843   1.475  14.359 -0.3867  0.6331  0.0169
10442TIP3    H252818   4.772   1.406  14.473  0.2678 -0.4564 -0.2276
10443TIP3   OH252819   0.709   2.455  11.622  0.3692  0.2815  0.6481
10443TIP3    H152820   0.728   2.442  11.715  1.4596  2.2506  0.7680
10443TIP3    H252821   0.748   2.540  11.602 -1.0438  0.5377 -1.2854
10444TIP3   OH252822   5.819   1.608  15.114  0.3574 -0.1307 -0.3167
10444TIP3    H152823   5.875   1.662  15.170 -0.6111  0.8953 -0.2787
10444TIP3    H252824   5.879   1.555  15.063  1.2877 -0.5669  1.1665
10445TIP3   OH252825   4.660   1.807   6.130 -0.3922 -0.2119  0.4907
10445TIP3    H152826   4.638   1.892   6.092 -2.0811 -0.6431  0.4095
10445TIP3    H252827   4.702   1.828   6.214  2.4592  0.7227 -1.0546
10446TIP3   OH252828   0.536   4.356   6.061 -0.0881 -0.2128 -0.0655
10446TIP3    H152829   0.480   4.334   6.136  0.1034 -1.2574 -0.2090
10446TIP3    H252830   0.608   4.293   6.065 -0.3965 -0.7108 -1.4585
10447TIP3   OH252831   6.249   3.539  11.081  0.2224 -0.6799 -0.1054
10447TIP3    H152832   6.279   3.561  10.992  2.2555 -0.9179  0.4744
10447TIP3    H252833   6.269   3.618  11.132 -1.3521 -0.3759  0.0850
10448TIP3   OH252834   0.701   4.757   2.122 -0.2190 -0.2912 -0.1205
10448TIP3    H152835   0.638   4.830   2.123  1.3380  1.1161 -0.0390
10448TIP3    H252836   0.665   4.694   2.184  0.2701  2.1599  2.9371
10449TIP3   OH252837   6.713   0.311   4.130  0.5268 -0.3062  0.6469
10449TIP3    H152838   6.670   0.225   4.128 -0.3967  0.1173  1.2047
10449TIP3    H252839   6.644   0.372   4.103  1.3789  0.1947 -0.4369
10450TIP3   OH252840   6.263   6.080  16.180 -0.3344 -0.4677 -1.1521
10450TIP3    H152841   6.345   6.048  16.218 -0.0496 -0.1360 -1.4746
10450TIP3    H252842   6.196   6.021  16.214  0.0837 -0.9569 -1.1550
10451TIP3   OH252843   0.632   0.228  11.103  0.4499  0.3780 -0.3175
10451TIP3    H152844   0.668   0.308  11.066  0.9106  0.2545 -0.1390
10451TIP3    H252845   0.708   0.176  11.129  0.1628 -0.2161 -0.6328
10452TIP3   OH252846   0.099   4.618   1.713  0.2496 -0.3647 -0.1986
10452TIP3    H152847   0.026   4.561   1.737  0.6615 -0.5043  0.7415
10452TIP3    H252848   0.073   4.654   1.628 -1.6577  0.8113  0.8118
10453TIP3   OH252849   2.387   3.491  11.569  0.0555 -0.3777  0.1309
10453TIP3    H152850   2.479   3.465  11.567  0.5521  1.0758  1.6401
10453TIP3    H252851   2.381   3.559  11.501 -0.2942 -1.5440 -1.0321
10454TIP3   OH252852   4.283   5.008   3.594 -0.2925 -0.2452 -0.4415
10454TIP3    H152853   4.260   5.084   3.647 -0.6556 -0.8669  0.3155
10454TIP3    H252854   4.377   5.016   3.580 -0.1772 -0.1019  0.3618
10455TIP3   OH252855   5.342   5.750   1.125 -0.4578  0.2369  0.0623
10455TIP3    H152856   5.267   5.763   1.067 -0.4438  0.8972  0.1893
10455TIP3    H252857   5.378   5.665   1.098  0.0291  0.8871 -1.4525
10456TIP3   OH252858   6.574   3.808  14.418 -0.4453 -0.4864 -0.0508
10456TIP3    H152859   6.517   3.885  14.422  0.9805  0.5715  0.3122
10456TIP3    H252860   6.538   3.757  14.345 -0.7193  1.0874 -1.0684
10457TIP3   OH252861   5.277   3.843  14.190 -0.2747  0.4996  0.0064
10457TIP3    H152862   5.290   3.850  14.285 -1.4184  1.9370  0.0895
10457TIP3    H252863   5.203   3.783  14.180  1.4877 -1.8000 -0.1532
10458TIP3   OH252864   5.518   6.363  15.448 -0.2457 -0.1923 -0.3626
10458TIP3    H152865   5.440   6.307  15.452 -1.0491  0.8945 -0.2142
10458TIP3    H252866   5.575   6.320  15.385 -0.3937 -1.7086  0.4907
10459TIP3   OH252867   4.283   6.429   0.757  0.5600 -0.3383  0.2710
10459TIP3    H152868   4.327   6.440   0.673  0.1584  0.9935  0.2044
10459TIP3    H252869   4.203   6.481   0.749 -0.0669 -1.1542  1.0721
10460TIP3   OH252870   4.188   2.210  16.436 -0.2558 -0.0261 -0.2177
10460TIP3    H152871   4.277   2.211  16.402 -0.2760 -0.1627 -0.2755
10460TIP3    H252872   4.183   2.131  16.490  0.2030  0.9152  1.2551
10461TIP3   OH252873   2.297   2.619  13.985  0.4864 -0.3046  0.1014
10461TIP3    H152874   2.339   2.541  13.950  0.4603 -0.1045 -0.3833
10461TIP3    H252875   2.369   2.672  14.020  0.6958  0.2127 -1.0706
10462TIP3   OH252876   1.173   4.102   5.924 -0.3797  0.2846 -0.0189
10462TIP3    H152877   1.139   4.045   5.992  2.4188 -1.3342  0.1770
10462TIP3    H252878   1.219   4.171   5.972  0.8325 -0.3648 -0.2018
10463TIP3   OH252879   2.307   0.667   4.282  0.0289 -0.2142 -0.5337
10463TIP3    H152880   2.225   0.632   4.248 -0.3395 -0.9641  1.0800
10463TIP3    H252881   2.342   0.599   4.339  0.4162  1.1296  0.9207
10464TIP3   OH252882   4.778   6.430  16.463 -0.4399  0.4656 -0.2931
10464TIP3    H152883   4.734   6.487  16.524  0.9422  0.4833  0.7425
10464TIP3    H252884   4.730   6.347  16.467 -0.7738  0.6871  0.2913
10465TIP3   OH252885   6.735   2.584  11.475 -0.1174 -0.5720  0.5300
10465TIP3    H152886   6.754   2.658  11.419 -0.3118 -1.8523 -1.3125
10465TIP3    H252887   6.642   2.593  11.497 -0.4919 -0.9506 -0.8040
10466TIP3   OH252888   5.601   6.159  12.131 -0.0151 -0.1330  0.1962
10466TIP3    H152889   5.559   6.204  12.205 -1.1209  2.0828 -1.6291
10466TIP3    H252890   5.642   6.230  12.081  2.2554 -1.7725 -0.3999
10467TIP3   OH252891   0.613   3.284  13.506 -0.3844  0.8915  0.0312
10467TIP3    H152892   0.674   3.342  13.460 -1.0716  1.6912  0.1059
10467TIP3    H252893   0.598   3.328  13.590 -0.2278  0.1510  0.4538
10468TIP3   OH252894   3.152   4.519   3.147 -0.5614  0.1884  0.3455
10468TIP3    H152895   3.177   4.588   3.085 -1.1399  1.5737  1.5784
10468TIP3    H252896   3.213   4.529   3.220  1.0021 -2.3069 -0.4961
10469TIP3   OH252897   0.517   3.297  13.924  0.0717 -0.1471  0.4192
10469TIP3    H152898   0.585   3.230  13.919  1.3194  0.9442  1.7540
10469TIP3    H252899   0.467   3.274  14.002 -0.1090 -0.0732  0.3247
10470TIP3   OH252900   5.981   5.399   2.811  0.2160  0.5030  0.0534
10470TIP3    H152901   5.912   5.462   2.833  0.7694  0.6568  1.4421
10470TIP3    H252902   6.047   5.451   2.766  0.8689  1.0637  1.5720
10471TIP3   OH252903   4.633   5.777  14.323  0.2017 -0.4062 -0.2377
10471TIP3    H152904   4.551   5.744  14.359  0.1806 -0.2679 -0.1612
10471TIP3    H252905   4.696   5.706  14.338 -0.0953 -0.8580 -1.0570
10472TIP3   OH252906   6.372   1.670   2.671  0.2088  0.2469  0.0801
10472TIP3    H152907   6.310   1.732   2.632 -0.1600  0.6425  1.2741
10472TIP3    H252908   6.418   1.721   2.737  2.0358  0.0338 -0.9593
10473TIP3   OH252909   2.502   2.107  13.538 -0.2750  0.2235  0.5758
10473TIP3    H152910   2.516   2.167  13.611 -1.0977  0.4115  0.5882
10473TIP3    H252911   2.421   2.137  13.497  0.4039  0.3877 -0.6948
10474TIP3   OH252912   0.763   0.386   1.092  0.3127 -0.2777 -0.0478
10474TIP3    H152913   0.729   0.308   1.136 -0.5843  0.5048  0.6846
10474TIP3    H252914   0.714   0.391   1.010 -0.7376  0.3642  0.6087
10475TIP3   OH252915   4.477   4.978   2.961  0.0771  0.0744 -0.4875
10475TIP3    H152916   4.477   4.921   3.037 -2.8223  0.5905  0.0486
10475TIP3    H252917   4.547   5.041   2.978  0.7395 -0.9689  0.8119
10476TIP3   OH252918   6.450   3.535   5.488 -0.5980 -0.2043 -0.5072
10476TIP3    H152919   6.504   3.558   5.563 -1.7086  0.0364  0.2447
10476TIP3    H252920   6.361   3.553   5.516 -0.9628  1.1153 -2.3186
10477TIP3   OH252921   2.994   6.473  13.872 -0.3634 -0.1009  0.3393
10477TIP3    H152922   3.034   6.554  13.904  1.6762 -1.1173  0.5338
10477TIP3    H252923   2.944   6.499  13.795  0.4122  1.3062  0.2827
10478TIP3   OH252924   1.907   6.104  15.799  0.2073  0.3831 -0.3379
10478TIP3    H152925   1.946   6.169  15.857  0.7434 -0.8198  0.7075
10478TIP3    H252926   1.813   6.125  15.798  0.3983  1.2421 -0.1283
10479TIP3   OH252927   1.433   0.810  13.570 -0.0178 -0.4256 -0.1282
10479TIP3    H152928   1.441   0.902  13.546 -1.3007  0.1973  1.6216
10479TIP3    H252929   1.410   0.765  13.489 -2.7798  1.3402 -0.4258
10480TIP3   OH252930   1.418   6.297   4.958 -0.2478 -0.3553  0.1338
10480TIP3    H152931   1.506   6.265   4.979 -0.7025 -2.0077 -0.3346
10480TIP3    H252932   1.364   6.218   4.953 -1.5018  0.5250 -0.8440
10481TIP3   OH252933   5.277   0.142  10.894 -0.0733 -0.0224  0.0427
10481TIP3    H152934   5.284   0.083  10.818  1.3488 -0.7695  0.7227
10481TIP3    H252935   5.273   0.230  10.856 -0.7826 -0.4609 -0.9385
10482TIP3   OH252936   2.191   2.351   3.210 -0.2281  0.1793  0.0090
10482TIP3    H152937   2.113   2.396   3.176 -0.1597 -0.1963 -0.6702
10482TIP3    H252938   2.184   2.262   3.177  0.9216  0.3625 -0.7995
10483TIP3   OH252939   3.929   2.845   6.709  0.0163  0.0424 -0.1353
10483TIP3    H152940   3.880   2.774   6.750  1.2471 -0.3539  0.7100
10483TIP3    H252941   3.998   2.800   6.660  0.4965  0.6266 -0.0019
10484TIP3   OH252942   4.319   5.296  16.840 -0.2863 -0.2222 -0.5666
10484TIP3    H152943   4.310   5.384  16.803  1.0347  0.3381  0.3583
10484TIP3    H252944   4.313   5.237  16.765 -1.3051  0.6348 -1.1849
10485TIP3   OH252945   6.482   1.379   5.725 -0.1307 -0.0503  0.0831
10485TIP3    H152946   6.532   1.461   5.725  0.0419 -0.1290 -1.2966
10485TIP3    H252947   6.472   1.357   5.633  0.7890 -2.1894  0.4379
10486TIP3   OH252948   5.738   2.810  10.674 -0.3005 -0.1033  0.2859
10486TIP3    H152949   5.658   2.838  10.630  0.1321 -0.2639 -0.6451
10486TIP3    H252950   5.766   2.733  10.624  0.3276 -0.1616  0.7206
10487TIP3   OH252951   0.181   5.585  13.254  0.2515 -0.7320  0.4386
10487TIP3    H152952   0.203   5.666  13.299 -0.0943 -0.2110 -0.2998
10487TIP3    H252953   0.219   5.516  13.308 -0.6491 -0.1843  1.8301
10488TIP3   OH252954   6.332   1.994  16.946 -0.1717 -0.3175 -0.4500
10488TIP3    H152955   6.386   2.073  16.947 -0.8881  0.1753 -0.3310
10488TIP3    H252956   6.333   1.962  17.036  0.0402 -0.3950 -0.4794
10489TIP3   OH252957   0.876   4.449   2.855  0.0726 -0.2011 -0.2140
10489TIP3    H152958   0.807   4.513   2.840 -1.6182 -1.1079  2.7847
10489TIP3    H252959   0.933   4.489   2.921  0.5138 -0.7418 -0.2566
10490TIP3   OH252960   1.667   4.723   3.902 -0.0549 -0.3477 -0.2242
10490TIP3    H152961   1.624   4.806   3.884 -0.0133 -0.4589 -0.8591
10490TIP3    H252962   1.611   4.657   3.862 -0.6523 -0.7338  1.2025
10491TIP3   OH252963   2.265   5.226   4.894  0.4605  0.1667 -0.3002
10491TIP3    H152964   2.229   5.315   4.891  0.5964  0.3396  1.6802
10491TIP3    H252965   2.318   5.225   4.973  0.4003 -1.7091 -0.2507
10492TIP3   OH252966   2.187   1.422  12.943  0.0490 -0.4041  0.3207
10492TIP3    H152967   2.099   1.413  12.979 -1.2654  0.8434 -2.2736
10492TIP3    H252968   2.179   1.492  12.878  2.3331 -1.9684 -1.8412
10493TIP3   OH252969   6.735   4.351   4.421 -0.1738 -0.6550  0.1861
10493TIP3    H152970   6.645   4.366   4.394 -0.2730 -0.6666  0.5050
10493TIP3    H252971   6.766   4.279   4.366 -0.6958 -1.3527  0.7920
10494TIP3   OH252972   5.010   4.473   6.450 -0.3165  0.2694 -0.0761
10494TIP3    H152973   5.102   4.499   6.449 -0.7561  2.2217  1.9477
10494TIP3    H252974   5.011   4.380   6.473  1.1300  0.5294  1.0282
10495TIP3   OH252975   0.825   1.262  11.593 -0.0830 -0.4737  0.4425
10495TIP3    H152976   0.827   1.211  11.512  1.1441  1.4259 -0.7954
10495TIP3    H252977   0.916   1.291  11.606 -0.3592 -0.2563  2.2027
10496TIP3   OH252978   4.611   0.709  12.440 -0.4239  0.4276 -0.2231
10496TIP3    H152979   4.658   0.723  12.522 -0.0118  0.3883 -0.4480
10496TIP3    H252980   4.577   0.795  12.417 -0.3579  0.4823 -0.1186
10497TIP3   OH252981   1.311   2.696  13.215  0.2430 -0.3129  0.6444
10497TIP3    H152982   1.270   2.653  13.290  0.0532 -0.5853  0.3845
10497TIP3    H252983   1.402   2.707  13.242 -0.0920  0.7300  1.4142
10498TIP3   OH252984   3.286   5.874  11.791 -0.2461 -0.0503  0.0195
10498TIP3    H152985   3.304   5.786  11.759  0.8365 -0.0938  0.7038
10498TIP3    H252986   3.362   5.897  11.844 -1.6986  0.2277  2.1242
10499TIP3   OH252987   4.391   1.187   5.211 -0.5407  1.0018 -0.1032
10499TIP3    H152988   4.415   1.200   5.303 -0.1720  2.4036 -0.3801
10499TIP3    H252989   4.463   1.228   5.162 -1.5035  1.6566 -0.9901
10500TIP3   OH252990   3.966   4.346  13.601  0.0141 -0.0836  0.6508
10500TIP3    H152991   4.020   4.382  13.531  1.5460 -0.9203  1.3503
10500TIP3    H252992   3.988   4.253  13.603 -1.6532 -0.5094  0.8248
10501TIP3   OH252993   3.496   6.788   5.528 -0.7579 -0.1300  0.0494
10501TIP3    H152994   3.553   6.815   5.600  0.3434 -0.1159 -0.7999
10501TIP3    H252995   3.553   6.738   5.470 -1.5210  0.1960 -1.0108
10502TIP3   OH252996   1.828   6.722  16.901  0.2802 -0.2982  0.4363
10502TIP3    H152997   1.870   6.753  16.981  1.1221 -0.9004  0.2428
10502TIP3    H252998   1.880   6.645  16.875 -1.6773 -1.8639  0.8740
10503TIP3   OH252999   4.414   5.665   3.071 -0.2603 -0.1659 -0.3894
10503TIP3    H153000   4.499   5.677   3.029  0.5462  2.2823  1.7181
10503TIP3    H253001   4.365   5.744   3.051 -0.9706 -0.2960  0.7265
10504TIP3   OH253002   0.307   4.189  16.733  0.0618  0.3337  0.2228
10504TIP3    H153003   0.278   4.279  16.745  0.3871  0.5215 -0.3239
10504TIP3    H253004   0.400   4.191  16.756  0.3300  0.3802 -0.8043
10505TIP3   OH253005   5.981   3.174  13.192 -0.2269  0.3940  0.3508
10505TIP3    H153006   5.936   3.199  13.273 -0.1015  0.0519  0.5268
10505TIP3    H253007   6.051   3.239  13.182 -1.0091  1.1899 -0.1491
10506TIP3   OH253008   4.864   3.886   1.149 -0.3022  0.0721 -0.2135
10506TIP3    H153009   4.798   3.821   1.125 -0.3665  0.3828 -0.9159
10506TIP3    H253010   4.814   3.959   1.184 -0.3587  0.3910 -0.9371
10507TIP3   OH253011   6.425   1.308   0.410 -0.2168  0.0782 -0.4372
10507TIP3    H153012   6.461   1.293   0.497  0.0778  0.4939 -0.4858
10507TIP3    H253013   6.353   1.245   0.403  1.6891 -2.1704 -1.0943
10508TIP3   OH253014   4.159   0.551   5.290 -0.3266 -0.4186  0.3693
10508TIP3    H153015   4.222   0.495   5.245 -1.6115 -2.1970  0.6641
10508TIP3    H253016   4.123   0.607   5.221 -0.4800 -1.3871 -0.3676
10509TIP3   OH253017   1.400   2.683  14.541  0.3653 -0.1131  0.1633
10509TIP3    H153018   1.439   2.727  14.465  1.0567 -1.8791 -0.5604
10509TIP3    H253019   1.310   2.714  14.543  1.2403  2.6773  0.7768
10510TIP3   OH253020   4.182   2.294   5.473 -0.4292 -0.2831 -0.2712
10510TIP3    H153021   4.269   2.294   5.433 -0.0124  0.4986  0.5988
10510TIP3    H253022   4.146   2.379   5.450 -1.9174 -1.4249 -2.5460
10511TIP3   OH253023   4.097   3.352  15.091  0.0074  0.3553  0.4547
10511TIP3    H153024   4.034   3.337  15.021  0.2496 -0.1217  0.3365
10511TIP3    H253025   4.105   3.448  15.096  0.5671  0.3895 -0.6953
10512TIP3   OH253026   3.113   2.831  11.132 -0.1169 -0.0026 -0.2020
10512TIP3    H153027   3.106   2.903  11.195  0.4289 -0.7051  0.6873
10512TIP3    H253028   3.066   2.759  11.174  0.0936 -0.4239 -0.6912
10513TIP3   OH253029   0.625   6.615  12.218  0.0260  0.5880 -0.3188
10513TIP3    H153030   0.664   6.673  12.153  0.8758 -0.6285 -0.9286
10513TIP3    H253031   0.684   6.540  12.223 -0.5725  0.1596  1.0940
10514TIP3   OH253032   0.905   5.440   6.215  0.4237 -0.1670 -0.0331
10514TIP3    H153033   0.812   5.428   6.196  1.1043 -2.7108 -2.5409
10514TIP3    H253034   0.932   5.513   6.159 -0.1405  1.1245  1.3065
10515TIP3   OH253035   5.889   1.756   6.384 -0.3728  0.4534 -0.7746
10515TIP3    H153036   5.846   1.760   6.299 -2.7146 -0.8124  0.2466
10515TIP3    H253037   5.950   1.682   6.376 -0.7547  0.1859 -1.2879
10516TIP3   OH253038   0.486   4.032   4.781 -0.4682 -0.2139  0.2890
10516TIP3    H153039   0.416   4.074   4.731  0.7652  2.5099  0.6512
10516TIP3    H253040   0.447   4.013   4.866 -1.1028  0.1844  0.0983
10517TIP3   OH253041   5.535   5.733   2.267 -0.2287 -0.1159 -0.3455
10517TIP3    H153042   5.572   5.750   2.354  1.0430 -0.8982 -0.7016
10517TIP3    H253043   5.578   5.652   2.239 -0.0405  0.5444 -2.0279
10518TIP3   OH253044   4.761   0.152   2.647 -0.3102  0.0521 -0.0879
10518TIP3    H153045   4.697   0.176   2.714 -1.4777 -1.7461 -0.4793
10518TIP3    H253046   4.807   0.077   2.684 -0.6476 -0.6586 -1.0659
10519TIP3   OH253047   2.908   2.120  11.400  0.0191 -0.2697  0.3514
10519TIP3    H153048   2.835   2.158  11.449 -0.4597  0.2912 -0.7415
10519TIP3    H253049   2.985   2.167  11.431 -0.5194  1.4382 -0.7363
10520TIP3   OH253050   5.335   2.765  11.420 -0.5059  0.0239 -0.7055
10520TIP3    H153051   5.356   2.722  11.503  1.1834  2.0715  0.0499
10520TIP3    H253052   5.250   2.806  11.435 -0.1475  0.5017  0.1144
10521TIP3   OH253053   6.475   2.106  11.446 -0.0196 -0.5841 -0.5397
10521TIP3    H153054   6.387   2.126  11.414  1.2841  1.1021 -3.5210
10521TIP3    H253055   6.502   2.029  11.395  0.4301 -0.7520 -0.0551
10522TIP3   OH253056   3.022   5.111   4.116 -0.2223 -0.6719 -0.1769
10522TIP3    H153057   3.106   5.140   4.152  0.2299 -1.7804 -0.3064
10522TIP3    H253058   3.045   5.044   4.051 -1.1963 -0.8404 -0.3675
10523TIP3   OH253059   3.998   3.371   5.136 -0.1158 -0.2311  0.3503
10523TIP3    H153060   4.053   3.299   5.105 -1.0847 -1.8122  2.1460
10523TIP3    H253061   4.001   3.365   5.232  0.6406  2.8155  0.6195
10524TIP3   OH253062   4.299   2.040   1.868  0.4673  0.0291 -0.1937
10524TIP3    H153063   4.314   1.973   1.935 -0.4763 -0.0307 -0.0346
10524TIP3    H253064   4.235   2.099   1.907 -0.1669 -0.0556 -1.0802
10525TIP3   OH253065   5.535   2.055   3.154 -0.1753 -0.0723  0.1391
10525TIP3    H153066   5.511   2.092   3.239 -1.6263  1.5775 -0.9280
10525TIP3    H253067   5.470   1.987   3.138  1.3396 -1.8814  1.2179
10526TIP3   OH253068   2.512   1.637   0.264 -0.0507 -0.0715 -0.0822
10526TIP3    H153069   2.443   1.571   0.258 -0.4491  0.2664  0.5393
10526TIP3    H253070   2.487   1.690   0.340  0.9453  0.0098  0.2051
10527TIP3   OH253071   6.466   2.737   3.735 -0.7043  0.4906  0.3507
10527TIP3    H153072   6.414   2.797   3.789 -2.2567 -1.4090  1.1222
10527TIP3    H253073   6.411   2.720   3.659  0.1153  0.7385 -0.3050
10528TIP3   OH253074   4.365   4.353   6.656  0.9551  0.0260 -0.3492
10528TIP3    H153075   4.371   4.264   6.620  0.4752 -1.1466  2.2296
10528TIP3    H253076   4.322   4.341   6.740  0.9654  2.7370  0.1121
10529TIP3   OH253077   1.295   2.095   2.748  0.8766  0.1525 -0.3954
10529TIP3    H153078   1.357   2.025   2.769  0.3485 -0.2999 -0.2958
10529TIP3    H253079   1.264   2.074   2.660  0.0087 -0.2893 -0.0039
10530TIP3   OH253080   4.266   5.622  15.287 -0.0561  0.0979  0.2683
10530TIP3    H153081   4.220   5.544  15.317 -0.6105 -0.4704 -1.8601
10530TIP3    H253082   4.305   5.596  15.203 -1.5118  2.4575 -1.2699
10531TIP3   OH253083   0.887   3.503   0.301  0.4135 -0.2818  1.0638
10531TIP3    H153084   0.813   3.487   0.243 -0.5574  0.2393  2.1082
10531TIP3    H253085   0.900   3.598   0.298  0.4744 -0.2706  1.5287
10532TIP3   OH253086   0.553   2.935   5.518  0.3843  0.1640  0.8918
10532TIP3    H153087   0.596   2.918   5.434  0.5973  0.8664  0.8574
10532TIP3    H253088   0.618   2.909   5.583 -0.3476 -1.8920  0.8778
10533TIP3   OH253089   1.677   3.642   0.218  0.2445 -0.3426 -0.0023
10533TIP3    H153090   1.626   3.618   0.296  0.1947  0.0419  0.0853
10533TIP3    H253091   1.611   3.667   0.153  0.3274  1.0913  0.4191
10534TIP3   OH253092   2.368   1.566  14.456 -0.2235  0.2104 -0.0136
10534TIP3    H153093   2.285   1.574  14.503 -0.6977  0.7622 -0.8998
10534TIP3    H253094   2.374   1.473  14.436 -0.4017  0.0941  0.4566
10535TIP3   OH253095   5.633   3.531   5.112 -0.8296 -0.0001 -0.2211
10535TIP3    H153096   5.658   3.443   5.142  0.0427  0.3827  0.1962
10535TIP3    H253097   5.632   3.523   5.016  0.3774 -0.1826 -0.2356
10536TIP3   OH253098   1.036   4.333   4.977 -0.1739 -0.1595 -0.4161
10536TIP3    H153099   1.055   4.310   4.886  1.8874 -0.7821  0.1322
10536TIP3    H253100   1.054   4.427   4.983 -1.8239  0.2326 -0.9753
10537TIP3   OH253101   2.270   2.845   0.199  0.4018 -0.3740  0.1108
10537TIP3    H153102   2.342   2.907   0.186  0.8030 -0.8011  0.2749
10537TIP3    H253103   2.207   2.893   0.253  0.2426  0.2396 -0.6029
10538TIP3   OH253104   6.083   3.700  11.409 -0.0156  0.4516  0.2244
10538TIP3    H153105   5.999   3.656  11.395 -0.9724  1.7572  1.4788
10538TIP3    H253106   6.148   3.642  11.369 -1.2427 -1.7757  1.2996
10539TIP3   OH253107   1.813   3.247   1.911 -0.0481  0.9565 -0.2240
10539TIP3    H153108   1.841   3.288   1.993 -1.3861 -0.3382  0.9365
10539TIP3    H253109   1.851   3.159   1.915 -1.7721  0.1844  0.0065
10540TIP3   OH253110   1.038   2.949   4.744  0.3785 -0.3861  0.5409
10540TIP3    H153111   1.046   3.016   4.677  0.0595 -1.5745 -0.7486
10540TIP3    H253112   0.945   2.949   4.767 -0.0207 -1.5938 -0.8523
10541TIP3   OH253113   2.574   5.633  14.198  0.6036 -0.4180 -0.3255
10541TIP3    H153114   2.636   5.562  14.183  0.9290 -0.1152 -0.4237
10541TIP3    H253115   2.574   5.683  14.117 -0.0387 -0.6148 -0.4573
10542TIP3   OH253116   5.443   2.854  15.990 -0.2567 -0.2223 -0.2694
10542TIP3    H153117   5.474   2.777  16.039 -1.3308 -0.0655  0.7054
10542TIP3    H253118   5.387   2.900  16.052 -0.3359  0.8825 -1.1392
10543TIP3   OH253119   3.223   2.606  11.788  0.7538 -0.2282  0.1100
10543TIP3    H153120   3.156   2.605  11.855 -0.5875 -0.9625 -1.1835
10543TIP3    H253121   3.306   2.613  11.836 -0.2649  1.9184  1.6819
10544TIP3   OH253122   1.876   1.640  11.618 -0.2039  0.3598  0.3945
10544TIP3    H153123   1.820   1.699  11.667 -0.3651 -0.1025  0.7651
10544TIP3    H253124   1.883   1.681  11.531 -1.9672 -0.1100  0.0031
10545TIP3   OH253125   0.196   0.625   4.835  0.0235  0.3317  0.6359
10545TIP3    H153126   0.280   0.582   4.846  1.5112  2.6127 -0.8857
10545TIP3    H253127   0.137   0.557   4.803  2.1196 -0.7161 -1.2284
10546TIP3   OH253128   2.015   3.613   0.075 -0.3515 -0.2393  0.2686
10546TIP3    H153129   1.978   3.631   0.161  2.5631  0.5299  1.4954
10546TIP3    H253130   2.081   3.545   0.091 -1.0288 -1.4703 -1.7449
10547TIP3   OH253131   5.721   5.383   5.575  0.3381  0.2716  0.3193
10547TIP3    H153132   5.656   5.369   5.644 -0.6034  0.3144 -0.5366
10547TIP3    H253133   5.744   5.476   5.583 -0.3339  0.4614  0.1001
10548TIP3   OH253134   1.735   3.605   2.067 -0.3969 -0.0964  0.1297
10548TIP3    H153135   1.667   3.577   2.128 -1.4205  0.2836 -0.8077
10548TIP3    H253136   1.689   3.656   2.000  0.5442 -1.2423 -1.4627
10549TIP3   OH253137   0.145   3.975  10.594  0.2912  0.6009 -1.0602
10549TIP3    H153138   0.232   4.010  10.610  0.5216 -0.6523  0.7076
10549TIP3    H253139   0.085   4.043  10.626  0.7177 -0.2090  1.6740
10550TIP3   OH253140   0.654   5.964   4.348  0.2386  0.3222  0.0573
10550TIP3    H153141   0.708   5.885   4.343  0.2779  0.3930 -1.0139
10550TIP3    H253142   0.605   5.955   4.429 -0.0881 -1.0373 -0.2592
10551TIP3   OH253143   2.475   4.330   4.273  0.0521  0.2040  0.3541
10551TIP3    H153144   2.439   4.414   4.304  1.3304  0.9533 -0.0858
10551TIP3    H253145   2.402   4.288   4.228 -0.4337  1.4417 -0.0862
10552TIP3   OH253146   6.374   5.956   3.533 -0.3258  0.4712 -0.4210
10552TIP3    H153147   6.465   5.949   3.504 -0.0318 -0.6841  0.6936
10552TIP3    H253148   6.363   5.884   3.596 -2.0206  0.5661 -0.5614
10553TIP3   OH253149   6.566   5.648  10.856  0.3885 -0.2553  0.2832
10553TIP3    H153150   6.561   5.553  10.848 -0.7527 -0.0671 -1.8353
10553TIP3    H253151   6.486   5.680  10.817  0.5139  1.6002  1.4261
10554TIP3   OH253152   5.393   2.268  14.327  0.0889 -0.2999 -0.5722
10554TIP3    H153153   5.319   2.222  14.368 -1.2224  0.7042 -1.7349
10554TIP3    H253154   5.460   2.201  14.319 -1.0491 -1.5161 -0.3740
10555TIP3   OH253155   4.060   0.093  16.115  0.1654 -0.5684  0.0416
10555TIP3    H153156   4.088   0.183  16.131 -0.8463  0.5259 -3.4526
10555TIP3    H253157   4.139   0.049  16.082 -0.2706  0.4300 -2.6135
10556TIP3   OH253158   3.416   1.555  13.087 -0.3427  0.6055 -0.1269
10556TIP3    H153159   3.360   1.557  13.164 -0.5645 -0.1956 -0.2630
10556TIP3    H253160   3.430   1.647  13.065 -0.9182  0.8222  0.3989
10557TIP3   OH253161   2.060   1.677   0.496 -0.5879  0.0803 -0.2201
10557TIP3    H153162   1.980   1.674   0.547 -0.4131  1.3155  0.1603
10557TIP3    H253163   2.120   1.731   0.548  0.2200 -0.1663 -0.8682
10558TIP3   OH253164   1.669   4.828   0.047  0.1063  0.1732  0.3348
10558TIP3    H153165   1.582   4.851   0.015  0.0594  0.1784  0.4649
10558TIP3    H253166   1.689   4.744   0.006  0.0679  0.2029  0.2537
10559TIP3   OH253167   2.252   0.886   4.055  0.1843 -0.1705 -0.2885
10559TIP3    H153168   2.168   0.908   4.094  0.7659  0.4846  0.6394
10559TIP3    H253169   2.247   0.791   4.038 -0.8906 -0.0576 -0.6766
10560TIP3   OH253170   1.131   4.117   1.989 -0.0821  0.4820 -0.2746
10560TIP3    H153171   1.186   4.154   1.920  0.4881  0.1481 -0.0086
10560TIP3    H253172   1.187   4.052   2.031 -1.3170 -1.3603 -1.3082
10561TIP3   OH253173   4.573   0.948   2.680 -0.1089  0.0025 -0.4506
10561TIP3    H153174   4.520   0.872   2.656  1.1644 -0.6668 -1.2673
10561TIP3    H253175   4.660   0.930   2.642  0.9048  0.7437  1.3937
10562TIP3   OH253176   2.499   3.180  12.596 -0.8472  0.3401  0.1207
10562TIP3    H153177   2.445   3.225  12.531 -1.2529 -1.0191 -0.5372
10562TIP3    H253178   2.470   3.089  12.591  1.0715 -0.3209  0.2017
10563TIP3   OH253179   4.553   0.013   1.335  0.4811 -0.3597  0.1260
10563TIP3    H153180   4.635  -0.023   1.302  0.8361  0.2655  0.3309
10563TIP3    H253181   4.575   0.100   1.367 -0.7301  0.9275 -2.2289
10564TIP3   OH253182   1.279   0.738  10.430  0.3186 -0.1371  0.2321
10564TIP3    H153183   1.224   0.812  10.457  1.6977  2.0233 -2.3930
10564TIP3    H253184   1.269   0.733  10.335  2.8009 -1.1624 -0.0662
10565TIP3   OH253185   3.642   2.649   0.383  0.4839  0.8242  0.8814
10565TIP3    H153186   3.676   2.595   0.312  0.4174  2.6800 -0.6294
10565TIP3    H253187   3.594   2.588   0.439  1.2741 -0.8238 -0.1777
10566TIP3   OH253188   0.251   5.510   5.611 -0.1441  0.5443  0.2792
10566TIP3    H153189   0.295   5.442   5.561 -0.2355 -0.1013  1.0539
10566TIP3    H253190   0.322   5.553   5.660  0.1916  2.2435 -1.5523
10567TIP3   OH253191   2.194   2.643  16.558 -0.0975  0.0789  0.6004
10567TIP3    H153192   2.132   2.711  16.532  0.0887 -0.0388 -0.1971
10567TIP3    H253193   2.185   2.636  16.653 -2.6958 -1.2645  0.3430
10568TIP3   OH253194   4.942   4.264   2.910 -0.2399 -0.5002 -0.0471
10568TIP3    H153195   4.877   4.284   2.978 -1.0661 -2.3651 -0.2338
10568TIP3    H253196   4.947   4.168   2.909  3.6844 -0.4637  1.0353
10569TIP3   OH253197   3.383   5.850   5.883  0.3128  0.0626  0.3299
10569TIP3    H153198   3.406   5.918   5.947  1.8443 -0.4393  0.3477
10569TIP3    H253199   3.463   5.799   5.872 -0.4070 -0.8855 -0.7495
10570TIP3   OH253200   1.732   0.469   4.921 -0.2597 -0.1610  0.0121
10570TIP3    H153201   1.696   0.382   4.938 -1.2008  0.1514 -0.3050
10570TIP3    H253202   1.811   0.474   4.975  0.7488 -1.8137 -1.2120
10571TIP3   OH253203   2.878   4.554   3.925 -0.4240 -0.0082  0.2117
10571TIP3    H153204   2.812   4.523   3.987  0.3103 -0.2969  0.8675
10571TIP3    H253205   2.871   4.650   3.930 -0.4953 -0.0295  0.6159
10572TIP3   OH253206   0.505   5.256  12.571  0.0049 -0.1011  0.4710
10572TIP3    H153207   0.534   5.282  12.659 -0.6055  0.7232  0.4473
10572TIP3    H253208   0.586   5.242  12.522  0.3578  0.7603  0.7923
10573TIP3   OH253209   3.977   1.707  16.649 -0.0583 -0.1854  0.4582
10573TIP3    H153210   3.987   1.793  16.689  1.0406  0.1832 -0.5668
10573TIP3    H253211   4.038   1.651  16.698  1.9923  0.4736 -1.2045
10574TIP3   OH253212   6.744   4.812   3.634  0.1087  0.4136  0.1102
10574TIP3    H153213   6.682   4.862   3.581 -0.3644 -0.3672 -0.0913
10574TIP3    H253214   6.822   4.867   3.637 -0.0521  0.7259 -0.9333
10575TIP3   OH253215   0.337   1.365   5.552  0.1029  0.2195  0.0961
10575TIP3    H153216   0.326   1.285   5.602 -0.8775  1.2892  1.6836
10575TIP3    H253217   0.367   1.430   5.616  1.0771  1.0926 -1.1817
10576TIP3   OH253218   0.902   4.707   5.300 -0.3887 -0.5578  0.2360
10576TIP3    H153219   0.924   4.718   5.208  0.6973 -0.5956  0.4865
10576TIP3    H253220   0.835   4.774   5.317 -0.6974 -0.6427 -0.6010
10577TIP3   OH253221   4.981   2.593  13.077  0.1737  0.2237 -0.3597
10577TIP3    H153222   4.918   2.587  13.150 -1.2842 -1.3429 -1.6555
10577TIP3    H253223   5.013   2.683  13.081 -0.6727  0.4989  1.5569
10578TIP3   OH253224   6.519   0.261  15.375 -0.1568 -0.0699  0.2611
10578TIP3    H153225   6.479   0.242  15.290 -1.3686 -0.7116  0.9390
10578TIP3    H253226   6.448   0.247  15.438  1.1411 -1.2567  1.5305
10579TIP3   OH253227   3.051   1.797  14.143  0.1040  0.0570 -0.5424
10579TIP3    H153228   3.141   1.771  14.126 -0.4446 -1.1738 -1.8112
10579TIP3    H253229   3.051   1.826  14.234  2.1195  1.7530 -1.0094
10580TIP3   OH253230   2.822   3.047   1.919  0.0443  0.5111 -0.0425
10580TIP3    H153231   2.800   3.092   1.838 -1.2672  0.1913  0.1177
10580TIP3    H253232   2.866   2.967   1.891  1.8673  1.5687 -0.3432
10581TIP3   OH253233   3.370   1.339  12.699 -0.1490  0.2107 -0.2840
10581TIP3    H153234   3.282   1.375  12.712  0.7090  1.9723  1.1679
10581TIP3    H253235   3.424   1.385  12.763  1.5604 -1.9552 -0.0510
10582TIP3   OH253236   6.430   3.800   3.899  0.4195 -0.4042 -0.4252
10582TIP3    H153237   6.367   3.732   3.923  1.7835 -1.3138  0.7576
10582TIP3    H253238   6.404   3.827   3.811 -2.0479 -0.2119  0.2703
10583TIP3   OH253239   0.342   3.444  16.054  0.7832  0.1618  0.3244
10583TIP3    H153240   0.313   3.481  16.137 -0.8873 -1.5536  0.5708
10583TIP3    H253241   0.360   3.352  16.074  0.5802 -0.2209 -1.1454
10584TIP3   OH253242   1.345   1.154   4.590 -0.2007 -0.5948  0.9681
10584TIP3    H153243   1.429   1.135   4.630  0.6517 -0.4320 -0.6387
10584TIP3    H253244   1.333   1.085   4.525 -0.0464  0.7746 -0.5911
10585TIP3   OH253245   3.820   2.813   6.247 -0.4080  0.1912 -0.0705
10585TIP3    H153246   3.763   2.760   6.303 -1.1630  0.0301 -0.9597
10585TIP3    H253247   3.769   2.892   6.230  1.0070  1.5628  1.8428
10586TIP3   OH253248   4.823   6.541  13.428  0.3097  0.1899  0.2015
10586TIP3    H153249   4.837   6.566  13.337  0.7704 -2.1564 -0.4347
10586TIP3    H253250   4.737   6.499  13.429  0.1673  0.4874  0.9158
10587TIP3   OH253251   4.424   2.028  12.144  0.1605 -0.0375 -0.3894
10587TIP3    H153252   4.496   1.975  12.108  1.4696  1.4461 -0.0689
10587TIP3    H253253   4.404   2.091  12.075  1.6618  1.8485  0.7785
10588TIP3   OH253254   5.955   5.042   6.342  0.2463  0.9004  0.3507
10588TIP3    H153255   5.884   5.063   6.402  0.9390  0.5769  1.3105
10588TIP3    H253256   6.035   5.070   6.388  1.0240 -1.6734  0.7442
10589TIP3   OH253257   0.668   0.771   1.657  0.0769 -0.1083 -0.3352
10589TIP3    H153258   0.754   0.734   1.677  0.4389 -0.0566 -1.7233
10589TIP3    H253259   0.683   0.864   1.644 -0.4892  0.2092  1.0499
10590TIP3   OH253260   1.352   6.581  12.901 -0.1042 -0.2355  0.3982
10590TIP3    H153261   1.296   6.519  12.854 -0.0190  0.3564 -0.5087
10590TIP3    H253262   1.437   6.574  12.858  0.3680 -0.6690  1.3608
10591TIP3   OH253263   3.897   6.310   5.221  0.2425 -0.3968 -0.6849
10591TIP3    H153264   3.816   6.288   5.176 -1.5198  1.5952  1.3051
10591TIP3    H253265   3.889   6.267   5.307  0.9399  0.4572 -0.1816
10592TIP3   OH253266   4.226   6.750   2.892  0.1890 -0.0867  0.3218
10592TIP3    H153267   4.201   6.658   2.895  2.8535 -0.9562 -0.8327
10592TIP3    H253268   4.187   6.783   2.811  0.0739 -0.4959  0.2096
10593TIP3   OH253269   5.828   1.486  16.541 -0.2693 -0.4274  0.7782
10593TIP3    H153270   5.815   1.453  16.630 -2.7253 -0.4675  0.4560
10593TIP3    H253271   5.740   1.498  16.506  0.5692  2.3092 -0.6801
10594TIP3   OH253272   4.509   6.228   1.101 -0.2585 -0.0433  0.0584
10594TIP3    H153273   4.601   6.220   1.129 -0.4194  0.5074  0.7673
10594TIP3    H253274   4.467   6.279   1.171 -0.8668  0.6096 -0.7667
10595TIP3   OH253275   5.530   1.233   0.033  0.5016  0.3145  0.0477
10595TIP3    H153276   5.490   1.147   0.047 -1.1688  1.0121 -0.2042
10595TIP3    H253277   5.562   1.258   0.120  2.3745 -1.1717 -0.1602
10596TIP3   OH253278   5.366   0.503  11.745 -0.4728 -0.3551 -0.0950
10596TIP3    H153279   5.347   0.572  11.809 -1.0367 -0.9322  0.3711
10596TIP3    H253280   5.319   0.530  11.666  0.0705  0.2619 -0.2212
10597TIP3   OH253281   4.200   3.455  16.397  0.5280 -0.2217  0.7467
10597TIP3    H153282   4.190   3.392  16.469  1.2764 -0.1610  0.9128
10597TIP3    H253283   4.132   3.431  16.335 -0.5166  0.0995  1.7434
10598TIP3   OH253284   0.449   3.567  11.318 -0.2636 -0.0570 -0.1732
10598TIP3    H153285   0.429   3.571  11.224 -0.1676  1.2941 -0.1616
10598TIP3    H253286   0.369   3.600  11.360  0.3355  1.0642  0.1102
10599TIP3   OH253287   2.057   1.252   3.297  0.1125  0.7278  0.2038
10599TIP3    H153288   1.979   1.307   3.308 -1.5023 -0.9637 -1.8500
10599TIP3    H253289   2.058   1.197   3.375 -2.0428 -0.6163 -0.6245
10600TIP3   OH253290   1.637   5.082  12.498  0.1732 -0.6288  0.1889
10600TIP3    H153291   1.556   5.069  12.449  0.7625 -1.4594 -0.6172
10600TIP3    H253292   1.618   5.153  12.560 -1.2559 -1.0384  0.2450
10601TIP3   OH253293   2.570   2.968  13.389 -0.1154 -0.1825 -0.4430
10601TIP3    H153294   2.543   3.051  13.429  0.6894  0.0545 -0.3710
10601TIP3    H253295   2.504   2.905  13.417 -2.0686  0.8847 -2.3797
10602TIP3   OH253296   1.083   5.380  14.354 -0.5084  0.3547  0.3294
10602TIP3    H153297   1.010   5.442  14.344 -3.1395 -2.6758 -0.9653
10602TIP3    H253298   1.140   5.421  14.420 -2.3224  3.7899  0.0167
10603TIP3   OH253299   6.623   0.973   0.522  0.3406  0.3565  0.4545
10603TIP3    H153300   6.710   0.942   0.496 -0.7189 -1.7955 -0.7913
10603TIP3    H253301   6.576   0.984   0.439 -1.6450 -1.9598  1.1585
10604TIP3   OH253302   4.713   6.612  14.672  0.5833  0.4640 -0.7020
10604TIP3    H153303   4.687   6.666  14.597  0.2312  0.1908 -0.7775
10604TIP3    H253304   4.747   6.675  14.736 -3.8033  1.4350  1.0165
10605TIP3   OH253305   2.605   4.235   0.669 -0.2493  0.3187 -0.8235
10605TIP3    H153306   2.595   4.146   0.635  3.9026 -0.5986 -0.2540
10605TIP3    H253307   2.638   4.286   0.596 -1.2024  1.0697 -0.7547
10606TIP3   OH253308   4.002   0.610   3.734  0.1988 -0.4472  0.0829
10606TIP3    H153309   4.092   0.627   3.706 -0.0731  2.0809  0.5178
10606TIP3    H253310   4.009   0.594   3.828  0.0069  2.3589  0.6469
10607TIP3   OH253311   4.902   0.857  16.689  0.2226 -0.2070 -0.5389
10607TIP3    H153312   4.968   0.845  16.620  0.1920 -1.6059 -0.3417
10607TIP3    H253313   4.843   0.924  16.653  1.9553  1.4133 -0.5300
10608TIP3   OH253314   2.815   2.832  13.503 -0.3785 -0.0322 -0.3041
10608TIP3    H153315   2.745   2.894  13.482  0.9212  2.2292  1.5227
10608TIP3    H253316   2.799   2.807  13.593  0.7268 -0.0197 -0.0826
10609TIP3   OH253317   4.403   6.643  15.516  0.0271 -0.3524  0.0666
10609TIP3    H153318   4.468   6.673  15.579  0.4883 -1.9643  0.4117
10609TIP3    H253319   4.439   6.562  15.480 -0.1223  0.6080 -2.4690
10610TIP3   OH253320   4.452   4.567  12.785  0.0175  0.5334 -0.4756
10610TIP3    H153321   4.482   4.629  12.851  1.4844 -0.3324 -0.2856
10610TIP3    H253322   4.359   4.553  12.805  0.5708 -0.2027  1.8440
10611TIP3   OH253323   0.927   1.348  13.407 -0.7357 -0.1931  0.0528
10611TIP3    H153324   0.869   1.406  13.456 -0.5926  0.1643 -0.1996
10611TIP3    H253325   1.005   1.340  13.462 -0.6411  0.0792 -0.0398
10612TIP3   OH253326   6.222   0.284  12.096  0.1914  0.0599 -0.0628
10612TIP3    H153327   6.263   0.333  12.025  0.0764  1.6950  0.9327
10612TIP3    H253328   6.294   0.239  12.140  0.4652  0.2676 -0.2993
10613TIP3   OH253329   5.153   2.001  14.710 -0.0052 -0.5144 -0.0314
10613TIP3    H153330   5.159   1.930  14.646 -2.7454 -1.9553  1.1150
10613TIP3    H253331   5.186   1.963  14.791  0.2670  0.1484  0.1700
10614TIP3   OH253332   4.810   3.284   3.092 -0.2785  0.4039  0.0833
10614TIP3    H153333   4.862   3.219   3.137 -1.5389 -2.1567 -1.9105
10614TIP3    H253334   4.853   3.296   3.007 -1.6440 -0.1168 -0.7252
10615TIP3   OH253335   2.648   1.981   1.474  0.5953 -0.3188  0.1478
10615TIP3    H153336   2.740   1.956   1.479  0.3397 -1.4716 -0.4223
10615TIP3    H253337   2.615   1.969   1.564  1.0633  0.3846  0.4149
10616TIP3   OH253338   1.544   5.847   1.388  0.3517 -0.2561 -0.1082
10616TIP3    H153339   1.557   5.879   1.478 -1.3149  1.2169 -0.3554
10616TIP3    H253340   1.583   5.759   1.389  3.1046  0.8444  1.2082
10617TIP3   OH253341   5.335   0.469   5.207  0.1830 -0.0887  0.4401
10617TIP3    H153342   5.356   0.398   5.147  0.8131  0.9814 -0.6549
10617TIP3    H253343   5.320   0.545   5.150 -0.9880  0.5488  1.5318
10618TIP3   OH253344   1.357   1.694  16.946 -0.5667  0.9847 -0.9256
10618TIP3    H153345   1.267   1.719  16.964 -0.7814  0.4988 -1.3041
10618TIP3    H253346   1.381   1.744  16.868 -0.8189  0.4341 -1.3660
10619TIP3   OH253347   2.134   2.466  14.945  0.0741  0.0301  0.2627
10619TIP3    H153348   2.070   2.418  14.892 -0.2353  0.6402  0.0785
10619TIP3    H253349   2.099   2.555  14.951  0.4615  0.1480  0.9050
10620TIP3   OH253350   0.157   0.016  17.075 -0.7622 -0.1666  0.3867
10620TIP3    H153351   0.188  -0.024  17.157  0.3752 -0.7444 -0.2964
10620TIP3    H253352   0.234   0.063  17.042 -1.3725  0.5203 -0.0868
10621TIP3   OH253353   2.252   5.404   5.390 -0.1174 -0.5546  1.0634
10621TIP3    H153354   2.275   5.376   5.302  0.7733 -2.9222  1.9712
10621TIP3    H253355   2.157   5.388   5.396 -0.8945  2.6841 -0.4170
10622TIP3   OH253356   3.467   0.398   1.078 -0.1822 -0.3525  0.0602
10622TIP3    H153357   3.488   0.308   1.104 -0.3028  0.0199  1.5142
10622TIP3    H253358   3.502   0.452   1.149  1.0606  0.8612 -1.4229
10623TIP3   OH253359   4.038   1.991  10.671  0.2912  0.3872 -0.5956
10623TIP3    H153360   3.965   2.001  10.731  1.7550  0.8817  1.1803
10623TIP3    H253361   4.025   2.060  10.605 -0.7099  0.5973 -0.1942
10624TIP3   OH253362   4.424   0.309   4.430  0.1397 -0.6052 -0.3395
10624TIP3    H153363   4.416   0.214   4.414  0.6595 -0.5893 -0.7362
10624TIP3    H253364   4.445   0.316   4.523 -1.0143 -0.8135 -0.0488
10625TIP3   OH253365   6.458   6.056  13.885  0.3856 -0.0709  0.1019
10625TIP3    H153366   6.499   6.074  13.800  1.6801 -0.8972  0.5231
10625TIP3    H253367   6.426   5.966  13.878  0.9904 -0.3345  0.6663
10626TIP3   OH253368   4.026   6.072  13.646 -0.7598  0.1489 -0.0448
10626TIP3    H153369   4.057   6.093  13.557 -1.9595 -1.3874 -0.8778
10626TIP3    H253370   4.101   6.029  13.687 -0.2979  0.5767 -0.4135
10627TIP3   OH253371   4.432   0.797  16.875  0.7883  0.4580 -0.0454
10627TIP3    H153372   4.527   0.790  16.888  0.7136  1.0228  0.8261
10627TIP3    H253373   4.394   0.768  16.957  0.1009 -1.8413 -1.0781
10628TIP3   OH253374   5.338   1.366   0.253  0.1243  0.0361  0.0068
10628TIP3    H153375   5.293   1.284   0.231 -0.6979  0.5719 -0.3263
10628TIP3    H253376   5.421   1.337   0.292 -0.1206 -0.9552 -0.1710
10629TIP3   OH253377   0.396   6.230   3.426 -0.0390  0.6925  0.1196
10629TIP3    H153378   0.350   6.151   3.457 -1.4483  1.3370 -0.2380
10629TIP3    H253379   0.481   6.226   3.469 -1.0686  0.3646  2.2787
10630TIP3   OH253380   5.030   5.306  15.584  0.4687 -0.1008 -0.0075
10630TIP3    H153381   5.121   5.280  15.594  0.3839 -0.8137 -0.9768
10630TIP3    H253382   5.032   5.402  15.580  1.2166 -0.1281 -0.4546
10631TIP3   OH253383   6.011   0.040  10.474 -0.8245  0.1294 -0.6119
10631TIP3    H153384   5.951   0.027  10.547 -0.6040  0.7690 -0.3048
10631TIP3    H253385   5.962   0.092  10.411 -0.5429  0.8097 -0.2800
10632TIP3   OH253386   1.246   5.839   4.120 -0.0095  0.3977  0.0205
10632TIP3    H153387   1.184   5.884   4.177 -1.2760  1.4860 -2.1314
10632TIP3    H253388   1.331   5.876   4.144 -0.7005  1.9732  0.1714
10633TIP3   OH253389   1.531   3.230  12.324  0.4358 -0.1703  0.3929
10633TIP3    H153390   1.592   3.274  12.263  0.5848  0.1827  0.7892
10633TIP3    H253391   1.445   3.241  12.283  0.0198  3.0932  1.8398
10634TIP3   OH253392   2.410   5.189  15.440  0.1157 -0.2049 -0.1066
10634TIP3    H153393   2.370   5.102  15.442  1.9768 -1.1056  2.3065
10634TIP3    H253394   2.430   5.209  15.531  1.0687  2.1418 -0.7465
10635TIP3   OH253395   4.820   2.437   0.765  0.3062 -0.1728 -0.5757
10635TIP3    H153396   4.847   2.352   0.799  0.1300 -0.2624 -0.6645
10635TIP3    H253397   4.731   2.424   0.734  0.0377  0.2069  0.0210
10636TIP3   OH253398   4.922   5.878  11.395 -0.0206  0.1622  0.3391
10636TIP3    H153399   4.999   5.884  11.340 -1.2559  0.0936 -1.4655
10636TIP3    H253400   4.956   5.852  11.481  2.2903  3.1035  0.4713
10637TIP3   OH253401   6.644   4.774  14.902  0.2329 -0.2268  0.2672
10637TIP3    H153402   6.658   4.867  14.923 -1.6892 -0.2798  2.1063
10637TIP3    H253403   6.672   4.727  14.980 -1.7546 -0.8909  0.6491
10638TIP3   OH253404   1.513   0.218   0.117 -0.1909  0.2555 -0.2346
10638TIP3    H153405   1.499   0.310   0.137 -0.3127  0.2169 -0.1344
10638TIP3    H253406   1.443   0.196   0.056  0.5727  0.5385 -1.2287
10639TIP3   OH253407   1.039   1.787   2.615 -0.0051  0.2547 -0.1641
10639TIP3    H153408   0.979   1.743   2.554 -2.2595  1.7557  0.8383
10639TIP3    H253409   1.118   1.734   2.613 -1.8312 -2.6761 -0.5389
10640TIP3   OH253410   6.398   2.160  17.197 -0.4397  0.5001 -0.1908
10640TIP3    H153411   6.432   2.244  17.167 -1.5751  0.3352 -2.1330
10640TIP3    H253412   6.474   2.102  17.196 -0.3169  0.6144 -2.5452
10641TIP3   OH253413   4.852   5.615  10.361  0.0531 -0.1236 -0.0824
10641TIP3    H153414   4.852   5.698  10.409  0.9602 -0.4977  0.5859
10641TIP3    H253415   4.940   5.580  10.373  0.1654 -0.4585 -1.6396
10642TIP3   OH253416   6.565   6.779  12.472  0.3714  0.5132  0.7180
10642TIP3    H153417   6.617   6.773  12.391  0.4414  0.1017  0.7940
10642TIP3    H253418   6.621   6.743  12.540 -1.0875 -2.8406  0.3115
10643TIP3   OH253419   1.271   1.588   4.268 -0.1655 -0.3792  0.1241
10643TIP3    H153420   1.200   1.603   4.331 -0.2776 -0.1547 -0.0495
10643TIP3    H253421   1.335   1.536   4.315 -0.2625 -0.2411  0.4133
10644TIP3   OH253422   5.346   6.104  10.791  0.0208 -0.6218 -0.3582
10644TIP3    H153423   5.329   6.011  10.800  1.7606 -1.0773 -1.3208
10644TIP3    H253424   5.265   6.140  10.755 -0.5916 -1.7910 -0.1898
10645TIP3   OH253425   2.497   1.516  16.366  0.1405 -0.1634 -0.0292
10645TIP3    H153426   2.446   1.535  16.287 -0.2077 -0.0118  0.2341
10645TIP3    H253427   2.587   1.536  16.341  0.2181 -1.4228 -0.8229
10646TIP3   OH253428   2.343   4.854   2.974 -0.2603 -0.3661 -0.3893
10646TIP3    H153429   2.265   4.907   2.957  1.4298  1.8341 -1.8016
10646TIP3    H253430   2.389   4.853   2.890  1.1327 -1.8233  0.3491
10647TIP3   OH253431   4.823   3.774  16.320 -0.5558 -0.2350 -0.3769
10647TIP3    H153432   4.904   3.725  16.308  0.7161  2.0647 -1.9283
10647TIP3    H253433   4.754   3.711  16.301  0.7325 -2.4738  1.6712
10648TIP3   OH253434   1.093   6.465  11.337  0.6336 -0.0943  0.2657
10648TIP3    H153435   1.165   6.402  11.333  1.1130  0.4664 -0.1190
10648TIP3    H253436   1.096   6.511  11.253 -0.8348 -0.7693 -0.1726
10649TIP3   OH253437   4.504   6.518   4.447  0.0915 -0.3622  0.1036
10649TIP3    H153438   4.438   6.538   4.514 -0.3767 -3.2449  0.6567
10649TIP3    H253439   4.484   6.578   4.375 -0.7839  1.3359  1.6799
10650TIP3   OH253440   4.124   1.686   1.853 -0.5686  0.0898  0.3367
10650TIP3    H153441   4.083   1.763   1.814  0.9923  0.6586 -0.2297
10650TIP3    H253442   4.218   1.700   1.843 -0.2334 -1.8020  0.3907
10651TIP3   OH253443   5.753   0.421  12.104 -0.2969 -1.0586 -0.2548
10651TIP3    H153444   5.738   0.385  12.016 -0.6590 -0.9873 -0.2239
10651TIP3    H253445   5.720   0.354  12.163 -0.0115 -1.1258 -0.1676
10652TIP3   OH253446   1.960   2.063  14.957 -0.1326  0.3175  0.3046
10652TIP3    H153447   1.924   2.025  14.877  1.4780 -0.5250 -0.0453
10652TIP3    H253448   1.902   2.137  14.976 -2.1676 -1.1024 -0.0875
10653TIP3   OH253449   5.996   5.203  10.605 -0.0474  0.1643  0.2157
10653TIP3    H153450   5.905   5.222  10.628 -0.7356 -2.4313 -0.0849
10653TIP3    H253451   6.047   5.238  10.678 -1.2842  1.3084  0.5813
10654TIP3   OH253452   5.404   2.363  17.063 -0.0808  0.1102 -0.5572
10654TIP3    H153453   5.351   2.312  17.003  0.8468 -0.0441 -1.2545
10654TIP3    H253454   5.372   2.338  17.150 -0.4950 -0.6843 -0.9296
10655TIP3   OH253455   1.506   4.691  12.406 -1.0798 -0.1348  0.0098
10655TIP3    H153456   1.512   4.603  12.443 -3.1656 -0.4268 -0.2464
10655TIP3    H253457   1.575   4.694  12.340 -1.2021 -1.6918 -0.2111
10656TIP3   OH253458   1.376   6.684  12.277 -0.5716  0.2918  0.2031
10656TIP3    H153459   1.349   6.726  12.359 -0.7646  0.8677 -0.1482
10656TIP3    H253460   1.429   6.750  12.232  1.0600 -0.6545  0.6577
10657TIP3   OH253461   3.657   0.124   4.912 -0.1914 -0.0518  0.0725
10657TIP3    H153462   3.573   0.078   4.912 -0.8671  1.1207 -1.1058
10657TIP3    H253463   3.673   0.144   4.819  1.5328 -0.5018  0.2436
10658TIP3   OH253464   6.564   3.666  16.127  0.0040 -0.1472 -0.6986
10658TIP3    H153465   6.470   3.685  16.116  0.3586  1.2681 -1.6068
10658TIP3    H253466   6.603   3.752  16.142  0.9386 -0.9234  1.7626
10659TIP3   OH253467   1.396   6.003   2.004  0.6282  0.0385 -0.0096
10659TIP3    H153468   1.310   5.985   2.041  0.5200 -0.3221 -0.4246
10659TIP3    H253469   1.448   5.925   2.025  1.8417  1.4900  3.0210
10660TIP3   OH253470   1.850   0.921  12.485  0.1136  0.2394  0.3984
10660TIP3    H153471   1.930   0.946  12.439 -0.5390 -0.9664 -1.5049
10660TIP3    H253472   1.794   0.998  12.479  0.1157  0.1712 -0.6960
10661TIP3   OH253473   2.092   1.103  13.105  0.3067  0.0042 -0.0570
10661TIP3    H153474   2.097   1.063  13.192  1.1705  1.1799  0.4741
10661TIP3    H253475   2.080   1.197  13.122  0.4011  0.2472 -1.2025
10662TIP3   OH253476   3.802   5.889  14.546 -0.2334 -0.1202  0.5790
10662TIP3    H153477   3.772   5.946  14.475 -1.0336 -0.5558  0.5478
10662TIP3    H253478   3.738   5.902  14.616  0.0665 -0.3395  0.8970
10663TIP3   OH253479   2.331   3.559   1.107  0.0508 -0.4726  0.1983
10663TIP3    H153480   2.343   3.582   1.015 -2.2645 -1.3913 -0.4075
10663TIP3    H253481   2.319   3.643   1.151 -0.0659 -0.0777 -0.5598
10664TIP3   OH253482   0.483   1.455   3.169  0.4700 -0.6108 -0.1104
10664TIP3    H153483   0.557   1.515   3.174  0.3347 -0.5330  1.4826
10664TIP3    H253484   0.467   1.429   3.260 -2.4051  0.5464 -0.1705
10665TIP3   OH253485   0.555   0.656  15.795 -0.1477 -0.1709  0.6140
10665TIP3    H153486   0.551   0.686  15.705 -0.8786  0.3209  0.8061
10665TIP3    H253487   0.551   0.561  15.789 -1.1342 -0.1080  0.1763
10666TIP3   OH253488   3.975   2.629  11.476  0.0319 -0.4294  0.2021
10666TIP3    H153489   3.912   2.663  11.539  1.5525  2.7529  0.2067
10666TIP3    H253490   4.030   2.569  11.527  0.8538  1.6079  1.8482
10667TIP3   OH253491   3.966   3.067   5.158 -0.1221  0.0874 -0.0258
10667TIP3    H153492   3.874   3.087   5.140 -0.4904  0.4341  1.9633
10667TIP3    H253493   3.974   2.974   5.138 -0.8580  0.1025 -0.4326
10668TIP3   OH253494   4.075   0.444  15.260  0.2731  0.0825  0.0778
10668TIP3    H153495   4.014   0.467  15.329 -0.2691 -0.0599 -0.3477
10668TIP3    H253496   4.144   0.394  15.305 -0.0177  0.0818  0.5311
10669TIP3   OH253497   5.071   1.359  14.501 -0.0315  0.6377 -0.2432
10669TIP3    H153498   4.986   1.347  14.457 -0.6732  1.8831  0.5932
10669TIP3    H253499   5.051   1.352  14.594  1.1270 -0.8554 -0.0626
10670TIP3   OH253500   0.490   4.125   2.449 -0.1960 -0.0687  0.0056
10670TIP3    H153501   0.505   4.094   2.360 -1.6729  0.4495 -0.4501
10670TIP3    H253502   0.398   4.153   2.450  0.4117  2.1307  1.0026
10671TIP3   OH253503   2.395   4.616  11.486 -0.5480 -0.7014  0.0402
10671TIP3    H153504   2.373   4.524  11.478 -0.0930 -1.1163  2.7180
10671TIP3    H253505   2.472   4.618  11.543 -0.5870  1.3278  0.1114
10672TIP3   OH253506   6.220   2.356  10.730  0.3950  0.3112 -0.0733
10672TIP3    H153507   6.249   2.310  10.651 -2.2928 -2.0965  0.1846
10672TIP3    H253508   6.247   2.300  10.802  0.2219  0.9923  0.5304
10673TIP3   OH253509   3.967   0.349  13.019 -0.1924 -0.2668 -0.0878
10673TIP3    H153510   4.003   0.297  13.091  1.4019  0.9066  0.0288
10673TIP3    H253511   4.044   0.391  12.979 -1.3597  2.0454 -0.0915
10674TIP3   OH253512   2.699   2.693   4.637 -0.7210 -0.0684 -0.6818
10674TIP3    H153513   2.776   2.745   4.661  0.1548 -1.7258  0.2704
10674TIP3    H253514   2.681   2.718   4.546  2.8853 -1.7818 -2.0592
10675TIP3   OH253515   3.634   2.320   5.182  0.0013 -0.9949  0.1902
10675TIP3    H153516   3.548   2.278   5.186 -0.4427 -0.1785 -0.4884
10675TIP3    H253517   3.648   2.355   5.269  0.7735 -3.2574  1.0572
10676TIP3   OH253518   6.560   3.450  16.354  0.4357  0.5523  0.3406
10676TIP3    H153519   6.532   3.420  16.267  0.0457 -0.6208  0.8524
10676TIP3    H253520   6.523   3.538  16.362  1.2753  1.0648 -1.0486
10677TIP3   OH253521   2.966   2.279   3.337  0.1385  0.2754  0.9070
10677TIP3    H153522   2.937   2.348   3.278  0.5103  0.3301  0.7854
10677TIP3    H253523   3.022   2.222   3.283 -0.3400 -0.2418  0.9498
10678TIP3   OH253524   6.608   0.967  14.057  0.0022 -0.0488  0.6009
10678TIP3    H153525   6.689   0.959  14.007  0.6905 -0.2305  1.7202
10678TIP3    H253526   6.625   1.036  14.120 -0.3855 -0.7143  1.4583
10679TIP3   OH253527   2.841   3.786  14.069 -0.0193 -0.4012  0.3144
10679TIP3    H153528   2.819   3.873  14.104  0.2658 -0.0970 -0.2524
10679TIP3    H253529   2.801   3.725  14.131 -0.9092  0.1308  0.2761
10680TIP3   OH253530   2.833   2.014  16.912 -0.2766  0.5284 -0.0899
10680TIP3    H153531   2.867   2.093  16.871 -1.7009  0.7872 -0.8236
10680TIP3    H253532   2.774   2.045  16.981  0.6747  0.0884  0.9665
10681TIP3   OH253533   3.444   0.805  16.858  0.5750  0.3019 -0.1219
10681TIP3    H153534   3.356   0.843  16.853  0.5923  0.3971  0.2866
10681TIP3    H253535   3.455   0.761  16.774 -0.8857 -1.9674  0.7779
10682TIP3   OH253536   5.499   1.062   6.717 -0.0856 -0.1050 -0.5179
10682TIP3    H153537   5.516   1.095   6.628 -1.4929  2.0048 -0.0472
10682TIP3    H253538   5.404   1.064   6.726 -0.1406 -2.5463  0.2774
10683TIP3   OH253539   1.293   5.095  15.847 -0.9404  0.2668  0.3094
10683TIP3    H153540   1.311   5.189  15.842  1.9927 -0.2372 -0.9703
10683TIP3    H253541   1.356   5.063  15.912 -3.5209 -0.5871  2.5615
10684TIP3   OH253542   4.311   0.210   5.399 -0.0376  0.0316  0.0284
10684TIP3    H153543   4.388   0.181   5.350 -0.0905  3.6699 -2.5972
10684TIP3    H253544   4.237   0.167   5.355  0.1419  1.0608 -1.3443
10685TIP3   OH253545   2.500   3.380  16.606 -0.1663  0.3566  0.1964
10685TIP3    H153546   2.531   3.444  16.671 -2.0690  0.1177  1.4332
10685TIP3    H253547   2.565   3.383  16.536  1.2241  1.6642  1.4736
10686TIP3   OH253548   3.224   2.096   3.532  0.0289 -0.1700 -0.7836
10686TIP3    H153549   3.186   2.050   3.457  1.6363 -2.0286 -0.5248
10686TIP3    H253550   3.212   2.035   3.606 -0.2632  1.0290  0.1960
10687TIP3   OH253551   2.345   5.669   2.001 -1.0215 -0.2540 -0.5783
10687TIP3    H153552   2.344   5.573   2.011  0.8352 -0.3014 -0.5485
10687TIP3    H253553   2.394   5.700   2.078 -1.6842  0.7363 -0.5479
10688TIP3   OH253554   5.730   4.402   0.525  0.4504 -0.2935 -0.0237
10688TIP3    H153555   5.794   4.382   0.593  1.5656 -1.0211 -1.2421
10688TIP3    H253556   5.750   4.341   0.454  0.0996  1.2282 -1.4954
10689TIP3   OH253557   1.253   5.100   0.726  0.1429  0.2676  0.2102
10689TIP3    H153558   1.320   5.067   0.666 -0.6831 -1.9753  0.4308
10689TIP3    H253559   1.231   5.187   0.692  1.2328 -0.0595 -1.4407
10690TIP3   OH253560   4.420   2.121   2.618 -0.9127  0.0453  0.4735
10690TIP3    H153561   4.357   2.084   2.556  2.1128 -1.2076 -2.1283
10690TIP3    H253562   4.388   2.095   2.704 -4.5604  0.6078 -0.5539
10691TIP3   OH253563   5.444   2.097   3.910  0.6493 -0.3277  0.5104
10691TIP3    H153564   5.533   2.127   3.924  0.9312 -0.8645 -0.0417
10691TIP3    H253565   5.451   2.001   3.913 -0.1971 -0.3738  2.1271
10692TIP3   OH253566   3.540   4.222  12.538  0.0257 -0.3479  0.0512
10692TIP3    H153567   3.447   4.198  12.542  0.0162 -0.4651 -0.6589
10692TIP3    H253568   3.546   4.302  12.589 -0.1132 -1.3326  1.7003
10693TIP3   OH253569   2.639   5.722   4.773 -0.2478 -0.4550 -0.4380
10693TIP3    H153570   2.731   5.696   4.782 -0.2046 -0.0579  0.3598
10693TIP3    H253571   2.590   5.641   4.786 -0.0437 -0.4814  0.2232
10694TIP3   OH253572   0.030   4.809   3.160 -0.4767 -0.3567 -0.0426
10694TIP3    H153573   0.039   4.904   3.150 -0.3560 -0.3763 -0.1239
10694TIP3    H253574  -0.013   4.798   3.244 -0.4623 -0.2299 -0.0177
10695TIP3   OH253575   1.229   1.374  13.202 -0.5630 -0.2962  0.1239
10695TIP3    H153576   1.241   1.318  13.279 -0.1816 -0.4700 -0.0584
10695TIP3    H253577   1.148   1.342  13.162 -0.9652  0.0416  0.6564
10696TIP3   OH253578   2.106   6.681  16.376  0.1942  0.3850 -0.1129
10696TIP3    H153579   2.015   6.696  16.401  0.0143 -1.5266  0.4937
10696TIP3    H253580   2.135   6.609  16.431  2.1341  1.0300 -0.2093
10697TIP3   OH253581   4.503   5.027  16.879 -0.3157  0.1364 -0.0386
10697TIP3    H153582   4.499   5.027  16.975 -0.8470  1.8057 -0.0093
10697TIP3    H253583   4.422   4.983  16.852  0.2499 -1.1141  0.2577
10698TIP3   OH253584   0.838   1.221  14.265 -0.3525 -0.0439  0.2400
10698TIP3    H153585   0.837   1.263  14.351  1.0127 -2.5717  1.6074
10698TIP3    H253586   0.889   1.281  14.210  2.1886 -0.1365  2.2740
10699TIP3   OH253587   3.344   4.669   0.187  0.3237 -0.2813  0.0746
10699TIP3    H153588   3.353   4.657   0.282  0.2715  0.8381  0.2307
10699TIP3    H253589   3.384   4.591   0.149 -1.2537 -1.6471  1.0415
10700TIP3   OH253590   0.080   3.460  12.391 -0.1013 -0.5765 -0.5318
10700TIP3    H153591   0.113   3.484  12.305  1.8040 -0.7511  0.0994
10700TIP3    H253592   0.072   3.365  12.388 -0.0233 -0.5837 -0.5274
10701TIP3   OH253593   1.473   4.993  16.847 -0.1520 -0.1910 -0.1495
10701TIP3    H153594   1.543   5.019  16.907 -0.0173  1.9568 -1.1497
10701TIP3    H253595   1.518   4.962  16.769 -0.2519  1.4685 -0.9089
10702TIP3   OH253596   3.130   1.222   5.760  0.0070 -0.0709  0.0410
10702TIP3    H153597   3.067   1.269   5.816  0.7279  0.2317  0.6061
10702TIP3    H253598   3.075   1.176   5.696 -0.9792 -1.9142  2.0937
10703TIP3   OH253599   1.294   0.914   6.220 -0.2312 -0.4602 -0.4945
10703TIP3    H153600   1.387   0.936   6.213 -0.1711 -1.2905 -3.3641
10703TIP3    H253601   1.291   0.819   6.211 -1.2544 -0.7389  1.9048
10704TIP3   OH253602   6.330   1.992  11.120  1.0434 -0.2630  0.0431
10704TIP3    H153603   6.266   1.921  11.123  1.3733 -0.5510  0.3094
10704TIP3    H253604   6.296   2.057  11.182 -1.3431  1.6309 -2.9368
10705TIP3   OH253605   1.293   5.072   2.269  0.7712 -0.7524 -0.4971
10705TIP3    H153606   1.219   5.025   2.308 -0.2096  0.6371 -0.5627
10705TIP3    H253607   1.259   5.104   2.185  0.4491  2.1752  0.6150
10706TIP3   OH253608   0.852   3.698   4.763  0.4138 -0.7549  0.3327
10706TIP3    H153609   0.875   3.774   4.816  1.7415  0.3820 -1.7443
10706TIP3    H253610   0.778   3.727   4.710  1.0866 -0.8156 -0.6496
10707TIP3   OH253611   0.800   4.351   0.189  0.5109  0.6755 -0.4343
10707TIP3    H153612   0.842   4.272   0.222 -0.0353  0.7157  0.3657
10707TIP3    H253613   0.727   4.368   0.249 -1.2782  0.0673 -2.3058
10708TIP3   OH253614   2.363   5.479   2.229  0.3279 -0.6142  0.2862
10708TIP3    H153615   2.402   5.402   2.271  0.3588 -0.3244  0.8045
10708TIP3    H253616   2.378   5.550   2.292 -0.1147 -0.2831  0.0234
10709TIP3   OH253617   2.516   4.369   0.881  0.0046  0.1624 -0.0154
10709TIP3    H153618   2.567   4.327   0.812  0.3079  0.4761  0.0153
10709TIP3    H253619   2.503   4.459   0.851 -1.8126 -0.3056 -0.7093
10710TIP3   OH253620   1.875   0.335   0.557 -0.4576 -0.8758  0.3207
10710TIP3    H153621   1.895   0.255   0.605  0.6957 -2.1730 -2.1048
10710TIP3    H253622   1.959   0.381   0.551 -0.7169 -0.4283  0.0772
10711TIP3   OH253623   6.067   6.690   2.212  0.3010  0.2321 -0.4778
10711TIP3    H153624   6.028   6.772   2.241 -0.0328 -0.2563  0.4684
10711TIP3    H253625   5.993   6.629   2.205  0.9113 -0.9161  2.0688
10712TIP3   OH253626   5.008   4.860  11.741 -0.1579 -0.3567  0.0445
10712TIP3    H153627   5.055   4.859  11.657  0.5037 -0.5200  0.4143
10712TIP3    H253628   5.059   4.802  11.798  0.5686  1.3267  1.1966
10713TIP3   OH253629   6.658   2.593   1.857  0.0772  0.0519  0.2064
10713TIP3    H153630   6.622   2.516   1.902 -1.5288  0.9036  0.4345
10713TIP3    H253631   6.658   2.568   1.764 -0.3945 -0.2513  0.2822
10714TIP3   OH253632   6.560   2.141   2.149 -0.0244 -0.3126  0.1545
10714TIP3    H153633   6.640   2.113   2.192 -1.0572 -1.0080  1.6917
10714TIP3    H253634   6.498   2.159   2.220 -0.9654  1.1026 -0.9476
10715TIP3   OH253635   3.763   4.935   0.170  0.4149 -0.4027  0.0135
10715TIP3    H153636   3.717   5.004   0.121 -1.4066 -0.1547  1.8951
10715TIP3    H253637   3.834   4.981   0.215 -0.5583  0.2285  0.9612
10716TIP3   OH253638   4.863   1.850   2.488 -0.3792 -0.9669 -0.4949
10716TIP3    H153639   4.871   1.890   2.575 -0.1514 -1.3994 -0.3134
10716TIP3    H253640   4.770   1.832   2.479 -0.6385  0.5007 -0.9901
10717TIP3   OH253641   4.787   1.876   2.970 -0.6612  0.2116  0.6674
10717TIP3    H153642   4.748   1.789   2.966 -0.1697 -0.1178  2.3115
10717TIP3    H253643   4.713   1.935   2.980 -0.8795 -0.4277  3.9866
10718TIP3   OH253644   0.084   2.671  12.216 -0.6882 -0.2117  0.6790
10718TIP3    H153645   0.126   2.594  12.176  0.2817 -1.5934  3.9745
10718TIP3    H253646  -0.006   2.644  12.231 -1.2425  0.5604 -1.0558
10719TIP3   OH253647   4.439   2.992   5.051  0.1260  0.0882  0.4446
10719TIP3    H153648   4.374   2.985   5.121  1.7211 -0.4310  1.9605
10719TIP3    H253649   4.433   2.908   5.005 -1.3128  0.6447 -0.4413
10720TIP3   OH253650   3.209   1.046  15.726  0.2052  0.1421 -0.3758
10720TIP3    H153651   3.214   1.078  15.635  1.4749  0.6127 -0.1688
10720TIP3    H253652   3.247   1.117  15.778  2.0731 -1.2061  0.2178
10721TIP3   OH253653   5.798   5.368  13.868  0.2252  0.0559 -0.1002
10721TIP3    H153654   5.839   5.430  13.806  2.9585 -0.3497  1.1317
10721TIP3    H253655   5.868   5.347  13.930 -1.3117 -2.4409  0.9408
10722TIP3   OH253656   3.070   2.742   1.415 -0.0356 -0.6096 -0.6646
10722TIP3    H153657   3.152   2.773   1.377  0.4077 -0.5064  0.3344
10722TIP3    H253658   3.086   2.649   1.432  0.3889 -0.3115  0.7598
10723TIP3   OH253659   2.636   1.603   4.481 -0.2183 -0.3127 -0.0384
10723TIP3    H153660   2.673   1.686   4.453 -1.5096  1.0129  1.8944
10723TIP3    H253661   2.553   1.596   4.434 -1.6505  1.1600  2.0899
10724TIP3   OH253662   2.889   6.217  13.826  0.1313 -0.3603  0.5439
10724TIP3    H153663   2.910   6.310  13.833  1.6729 -0.7091  1.0028
10724TIP3    H253664   2.974   6.174  13.812 -0.7885 -1.5052 -2.2300
10725TIP3   OH253665   5.742   4.779   3.731 -0.1620 -0.5303  0.7669
10725TIP3    H153666   5.654   4.784   3.692 -0.2255  0.9406  1.0359
10725TIP3    H253667   5.772   4.870   3.733  2.9047 -1.2289 -2.7392
10726TIP3   OH253668   1.204   5.170   0.414 -0.6575 -0.7912  1.1189
10726TIP3    H153669   1.280   5.223   0.439 -1.4482  1.3138 -0.6094
10726TIP3    H253670   1.225   5.082   0.444  1.8449  0.0008  1.9230
10727TIP3   OH253671   3.403   4.590   5.401  0.1657  0.1547  0.3116
10727TIP3    H153672   3.357   4.670   5.427  2.3714  1.5519  0.1715
10727TIP3    H253673   3.447   4.560   5.481  0.8628  0.1674 -0.0581
10728TIP3   OH253674   6.167   4.136  11.685 -0.5971 -0.0690  0.3414
10728TIP3    H153675   6.204   4.063  11.635  0.6437  0.7894 -0.0421
10728TIP3    H253676   6.192   4.118  11.776 -1.8273 -1.0162  0.5114
10729TIP3   OH253677   0.217   0.507  14.204  0.2823 -0.5564  0.2208
10729TIP3    H153678   0.180   0.489  14.118 -3.4418 -1.2356  1.7650
10729TIP3    H253679   0.216   0.602  14.212 -1.6545 -0.5623  0.3494
10730TIP3   OH253680   2.197   3.860  14.213 -0.0640 -0.1154 -0.0904
10730TIP3    H153681   2.218   3.946  14.249 -0.4339  0.7653 -1.8319
10730TIP3    H253682   2.110   3.840  14.247 -0.6388  0.9495 -0.8687
10731TIP3   OH253683   3.310   4.898  14.200 -0.2103  0.2396  0.0229
10731TIP3    H153684   3.349   4.883  14.114 -0.5958 -0.8460  0.0130
10731TIP3    H253685   3.234   4.840  14.202 -1.1818  1.4866  0.4748
10732TIP3   OH253686   2.440   1.062   3.206 -0.3260  0.2232 -0.3902
10732TIP3    H153687   2.493   1.032   3.280 -1.8012 -1.8995 -0.1233
10732TIP3    H253688   2.459   1.000   3.136 -2.2804 -0.4727 -0.3394
10733TIP3   OH253689   5.031   2.023  15.324 -0.0591  0.2726  0.7633
10733TIP3    H153690   5.109   2.077  15.335 -0.9676  1.4777  1.4567
10733TIP3    H253691   5.059   1.952  15.266  1.5996  0.5592  1.1706
10734TIP3   OH253692   4.678   5.689  16.736  0.3203 -0.5801 -0.2015
10734TIP3    H153693   4.658   5.783  16.741  2.1395 -0.1602 -0.0764
10734TIP3    H253694   4.710   5.667  16.823 -0.7250 -1.5060 -0.0347
10735TIP3   OH253695   5.054   3.184  12.773 -0.0624 -0.0178 -0.1852
10735TIP3    H153696   4.987   3.248  12.795 -0.2337 -0.1277 -0.3793
10735TIP3    H253697   5.013   3.128  12.706  0.5792  0.5676 -1.0941
10736TIP3   OH253698   5.938   4.655   5.898  0.3384 -0.2972 -0.0362
10736TIP3    H153699   5.869   4.624   5.839  0.2713 -1.1820  0.4937
10736TIP3    H253700   5.892   4.683   5.977  0.5653 -0.7414  0.2578
10737TIP3   OH253701   5.001   4.821   5.944 -0.4917 -0.2196 -0.1970
10737TIP3    H153702   4.979   4.831   6.036  0.6816 -0.0497  0.0907
10737TIP3    H253703   4.972   4.733   5.921  1.4039 -1.2442  1.0398
10738TIP3   OH253704   5.616   4.417  11.535  0.6162  0.7637  0.0892
10738TIP3    H153705   5.563   4.371  11.600  1.7714 -1.1551 -0.2503
10738TIP3    H253706   5.586   4.382  11.451 -0.0217  2.3251 -0.3771
10739TIP3   OH253707   5.660   4.032   5.046  0.0142 -0.4423  0.2722
10739TIP3    H153708   5.715   3.955   5.035  0.7368  0.1216 -0.1223
10739TIP3    H253709   5.718   4.106   5.032 -1.1010  0.1639 -1.4067
10740TIP3   OH253710   1.440   1.521  14.463  0.0021  0.1401 -0.1845
10740TIP3    H153711   1.384   1.543  14.537 -0.4881 -1.4536 -0.0621
10740TIP3    H253712   1.498   1.453  14.495  1.3511  1.0403 -0.6149
10741TIP3   OH253713   3.398   5.429   3.691  0.1754 -0.0000 -0.9397
10741TIP3    H153714   3.463   5.499   3.683  2.2246 -1.8016 -1.1066
10741TIP3    H253715   3.326   5.455   3.634  2.0307  0.7615 -3.0581
10742TIP3   OH253716   4.691   1.376  16.068  0.2327 -0.0405 -0.4543
10742TIP3    H153717   4.661   1.351  16.156 -1.7395 -0.3828 -1.1735
10742TIP3    H253718   4.632   1.447  16.042  0.9204  0.1818 -1.4328
10743TIP3   OH253719   1.933   3.335  11.376  0.3692  0.3841 -0.0180
10743TIP3    H153720   2.002   3.398  11.400  1.0110  0.5227 -2.0274
10743TIP3    H253721   1.891   3.374  11.300 -0.2445 -0.9298 -0.3748
10744TIP3   OH253722   4.299   2.540   2.332  0.0635 -0.0710  0.2474
10744TIP3    H153723   4.210   2.558   2.301  0.3322  0.6655 -0.1155
10744TIP3    H253724   4.339   2.626   2.343  0.3793 -0.3525  1.4775
10745TIP3   OH253725   3.408   5.447  13.789 -0.0744 -0.5242 -0.6048
10745TIP3    H153726   3.335   5.428  13.848  0.1810 -1.8013 -0.6734
10745TIP3    H253727   3.449   5.362  13.773  1.1135  0.1017 -0.9890
10746TIP3   OH253728   0.347   3.700   0.421 -0.2148  0.2210 -0.0537
10746TIP3    H153729   0.258   3.733   0.433  0.3752  1.5108  0.9610
10746TIP3    H253730   0.363   3.645   0.498  0.1222  0.5806  0.1328
10747TIP3   OH253731   4.690   4.443   1.696 -0.4960  0.4820 -0.1752
10747TIP3    H153732   4.693   4.371   1.634 -1.5148  0.6985 -0.5057
10747TIP3    H253733   4.718   4.405   1.779 -0.3421 -0.1208 -0.4977
10748TIP3   OH253734   1.370   5.151  14.962  0.5894  0.7590 -0.0110
10748TIP3    H153735   1.303   5.220  14.954 -0.2365 -0.2187 -2.5417
10748TIP3    H253736   1.428   5.165  14.888  1.6175 -0.0606  0.6095
10749TIP3   OH253737   4.005   5.824   5.020  0.4694 -0.3487 -0.4328
10749TIP3    H153738   4.074   5.759   5.004  1.6133  1.2104 -2.1064
10749TIP3    H253739   4.051   5.907   5.031 -1.0322  0.3961  0.6973
10750TIP3   OH253740   5.179   2.709  16.036 -0.0779  0.1968  0.1336
10750TIP3    H153741   5.148   2.768  16.104  0.8890 -0.5214  1.2286
10750TIP3    H253742   5.244   2.654  16.079  1.2025  0.2906 -1.5848
10751TIP3   OH253743   0.007   3.933  15.869 -0.6498 -0.1655 -0.3341
10751TIP3    H153744   0.003   3.839  15.853  0.3448  0.0338 -1.9424
10751TIP3    H253745  -0.063   3.969  15.814  0.3349  0.1964 -1.3863
10752TIP3   OH253746   0.221   2.229   3.781 -0.3176  0.3563 -0.1197
10752TIP3    H153747   0.127   2.241   3.797  0.0335  0.0391  2.7554
10752TIP3    H253748   0.256   2.317   3.771 -0.6696  0.5747  0.5631
10753TIP3   OH253749   0.377   3.398   1.427 -0.3814  0.6720 -0.1624
10753TIP3    H153750   0.345   3.315   1.462 -2.1765  0.9143 -1.0925
10753TIP3    H253751   0.355   3.395   1.334 -1.6162  2.6652 -0.0051
10754TIP3   OH253752   3.279   4.002  12.487  0.5109 -0.4086 -0.1115
10754TIP3    H153753   3.264   4.074  12.426 -3.4698 -0.9585 -0.0171
10754TIP3    H253754   3.274   4.042  12.574  0.4268 -0.4843 -0.0812
10755TIP3   OH253755   5.113   6.807   4.753  0.3406  0.0382 -0.3710
10755TIP3    H153756   5.195   6.833   4.712 -0.3298  0.8858 -1.2246
10755TIP3    H253757   5.083   6.732   4.700  1.9002 -2.1658  1.6344
10756TIP3   OH253758   1.861   3.383   1.142 -0.1154 -0.0132  0.2872
10756TIP3    H153759   1.838   3.292   1.156 -0.2567 -0.4239 -2.2082
10756TIP3    H253760   1.788   3.432   1.182 -1.0832 -1.0531 -0.1385
10757TIP3   OH253761   0.887   5.904  12.934  0.1159  0.0090 -0.1106
10757TIP3    H153762   0.806   5.943  12.900  0.0022 -0.9011 -0.9145
10757TIP3    H253763   0.957   5.948  12.886 -0.0719 -1.9443 -2.3653
10758TIP3   OH253764   0.642   3.475   6.382 -0.3261 -0.3216  0.5575
10758TIP3    H153765   0.664   3.494   6.291 -0.7747  1.4748  0.8013
10758TIP3    H253766   0.712   3.416   6.411  1.1723  0.9932 -0.2486
10759TIP3   OH253767   4.728   0.614  11.089  0.1341  0.1645 -0.6076
10759TIP3    H153768   4.674   0.666  11.030  0.6193 -0.2933 -1.4734
10759TIP3    H253769   4.739   0.530  11.044 -0.2932 -0.5422  0.5791
10760TIP3   OH253770   5.063   5.227   4.602  0.1152 -0.0253 -0.0675
10760TIP3    H153771   4.985   5.267   4.640  1.4618  0.7657  2.0614
10760TIP3    H253772   5.105   5.298   4.554  0.6149  0.1557  0.6199
10761TIP3   OH253773   2.760   2.248   2.576  0.1472  0.6448  0.2821
10761TIP3    H153774   2.754   2.329   2.625 -0.3038  0.1583  1.0526
10761TIP3    H253775   2.688   2.252   2.513 -1.4184 -0.1764  1.9120
10762TIP3   OH253776   3.864   4.962  11.938  0.1171 -0.4483 -0.4139
10762TIP3    H153777   3.907   5.033  11.986  1.2093 -0.9580 -0.6010
10762TIP3    H253778   3.904   4.882  11.973 -2.9815 -1.2360  1.7653
10763TIP3   OH253779   1.049   0.762   0.323 -0.1020 -0.2841  0.0081
10763TIP3    H153780   1.102   0.764   0.403  0.5587 -1.3231 -0.3737
10763TIP3    H253781   1.078   0.838   0.273 -0.7922  0.5999  0.9028
10764TIP3   OH253782   5.269   1.284   5.298 -0.5322  0.0816  0.6824
10764TIP3    H153783   5.285   1.365   5.248 -1.0675  0.6387  1.3976
10764TIP3    H253784   5.354   1.264   5.337  0.1089 -0.8093 -1.0550
10765TIP3   OH253785   3.660   4.270   3.992 -0.2073  0.3711  0.0656
10765TIP3    H153786   3.732   4.248   4.051  0.6187 -0.0311 -1.0450
10765TIP3    H253787   3.620   4.348   4.030  0.0766 -0.0831  1.3225
10766TIP3   OH253788   2.057   3.193  12.466  0.2156 -0.2857 -0.0411
10766TIP3    H153789   2.081   3.286  12.467 -1.0154  0.0720 -0.9553
10766TIP3    H253790   1.979   3.188  12.521  0.2836 -0.7913  0.0150
10767TIP3   OH253791   1.434   4.736   4.458  0.5108 -0.1538  0.7422
10767TIP3    H153792   1.446   4.825   4.489 -1.3807 -0.2471  1.9080
10767TIP3    H253793   1.502   4.685   4.503  2.5781  0.8446 -1.0521
10768TIP3   OH253794   1.209   2.600   3.616 -0.1944 -0.0151  0.0058
10768TIP3    H153795   1.205   2.554   3.533  0.2896  1.2472 -0.7523
10768TIP3    H253796   1.197   2.692   3.593 -0.5965  0.3104  1.3992
10769TIP3   OH253797   1.331   6.459  14.121 -0.8043  0.3991  0.5963
10769TIP3    H153798   1.313   6.373  14.083  0.2232  1.0075 -1.3831
10769TIP3    H253799   1.398   6.442  14.187  1.2690 -0.0693 -1.5023
10770TIP3   OH253800   5.343   5.943  13.673  0.6709  0.3196  0.2904
10770TIP3    H153801   5.316   5.855  13.699 -0.3985  0.5329 -0.0662
10770TIP3    H253802   5.331   5.945  13.578  0.9059  0.7754  0.2689
10771TIP3   OH253803   2.445   0.005  17.054  0.0420  0.0072  0.5094
10771TIP3    H153804   2.357  -0.015  17.023  0.0741 -0.3543  0.6406
10771TIP3    H253805   2.503  -0.045  16.995  0.0965 -0.8249  1.2407
10772TIP3   OH253806   1.863   2.738   5.021  0.0609 -0.8957  0.9443
10772TIP3    H153807   1.938   2.774   4.973  0.9694 -1.3158  2.0032
10772TIP3    H253808   1.829   2.812   5.071  0.6102 -1.0065  1.4911
10773TIP3   OH253809   0.240   0.237  15.938 -0.2896  0.4375  0.4348
10773TIP3    H153810   0.236   0.314  15.995  1.4533  0.1300  1.0171
10773TIP3    H253811   0.332   0.210  15.939 -0.0373  0.7162 -2.9627
10774TIP3   OH253812   2.418   5.817   2.251  0.0200 -0.4625  0.4448
10774TIP3    H153813   2.397   5.887   2.190 -1.8610  0.6678  2.2748
10774TIP3    H253814   2.343   5.812   2.309  1.2267 -2.2654  1.9820
10775TIP3   OH253815   6.144   2.981   4.434  0.3385 -0.1751 -0.4153
10775TIP3    H153816   6.177   2.922   4.502  2.0177 -0.5743 -1.5215
10775TIP3    H253817   6.076   2.931   4.389 -0.3067 -0.1522  0.4978
10776TIP3   OH253818   0.648   5.549  14.261 -0.1329  0.1580 -0.6716
10776TIP3    H153819   0.594   5.624  14.287 -0.2925  0.4654 -1.8620
10776TIP3    H253820   0.616   5.477  14.316 -1.8808  0.2875 -1.4651
10777TIP3   OH253821   0.408   5.899   1.835  0.0176 -0.8123 -0.1555
10777TIP3    H153822   0.391   5.946   1.917  1.0133  0.9171 -0.8866
10777TIP3    H253823   0.322   5.880   1.799 -0.4270  0.2367  0.3089
10778TIP3   OH253824   0.115   3.471  12.771 -0.1627 -0.3502 -0.0368
10778TIP3    H153825   0.199   3.510  12.746 -1.3804  1.3529 -1.7782
10778TIP3    H253826   0.139   3.395  12.825  2.4787 -0.0025 -0.5715
10779TIP3   OH253827   2.303   1.153   0.049  0.8299  0.0338  0.0278
10779TIP3    H153828   2.355   1.084   0.006  0.0559 -0.2055 -0.5374
10779TIP3    H253829   2.363   1.191   0.113  1.6321 -0.3975 -0.4514
10780TIP3   OH253830   1.246   5.192  13.757  0.4149 -0.1884 -0.3711
10780TIP3    H153831   1.289   5.109  13.734  0.2997  0.3441 -2.6630
10780TIP3    H253832   1.305   5.232  13.822  1.0383 -1.5258 -0.0814
10781TIP3   OH253833   4.762   0.756  12.652  0.0235  0.4572 -0.5916
10781TIP3    H153834   4.832   0.751  12.587  2.0749  0.0439  1.5260
10781TIP3    H253835   4.773   0.677  12.705 -2.2072  0.2789 -0.3097
10782TIP3   OH253836   0.660   6.484   3.725  0.2154  0.2776 -0.3923
10782TIP3    H153837   0.621   6.517   3.644 -0.2176  1.9382  0.4685
10782TIP3    H253838   0.741   6.441   3.696 -0.0259  0.6625 -1.7131
10783TIP3   OH253839   1.116   5.500   3.106 -0.1988 -0.1793  0.2110
10783TIP3    H153840   1.196   5.548   3.085  1.7953 -2.1994  2.5588
10783TIP3    H253841   1.078   5.478   3.020  1.8069  0.7454 -0.9832
10784TIP3   OH253842   4.527   4.872   1.947 -0.3476 -0.2961  0.1116
10784TIP3    H153843   4.581   4.814   1.893  0.1862 -0.6218  0.9746
10784TIP3    H253844   4.523   4.953   1.897  0.6305 -0.3964 -0.1594
10785TIP3   OH253845   6.754   2.492  14.577 -0.4671 -0.0140  0.2371
10785TIP3    H153846   6.759   2.511  14.670 -1.5134 -1.7109  0.7014
10785TIP3    H253847   6.790   2.569  14.534  0.8017  0.4652  2.0586
10786TIP3   OH253848   5.319   2.075  17.149  0.3214  0.5294  0.4173
10786TIP3    H153849   5.255   2.095  17.218 -0.6226 -2.8007  0.6458
10786TIP3    H253850   5.287   2.123  17.073 -1.8339 -0.1274  0.8325
10787TIP3   OH253851   5.000   3.547   0.015 -0.4587  0.4340 -0.1780
10787TIP3    H153852   4.989   3.554   0.110  0.0645 -1.1615  0.0243
10787TIP3    H253853   5.082   3.593  -0.003  0.2020 -0.5081  0.3580
10788TIP3   OH253854   5.093   6.406   5.727 -0.0649  0.3277 -0.2685
10788TIP3    H153855   5.092   6.496   5.759 -0.1044  0.2449 -0.0292
10788TIP3    H253856   5.173   6.399   5.676  1.1671 -0.1240  1.5958
10789TIP3   OH253857   3.198   4.966   4.371  0.6611 -0.2315 -0.6822
10789TIP3    H153858   3.102   4.961   4.363  0.7289 -1.3433 -1.0470
10789TIP3    H253859   3.222   5.043   4.320 -0.1332  0.7838  0.4139
10790TIP3   OH253860   6.200   4.866   5.399 -0.1237  0.0473  0.0299
10790TIP3    H153861   6.187   4.784   5.447 -0.2823 -0.1262 -0.3086
10790TIP3    H253862   6.251   4.841   5.322  0.8734  0.4668  0.5389
10791TIP3   OH253863   6.514   4.898   2.008 -0.2351 -0.0926  0.5136
10791TIP3    H153864   6.528   4.988   1.978  0.5011  0.4528  2.3744
10791TIP3    H253865   6.580   4.884   2.076 -0.6217 -1.8979  0.5730
10792TIP3   OH253866   6.621   0.265   1.767 -1.0703 -0.2656  0.2863
10792TIP3    H153867   6.676   0.325   1.817 -1.2382 -1.2136  1.6667
10792TIP3    H253868   6.539   0.261   1.816 -1.6915 -0.2866 -0.7403
10793TIP3   OH253869   6.130   1.484   1.716  0.2258  0.8017  0.5453
10793TIP3    H153870   6.083   1.554   1.762  0.4567  1.3265 -0.0046
10793TIP3    H253871   6.062   1.438   1.668  0.4554  2.9702 -2.1096
10794TIP3   OH253872   0.615   2.258   1.573  0.0690  0.9136  0.5083
10794TIP3    H153873   0.612   2.227   1.664 -0.3163  1.6794  0.7659
10794TIP3    H253874   0.636   2.351   1.581 -2.2068  1.5297 -0.0596
10795TIP3   OH253875   0.308   2.966  16.215 -0.1433  0.8480 -0.2191
10795TIP3    H153876   0.343   2.931  16.133  0.3405 -0.6788  0.5994
10795TIP3    H253877   0.216   2.985  16.196  0.0742  0.9459 -1.2282
10796TIP3   OH253878   0.840   3.092  13.134  0.9947 -0.0750  0.2644
10796TIP3    H153879   0.756   3.119  13.172 -0.5236 -1.9679 -1.5166
10796TIP3    H253880   0.845   2.998  13.151  2.9806  0.0469  0.6406
10797TIP3   OH253881   4.147   3.668   1.214 -0.0407  0.5982  0.0100
10797TIP3    H153882   4.100   3.611   1.275 -0.6190  2.6672  1.6002
10797TIP3    H253883   4.164   3.612   1.137 -2.9029 -0.9293  0.3622
10798TIP3   OH253884   4.856   4.388  10.593 -0.0358 -0.2927 -0.3266
10798TIP3    H153885   4.857   4.474  10.549 -0.3588 -1.2539 -2.3583
10798TIP3    H253886   4.790   4.338  10.545 -0.5409 -1.4022  1.4351
10799TIP3   OH253887   4.118   5.275  14.432 -0.0639  0.7641  0.0018
10799TIP3    H153888   4.100   5.368  14.444  0.4298  1.0391 -1.2552
10799TIP3    H253889   4.031   5.234  14.436 -0.2609  1.2407  0.7967
10800TIP3   OH253890   0.450   5.311   3.711  0.2486 -0.0386  0.1709
10800TIP3    H153891   0.522   5.372   3.699 -1.1614  1.9344  1.2188
10800TIP3    H253892   0.492   5.229   3.738  2.1096  0.8288  0.0486
10801TIP3   OH253893   5.202   2.441  13.159  0.3167 -0.3289  0.2541
10801TIP3    H153894   5.154   2.521  13.137  1.4958  0.4072  0.2765
10801TIP3    H253895   5.149   2.371  13.122 -0.1121  0.5481 -0.8524
10802TIP3   OH253896   3.108   4.233  14.448 -0.2680 -0.1347  0.0143
10802TIP3    H153897   3.119   4.141  14.423 -1.3226 -0.7586  1.6892
10802TIP3    H253898   3.164   4.281  14.387 -0.4359 -1.7930 -1.5411
10803TIP3   OH253899   6.340   3.972  14.737  0.5883  0.4081  0.2040
10803TIP3    H153900   6.360   3.940  14.824  1.6063 -2.3785 -0.9435
10803TIP3    H253901   6.254   3.937  14.716  0.0582  1.5993  0.2739
10804TIP3   OH253902   1.880   6.810  12.511 -0.2754  0.3039  0.2112
10804TIP3    H153903   1.931   6.863  12.449  0.9120 -0.8312  0.1808
10804TIP3    H253904   1.839   6.875  12.568  1.2036  1.2931  0.2302
10805TIP3   OH253905   4.500   1.812  12.702 -0.1678 -0.2496  0.2036
10805TIP3    H153906   4.450   1.893  12.700 -0.5269 -0.4112  1.4949
10805TIP3    H253907   4.443   1.747  12.661 -0.4073 -0.1190  0.3300
10806TIP3   OH253908   1.574   0.921  15.812  0.0339  0.3461  0.2643
10806TIP3    H153909   1.660   0.887  15.790 -0.4107 -0.8500  0.2962
10806TIP3    H253910   1.539   0.860  15.877 -1.1248  0.3756 -0.2900
10807TIP3   OH253911   4.530   1.365  13.164 -0.1114  0.1763 -0.0045
10807TIP3    H153912   4.524   1.291  13.104 -0.4155  0.2527 -0.0671
10807TIP3    H253913   4.609   1.411  13.136 -0.4549  0.4220 -0.5875
10808TIP3   OH253914   2.318   4.359  11.477  0.2903  0.0672  0.1115
10808TIP3    H153915   2.364   4.282  11.444  2.6644  1.8855 -1.0698
10808TIP3    H253916   2.225   4.341  11.458  0.9339 -1.7956 -1.6254
10809TIP3   OH253917   3.440   2.519  12.965  0.4334 -0.5357  0.5761
10809TIP3    H153918   3.493   2.579  13.017  0.5842  0.1500 -0.3503
10809TIP3    H253919   3.445   2.435  13.011  2.1862 -0.4467  0.5872
10810TIP3   OH253920   5.988   6.518  13.838  0.2359  0.1605 -0.2896
10810TIP3    H153921   5.955   6.472  13.915  0.1143  2.5552  1.2050
10810TIP3    H253922   6.081   6.531  13.856 -0.2252  2.7554  0.6754
10811TIP3   OH253923   3.618   5.564   0.393 -0.1949  0.1826 -0.1936
10811TIP3    H153924   3.592   5.620   0.466  0.6195 -0.7670  0.8671
10811TIP3    H253925   3.564   5.485   0.402  0.3226 -0.1873 -0.2599
10812TIP3   OH253926   3.813   0.090  15.989  0.0207  0.5861 -0.4228
10812TIP3    H153927   3.905   0.103  16.014 -0.0993  0.1051  0.2958
10812TIP3    H253928   3.801  -0.005  15.991 -0.3093  0.6076 -1.2136
10813TIP3   OH253929   1.540   1.309  13.320 -0.1228  0.2061  0.4560
10813TIP3    H153930   1.463   1.268  13.359  0.0859 -0.8046 -0.1417
10813TIP3    H253931   1.519   1.402  13.317 -1.0899  0.0134  0.8158
10814TIP3   OH253932   3.917   4.582   2.582  0.1455  0.0426  0.7879
10814TIP3    H153933   3.977   4.570   2.656  1.3029  2.0807  0.2691
10814TIP3    H253934   3.874   4.665   2.600  1.0389  0.9902 -1.1554
10815TIP3   OH253935   0.346   3.292   5.630  0.0733  0.3591 -0.2985
10815TIP3    H153936   0.377   3.217   5.680  1.5435  1.9236  1.2724
10815TIP3    H253937   0.419   3.355   5.633 -1.6724  2.5028 -0.1064
10816TIP3   OH253938   1.464   5.185   4.155 -0.0996 -0.0395 -0.6312
10816TIP3    H153939   1.411   5.251   4.109  0.3991 -0.2549 -1.5302
10816TIP3    H253940   1.511   5.140   4.085  1.0585 -0.0452  0.1376
10817TIP3   OH253941   3.239   5.370  11.949 -0.2153 -0.3065 -0.1515
10817TIP3    H153942   3.236   5.310  11.874  0.8014  0.1456 -0.5860
10817TIP3    H253943   3.150   5.372  11.982 -0.5811 -0.9062 -1.0500
10818TIP3   OH253944   3.733   2.500  14.673 -0.2456  0.1171 -0.1252
10818TIP3    H153945   3.689   2.503  14.588 -0.3271 -0.5646 -0.1117
10818TIP3    H253946   3.683   2.436  14.724 -0.1972  0.5210  0.4408
10819TIP3   OH253947   3.273   2.331   1.131  0.5623 -0.2281  0.0210
10819TIP3    H153948   3.340   2.266   1.155  1.3354  0.5649  0.0819
10819TIP3    H253949   3.211   2.283   1.076  2.2211 -0.5646 -1.6755
10820TIP3   OH253950   0.116   0.780  12.677 -0.0146  0.2743  0.3987
10820TIP3    H153951   0.107   0.865  12.634 -1.9020 -0.6618 -1.2244
10820TIP3    H253952   0.052   0.781  12.747  0.5478  0.4805  0.9156
10821TIP3   OH253953   3.278   0.481  14.170  0.0041 -0.3053 -0.0649
10821TIP3    H153954   3.280   0.448  14.080  2.5007 -1.4785  0.3298
10821TIP3    H253955   3.348   0.546  14.173 -1.2532  1.0713  0.6181
10822TIP3   OH253956   1.233   1.522   3.683 -0.3365 -0.4853  0.4560
10822TIP3    H153957   1.304   1.470   3.645 -2.0461 -1.2755 -1.8741
10822TIP3    H253958   1.175   1.457   3.724 -1.8642 -0.4262 -1.4369
10823TIP3   OH253959   5.910   1.377  15.766 -0.0049 -0.6749 -0.4136
10823TIP3    H153960   5.842   1.410  15.825  1.6517  0.1946  1.0900
10823TIP3    H253961   5.966   1.323  15.822  1.9146  0.5934 -1.0499
10824TIP3   OH253962   1.904   5.307   2.105 -0.2244  0.1310  0.1796
10824TIP3    H153963   1.972   5.374   2.104 -1.0010  0.9305 -0.7257
10824TIP3    H253964   1.837   5.338   2.044 -0.5255 -1.5640 -0.4316
10825TIP3   OH253965   4.540   3.697  12.172  0.0142  0.0028  0.1579
10825TIP3    H153966   4.533   3.787  12.204 -2.0917  0.3490 -1.1097
10825TIP3    H253967   4.486   3.646  12.233 -1.5076  0.1846 -0.9689
10826TIP3   OH253968   2.953   6.458   3.739  0.0147 -0.7725  0.2446
10826TIP3    H153969   2.861   6.444   3.717 -0.2179  1.1394 -0.2037
10826TIP3    H253970   2.994   6.482   3.656  1.1176 -2.3820  0.2920
10827TIP3   OH253971   4.567   1.679  11.440  0.6982 -0.3976 -0.2739
10827TIP3    H153972   4.539   1.664  11.350  1.2591  0.5410 -0.6255
10827TIP3    H253973   4.580   1.774  11.445  0.3548 -0.3999  0.8957
10828TIP3   OH253974   3.773   0.194   2.267 -0.0752  0.4277  0.2261
10828TIP3    H153975   3.689   0.166   2.230  0.9874 -1.1490 -1.1115
10828TIP3    H253976   3.761   0.288   2.283 -1.6335  0.5479 -1.3045
10829TIP3   OH253977   6.161   2.373   4.053  0.0076  0.2831  0.3188
10829TIP3    H153978   6.128   2.459   4.079  1.7189  1.0084  0.2495
10829TIP3    H253979   6.158   2.374   3.957  0.6032  0.5262  0.2972
10830TIP3   OH253980   3.898   4.752   4.681 -0.1170  0.1962  0.4564
10830TIP3    H153981   3.893   4.787   4.770  2.8025 -0.8703  1.1575
10830TIP3    H253982   3.987   4.774   4.652 -0.9278  0.3326 -2.1541
10831TIP3   OH253983   6.311   0.836   0.441 -0.0696 -0.2980 -0.7429
10831TIP3    H153984   6.302   0.810   0.533  1.1714 -1.4718 -0.9127
10831TIP3    H253985   6.248   0.781   0.394  0.5381 -0.9814 -0.7758
10832TIP3   OH253986   1.309   4.130   4.233 -0.2651  0.2790  0.5617
10832TIP3    H153987   1.340   4.041   4.218  3.8991  1.1436  2.4443
10832TIP3    H253988   1.311   4.171   4.146  0.9920 -0.6497  0.1289
10833TIP3   OH253989   5.830   0.882   5.513 -0.2118  0.6709  0.1850
10833TIP3    H153990   5.756   0.847   5.463 -0.8176  0.9810  0.8492
10833TIP3    H253991   5.794   0.898   5.600  1.6085 -3.0475  1.8200
10834TIP3   OH253992   3.276   0.834  16.426 -0.4372  0.3176  0.0756
10834TIP3    H153993   3.188   0.811  16.455  0.4033 -1.4172  1.3901
10834TIP3    H253994   3.334   0.791  16.488  1.3867  0.1414 -1.6448
10835TIP3   OH253995   1.945   0.694  10.970 -0.3276  0.0960  0.5936
10835TIP3    H153996   2.014   0.751  11.001  0.0123  0.6771 -1.0970
10835TIP3    H253997   1.988   0.610  10.956  0.7185  1.0045 -2.5924
10836TIP3   OH253998   4.614   2.635  13.105  0.0847  0.0497 -0.1355
10836TIP3    H153999   4.583   2.667  13.190  0.3241 -0.0025 -0.0277
10836TIP3    H254000   4.709   2.631  13.115  0.0866 -0.2685 -0.2997
10837TIP3   OH254001   2.071   5.070   2.023 -0.3251  0.0572  0.5936
10837TIP3    H154002   1.988   5.116   2.031 -0.4878 -0.1835  0.2776
10837TIP3    H254003   2.048   4.983   1.992 -0.2194 -0.9123  2.9660
10838TIP3   OH254004   1.300   6.119  11.134 -0.2873  0.2475 -0.1835
10838TIP3    H154005   1.311   6.180  11.207  2.3968  0.4955 -0.7029
10838TIP3    H254006   1.385   6.077  11.125 -0.7481 -0.2755 -2.7223
10839TIP3   OH254007   2.982   0.201   3.398  0.0497 -0.3180 -0.6007
10839TIP3    H154008   2.963   0.286   3.438 -0.8990 -1.0715  0.6210
10839TIP3    H254009   3.026   0.151   3.467 -0.8826 -1.3698 -0.7313
10840TIP3   OH254010   6.598   0.366   2.427  0.3910 -0.1223  0.1845
10840TIP3    H154011   6.683   0.328   2.407  0.7824  0.7450  0.1852
10840TIP3    H254012   6.587   0.437   2.363 -0.7325 -0.8022 -0.4099
10841TIP3   OH254013   0.421   1.305  15.404 -0.0605 -0.4627  0.5248
10841TIP3    H154014   0.477   1.299  15.327  0.6964  0.0844  1.0252
10841TIP3    H254015   0.462   1.247  15.468 -0.8584 -1.1572  0.4233
10842TIP3   OH254016   4.376   5.503  16.244 -0.1674 -0.1762  0.8319
10842TIP3    H154017   4.343   5.453  16.170 -1.1947 -0.4761  1.4749
10842TIP3    H254018   4.442   5.446  16.284 -1.6012 -1.2398  1.7915
10843TIP3   OH254019   2.472   6.673  13.835  1.2057  0.2323  0.0606
10843TIP3    H154020   2.495   6.701  13.924  4.0693 -0.0844 -0.4726
10843TIP3    H254021   2.474   6.754  13.784 -1.3251  0.5606  0.3480
10844TIP3   OH254022   5.385   0.169  13.104  0.3053  0.2168  0.0627
10844TIP3    H154023   5.310   0.176  13.163  0.2046 -0.0123 -0.0352
10844TIP3    H254024   5.409   0.077  13.107  1.4475  0.5214  1.1413
10845TIP3   OH254025   5.602   5.344  16.107 -0.3039  0.4065  0.3238
10845TIP3    H154026   5.589   5.302  16.192  0.0691  0.4876  0.4198
10845TIP3    H254027   5.632   5.432  16.128  0.1932  0.2908  0.0980
10846TIP3   OH254028   1.964   0.657   1.963  0.2357 -0.4532 -0.4137
10846TIP3    H154029   1.962   0.655   2.059 -1.2770 -0.6756 -0.4238
10846TIP3    H254030   2.054   0.635   1.941  0.1723 -2.4041  0.9324
10847TIP3   OH254031   4.451   4.984   3.813 -0.3330 -0.1449  1.1627
10847TIP3    H154032   4.530   4.935   3.834  0.1358 -0.1221 -0.3679
10847TIP3    H254033   4.480   5.075   3.808 -0.6337 -0.0333  1.4203
10848TIP3   OH254034   1.132   0.104  15.186 -0.7080  0.6010  0.1188
10848TIP3    H154035   1.123   0.198  15.178  0.2074  0.6748 -0.1477
10848TIP3    H254036   1.103   0.069  15.101 -0.3555  0.6903 -0.0371
10849TIP3   OH254037   6.144   5.109  13.047  0.2925 -0.6778 -0.3366
10849TIP3    H154038   6.185   5.032  13.008 -0.5628 -0.8124 -1.0061
10849TIP3    H254039   6.198   5.130  13.123  3.3212  0.7902 -2.6358
10850TIP3   OH254040   5.456   1.259  13.936  0.3114 -0.4383 -0.0675
10850TIP3    H154041   5.467   1.164  13.947  0.3002 -0.3790  0.4567
10850TIP3    H254042   5.376   1.267  13.884  0.6679 -0.7341 -0.6861
10851TIP3   OH254043   6.118   2.309  12.229 -0.0089  0.7603 -0.0847
10851TIP3    H154044   6.207   2.319  12.263  0.1634  0.5102 -0.4542
10851TIP3    H254045   6.087   2.399  12.215  0.5708  0.8398 -0.9261
10852TIP3   OH254046   2.977   6.018   2.787 -0.4961 -0.2358 -0.5356
10852TIP3    H154047   2.994   6.109   2.765  0.6455 -0.9114 -2.6630
10852TIP3    H254048   3.060   5.986   2.822 -0.7135 -0.6332 -0.3694
10853TIP3   OH254049   1.133   4.769  15.570  0.3496 -0.4398 -0.5232
10853TIP3    H154050   1.123   4.805  15.658  2.7781  1.2943 -0.8306
10853TIP3    H254051   1.105   4.840  15.511  2.5760  0.0353 -1.1170
10854TIP3   OH254052   0.987   4.406  14.311 -0.6051 -0.8108 -0.5957
10854TIP3    H154053   1.001   4.500  14.320 -3.0216 -0.3691 -0.9705
10854TIP3    H254054   1.070   4.373  14.275 -0.9023  1.8058 -4.2256
10855TIP3   OH254055   3.208   2.818  15.026  0.4042 -0.3896  0.3914
10855TIP3    H154056   3.129   2.863  15.055  0.2736 -0.2080 -0.2509
10855TIP3    H254057   3.254   2.796  15.108 -0.2309 -0.3681  0.7601
10856TIP3   OH254058   0.129   0.124  11.118  0.2028  0.0317 -0.0599
10856TIP3    H154059   0.048   0.168  11.142 -1.1758 -1.5559 -1.5969
10856TIP3    H254060   0.185   0.194  11.084  0.2746  1.4588  2.7020
10857TIP3   OH254061   6.343   3.623  10.848 -0.6524  0.1233  0.0424
10857TIP3    H154062   6.423   3.570  10.844 -0.6375  0.0610  0.9300
10857TIP3    H254063   6.334   3.659  10.760  0.2963  0.0480 -0.1037
10858TIP3   OH254064   2.004   4.562   0.779 -0.0293 -0.8905 -0.1141
10858TIP3    H154065   2.002   4.619   0.702  0.0148 -0.5377  0.1406
10858TIP3    H254066   1.976   4.477   0.747  2.1366 -1.3182 -0.9765
10859TIP3   OH254067   2.953   2.324   1.157  0.1950 -0.0940 -0.2399
10859TIP3    H154068   2.973   2.323   1.063  0.4389  1.0382 -0.2207
10859TIP3    H254069   2.858   2.329   1.161  0.0207 -2.3426 -0.3755
10860TIP3   OH254070   6.218   2.107   1.326 -1.0605 -0.1159  0.2805
10860TIP3    H154071   6.280   2.176   1.346 -2.1460  0.7840  0.6622
10860TIP3    H254072   6.194   2.122   1.235  1.1491 -2.0188 -0.7169
10861TIP3   OH254073   3.155   5.254   1.219  0.4917 -0.0160 -0.3422
10861TIP3    H154074   3.127   5.247   1.310 -0.5661 -0.0993 -0.6558
10861TIP3    H254075   3.189   5.167   1.197 -1.6341 -0.8036 -0.7531
10862TIP3   OH254076   3.068   2.739  13.886 -0.4570 -0.6377 -0.4982
10862TIP3    H154077   3.064   2.644  13.887  1.3634 -0.7471  0.1147
10862TIP3    H254078   3.158   2.759  13.860 -0.3405  0.8892  0.9030
10863TIP3   OH254079   2.735   2.954  13.139 -0.4123 -0.4135  0.6720
10863TIP3    H154080   2.647   2.921  13.125 -0.4236  0.5494 -2.2216
10863TIP3    H254081   2.725   3.023  13.206 -1.2236 -2.4310  2.7620
10864TIP3   OH254082   6.544   0.190   3.362  0.3776  0.0894  0.7818
10864TIP3    H154083   6.621   0.138   3.385 -0.4632 -1.1468  0.9001
10864TIP3    H254084   6.567   0.231   3.278  0.1524 -2.6197 -0.7530
10865TIP3   OH254085   2.492   5.842  11.901  0.3064  0.0658  0.0914
10865TIP3    H154086   2.500   5.937  11.913 -0.8994  0.2285 -0.2515
10865TIP3    H254087   2.413   5.818  11.949  0.3727 -0.7000 -0.1688
10866TIP3   OH254088   1.834   1.642  13.112  0.8267  0.4659  0.3170
10866TIP3    H154089   1.870   1.703  13.177  0.7428 -0.1258  0.9256
10866TIP3    H254090   1.818   1.697  13.035  2.0403  0.9452  0.3811
10867TIP3   OH254091   1.005   5.799  16.643  0.1983 -0.1785  0.4465
10867TIP3    H154092   1.047   5.753  16.571 -3.0575 -0.8826 -1.1708
10867TIP3    H254093   1.035   5.890  16.634  0.8329 -0.5086 -0.9755
10868TIP3   OH254094   5.355   2.624  12.146  1.0854  0.4646  0.3326
10868TIP3    H154095   5.346   2.672  12.063 -1.1178 -1.2426 -0.5039
10868TIP3    H254096   5.266   2.617  12.179  2.0877  3.7770  4.6064
10869TIP3   OH254097   6.045   2.059   5.637 -0.3501 -0.4025  0.3345
10869TIP3    H154098   6.098   2.138   5.629  0.7091 -1.1550 -0.1407
10869TIP3    H254099   6.069   2.023   5.722 -0.9774 -0.1313  0.6380
10870TIP3   OH254100   3.045   5.768   2.941 -0.1667 -0.0152  0.1000
10870TIP3    H154101   3.033   5.686   2.892 -2.7090  1.1444 -1.4101
10870TIP3    H254102   3.111   5.816   2.891  1.1649 -0.9640  0.8630
10871TIP3   OH254103   3.235   2.683   3.927 -0.0368 -0.4517  0.0789
10871TIP3    H154104   3.257   2.752   3.990  0.6487 -1.0632  0.5247
10871TIP3    H254105   3.288   2.608   3.955  0.7792 -0.5383 -1.6150
10872TIP3   OH254106   1.122   1.415  11.026 -0.3339 -0.0340 -0.3820
10872TIP3    H154107   1.140   1.356  10.952  0.4167 -0.3147  0.0117
10872TIP3    H254108   1.108   1.500  10.984 -0.2313 -0.2517 -0.8779
10873TIP3   OH254109   0.740   3.631   5.198  0.3326  0.3563 -0.2636
10873TIP3    H154110   0.677   3.607   5.130 -0.1895  0.2849  0.2353
10873TIP3    H254111   0.713   3.718   5.227 -1.1112 -0.6673  1.7027
10874TIP3   OH254112   6.079   5.274  12.706 -0.6471 -0.3723  0.9641
10874TIP3    H154113   6.100   5.182  12.693 -0.4686 -0.5547  2.4192
10874TIP3    H254114   6.135   5.302  12.778 -1.0087  0.7600  0.8261
10875TIP3   OH254115   2.262   2.452   1.724  0.6878 -0.0419 -0.1608
10875TIP3    H154116   2.320   2.519   1.688  3.2169 -0.6869  2.2869
10875TIP3    H254117   2.277   2.375   1.669  0.5975  0.3681 -0.7620
10876TIP3   OH254118   1.731   5.974   4.765 -0.4992 -0.5383  0.1851
10876TIP3    H154119   1.789   5.899   4.783 -0.4929 -0.3984  0.7754
10876TIP3    H254120   1.738   5.987   4.670 -0.1274 -0.9825  0.1441
10877TIP3   OH254121   0.439   5.770  16.458 -0.1513 -0.0236 -0.3471
10877TIP3    H154122   0.464   5.680  16.477 -1.3751 -0.9388 -2.7235
10877TIP3    H254123   0.426   5.810  16.544  1.5681 -1.7224  0.7924
10878TIP3   OH254124   6.717   5.739  14.946  0.0242  0.0057 -0.4477
10878TIP3    H154125   6.658   5.683  14.894 -1.3019  0.0123  0.9563
10878TIP3    H254126   6.727   5.691  15.028  0.8061  0.7242 -0.1229
10879TIP3   OH254127   4.013   0.708   2.130 -0.0090 -0.0422  0.3343
10879TIP3    H154128   4.004   0.733   2.223 -3.2860 -1.3765  0.5058
10879TIP3    H254129   4.011   0.792   2.083 -1.5109  0.5241  1.3385
10880TIP3   OH254130   1.560   3.001  16.495 -0.1671 -0.1241 -0.0561
10880TIP3    H154131   1.633   3.057  16.469 -1.1251  1.2453  0.0759
10880TIP3    H254132   1.595   2.912  16.491  0.5511  0.1570 -3.3597
10881TIP3   OH254133   2.581   1.689   2.699 -1.0853  0.3401 -0.1386
10881TIP3    H154134   2.509   1.650   2.649 -1.6718  0.8888  0.2722
10881TIP3    H254135   2.565   1.783   2.695 -0.7036  0.4327  0.4354
10882TIP3   OH254136   1.550   3.392   4.298 -0.3214 -0.2885 -0.2158
10882TIP3    H154137   1.587   3.450   4.232 -2.0519 -0.3736 -1.3548
10882TIP3    H254138   1.575   3.304   4.269  1.4465 -0.1983  0.9467
10883TIP3   OH254139   2.512   0.424  11.304  0.3876  0.4118 -0.5326
10883TIP3    H154140   2.488   0.506  11.347 -1.4483  0.3464 -1.3453
10883TIP3    H254141   2.431   0.393  11.263  1.1323 -1.6002 -0.6046
10884TIP3   OH254142   3.811   5.999  13.164  0.0474 -0.6938 -0.2956
10884TIP3    H154143   3.876   5.972  13.099  0.9663 -0.1123  0.3521
10884TIP3    H254144   3.861   6.050  13.227 -0.9952 -0.5088  0.3982
10885TIP3   OH254145   6.292   5.230   1.556 -0.0791 -0.3259  0.0181
10885TIP3    H154146   6.264   5.176   1.630 -1.7737 -0.3276 -0.5724
10885TIP3    H254147   6.210   5.256   1.514  0.8371 -0.1017 -1.7054
10886TIP3   OH254148   0.380   6.195  15.252  0.5294  0.1973  0.1915
10886TIP3    H154149   0.398   6.226  15.341  0.5177  0.2336  0.1814
10886TIP3    H254150   0.392   6.100  15.256  2.0233  0.3480 -0.1200
10887TIP3   OH254151   1.479   2.546   4.199 -0.0911 -0.5820 -0.4862
10887TIP3    H154152   1.436   2.463   4.219 -2.6088  0.5695 -0.6642
10887TIP3    H254153   1.415   2.613   4.224  1.5589  1.2929 -0.9911
10888TIP3   OH254154   2.887   3.462  16.152 -0.1312  0.2428 -0.0399
10888TIP3    H154155   2.827   3.493  16.084  0.1995  0.0753 -0.4193
10888TIP3    H254156   2.970   3.450  16.106 -0.1020 -0.6271  0.2182
10889TIP3   OH254157   3.675   3.606  16.448 -0.1851  0.1947  0.0199
10889TIP3    H154158   3.740   3.618  16.518 -0.6184  0.4704  0.3838
10889TIP3    H254159   3.611   3.545  16.485  0.8182 -1.5450 -1.0071
10890TIP3   OH254160   1.757   2.503   4.228  0.0589  0.3686  0.0444
10890TIP3    H154161   1.792   2.510   4.139  1.0026 -1.6871  0.1799
10890TIP3    H254162   1.662   2.500   4.217  0.1794 -0.1385 -0.9204
10891TIP3   OH254163   6.105   3.335   0.713  0.0405  0.5459 -0.1642
10891TIP3    H154164   6.010   3.343   0.699 -0.0900  0.8049  0.7810
10891TIP3    H254165   6.126   3.407   0.772  0.7432  0.1842  0.0282
10892TIP3   OH254166   4.395   0.461  14.284 -0.2816 -0.5498 -0.2517
10892TIP3    H154167   4.403   0.522  14.358  0.6158  0.3396 -1.0643
10892TIP3    H254168   4.345   0.510  14.219  0.7332 -0.5530 -1.0423
10893TIP3   OH254169   0.709   4.786  15.604  0.3537 -0.0530 -1.1048
10893TIP3    H154170   0.631   4.731  15.590  0.1020  0.2318 -0.8372
10893TIP3    H254171   0.782   4.726  15.593  0.0619 -0.6713  0.1221
10894TIP3   OH254172   2.219   3.938  15.443 -0.0656  0.1227 -0.1636
10894TIP3    H154173   2.125   3.955  15.451 -0.8655 -3.4840 -0.1109
10894TIP3    H254174   2.252   3.941  15.532 -0.4122  0.1161 -0.0329
10895TIP3   OH254175   1.826   6.538   2.882  0.1315 -0.9300  0.2983
10895TIP3    H154176   1.903   6.483   2.867  0.9306  0.1913  0.1853
10895TIP3    H254177   1.754   6.476   2.890  0.9989 -1.9923  0.1395
10896TIP3   OH254178   4.007   6.639  11.420  0.1003  0.2946  0.4075
10896TIP3    H154179   3.978   6.712  11.366  0.6521  0.2748  0.0793
10896TIP3    H254180   4.101   6.630  11.401  0.2050  0.0026  1.0308
10897TIP3   OH254181   4.265   6.604  14.076 -0.3473  0.1638  0.2681
10897TIP3    H154182   4.250   6.699  14.082 -1.6367  0.0980 -1.1897
10897TIP3    H254183   4.357   6.596  14.051 -0.1931  1.0274  0.5221
10898TIP3   OH254184   0.798   4.514  14.072  0.1245  0.3780  0.4399
10898TIP3    H154185   0.850   4.528  13.992 -0.5262  2.6843  0.3419
10898TIP3    H254186   0.851   4.554  14.141  0.1800 -0.6341  0.9922
10899TIP3   OH254187   4.588   0.737   4.120  0.4689 -0.0640  0.3135
10899TIP3    H154188   4.654   0.791   4.164 -0.3681  0.2325  1.2602
10899TIP3    H254189   4.560   0.675   4.187  0.3211 -0.6775 -0.3061
10900TIP3   OH254190   5.964   3.266  15.876  0.3166  0.3165 -0.0791
10900TIP3    H154191   5.990   3.273  15.784 -0.3655 -0.9722 -0.3829
10900TIP3    H254192   5.963   3.172  15.894 -1.5842  0.4425  0.6549
10901TIP3   OH254193   3.741   1.398   2.762  0.1232 -0.0908  0.1723
10901TIP3    H154194   3.687   1.351   2.826 -0.7756 -0.9236 -1.1510
10901TIP3    H254195   3.689   1.474   2.737 -0.6290 -1.0550 -1.3305
10902TIP3   OH254196   2.377   5.991   1.173 -0.0401 -0.1689 -0.1072
10902TIP3    H154197   2.452   6.051   1.163  0.1908 -0.4164  0.1213
10902TIP3    H254198   2.417   5.905   1.181 -0.1941 -0.0534  2.6376
10903TIP3   OH254199   4.451   1.682   4.367 -0.1627 -0.1136  0.3555
10903TIP3    H154200   4.493   1.627   4.301  0.5305  0.1241  0.5876
10903TIP3    H254201   4.372   1.634   4.392 -1.1576  0.4151 -1.5954
10904TIP3   OH254202   0.052   4.974  16.082 -0.3889 -0.7506 -0.1062
10904TIP3    H154203   0.048   4.908  16.152  0.7520  0.0348  0.7486
10904TIP3    H254204   0.061   5.058  16.129  1.5593 -0.2929 -1.1630
10905TIP3   OH254205   1.189   3.797   4.108  0.0333  0.2241 -0.1740
10905TIP3    H154206   1.144   3.751   4.037  0.7739 -0.4185 -0.2391
10905TIP3    H254207   1.122   3.854   4.146 -0.7898 -0.5987 -0.3595
10906TIP3   OH254208   1.833   3.397  15.171 -0.4182  0.1032 -0.5953
10906TIP3    H154209   1.856   3.444  15.251 -0.9693  0.0254 -0.3880
10906TIP3    H254210   1.911   3.403  15.116 -0.5088  1.3177 -0.6083
10907TIP3   OH254211   1.476   4.143   2.496  0.2794 -0.2208 -0.1901
10907TIP3    H154212   1.409   4.126   2.430 -0.9060 -0.4700  1.0405
10907TIP3    H254213   1.484   4.238   2.499  1.1771 -0.2240 -1.4635
10908TIP3   OH254214   4.876   6.279   4.177 -0.6351  0.5191  0.2757
10908TIP3    H154215   4.939   6.340   4.216 -1.7561  0.0561  3.0141
10908TIP3    H254216   4.791   6.312   4.205 -1.3059 -1.9160  1.3445
10909TIP3   OH254217   4.775   4.110   0.220  0.4147 -0.6422  0.2951
10909TIP3    H154218   4.785   4.132   0.313 -0.7426 -2.2703  0.8560
10909TIP3    H254219   4.708   4.041   0.219  0.6875 -0.9336 -1.7195
10910TIP3   OH254220   3.779   6.203   1.563 -0.0874  0.1695  0.1336
10910TIP3    H154221   3.705   6.151   1.532  0.0445  0.7295 -1.1427
10910TIP3    H254222   3.739   6.269   1.620 -0.9361  2.0479 -2.4796
10911TIP3   OH254223   3.393   6.663   0.765 -0.2093  0.0095  0.1053
10911TIP3    H154224   3.449   6.589   0.788  0.2177  0.3971  0.3406
10911TIP3    H254225   3.413   6.730   0.831 -2.1193 -0.4023  1.1637
10912TIP3   OH254226   4.381   3.322   1.868  0.1239 -0.4041  0.1486
10912TIP3    H154227   4.469   3.291   1.847  0.2883 -0.5734  1.0338
10912TIP3    H254228   4.356   3.271   1.946 -0.2084  0.6022  0.7212
10913TIP3   OH254229   1.030   4.426   3.537  0.3318  0.8921  0.5189
10913TIP3    H154230   1.069   4.432   3.624  2.8286 -0.2642 -0.4376
10913TIP3    H254231   0.936   4.435   3.553  0.8157  2.3457  3.1209
10914TIP3   OH254232   4.876   5.223   2.521  0.1039  0.1291 -0.0441
10914TIP3    H154233   4.827   5.141   2.523 -0.4006  0.3558 -1.5487
10914TIP3    H254234   4.950   5.204   2.463  2.2128 -0.3846  2.6395
10915TIP3   OH254235   0.981   5.397   5.571  0.4348 -0.5307 -0.8066
10915TIP3    H154236   0.960   5.452   5.496 -0.4073 -0.4717 -0.5419
10915TIP3    H254237   0.916   5.327   5.568  1.5058 -1.5448 -1.1560
10916TIP3   OH254238   2.836   5.630  16.483 -0.5550 -0.1487  0.5084
10916TIP3    H154239   2.900   5.676  16.429  0.8196  2.3737  3.9204
10916TIP3    H254240   2.753   5.674  16.466 -0.8334 -1.3475 -1.5824
10917TIP3   OH254241   3.904   1.893   1.750 -0.1226  0.0567  0.4259
10917TIP3    H154242   3.893   1.816   1.694  0.3744 -1.3504  2.1524
10917TIP3    H254243   3.818   1.936   1.749 -0.2036 -0.0731 -1.1361
10918TIP3   OH254244   6.038   4.794   1.255  0.0153 -0.1673 -0.3608
10918TIP3    H154245   5.979   4.719   1.255 -2.6634  1.7550 -0.4860
10918TIP3    H254246   5.997   4.856   1.195  2.2518  1.2985 -0.4791
10919TIP3   OH254247   3.459   2.257   2.411 -0.0788 -0.1745  0.0356
10919TIP3    H154248   3.462   2.243   2.316  2.5506  0.1693 -0.0013
10919TIP3    H254249   3.520   2.329   2.426 -0.5169 -0.1698  1.9901
10920TIP3   OH254250   5.933   2.434  13.746 -0.1745  0.4070 -0.3196
10920TIP3    H154251   5.891   2.514  13.714  1.4947  1.8773  0.9221
10920TIP3    H254252   5.983   2.463  13.822  1.9700 -1.4478 -0.9211
10921TIP3   OH254253   3.522   4.647   4.231  0.1180 -0.2448  0.4996
10921TIP3    H154254   3.442   4.639   4.284 -0.4692  2.8739  0.2924
10921TIP3    H254255   3.567   4.724   4.268  1.4300 -0.0665 -1.3686
10922TIP3   OH254256   2.828   2.374   6.239 -0.2863 -0.6398 -0.5733
10922TIP3    H154257   2.798   2.458   6.204 -0.2527 -0.0233  0.8161
10922TIP3    H254258   2.894   2.398   6.305 -2.7528 -1.4858  2.4154
10923TIP3   OH254259   0.896   0.893   3.093 -0.2725 -0.4619 -0.0283
10923TIP3    H154260   0.864   0.948   3.164  0.2731  0.8842 -0.7989
10923TIP3    H254261   0.822   0.836   3.071 -0.8829  0.0321  0.7028
10924TIP3   OH254262   4.049   2.399   3.546  0.0638 -0.1017  0.6120
10924TIP3    H154263   4.027   2.308   3.564 -1.1528  0.0753  0.1630
10924TIP3    H254264   3.973   2.432   3.497 -0.0580  1.4681  1.7825
10925TIP3   OH254265   5.741   3.610  14.172  0.4975 -0.4968  0.0139
10925TIP3    H154266   5.730   3.515  14.184 -0.3700 -0.5096 -0.7835
10925TIP3    H254267   5.678   3.649  14.233  0.7217 -0.4418  0.2081
10926TIP3   OH254268   4.497   3.422   4.364 -0.2734 -0.4838 -0.4312
10926TIP3    H154269   4.471   3.330   4.355 -1.1020 -0.2004 -1.1182
10926TIP3    H254270   4.446   3.455   4.438 -1.7134 -0.0120 -1.5803
10927TIP3   OH254271   3.993   5.192   3.044 -0.3061  0.4322 -0.4679
10927TIP3    H154272   3.920   5.209   3.103 -0.7407  0.0580 -0.8941
10927TIP3    H254273   4.008   5.276   3.000 -0.7647  0.3884 -0.7033
10928TIP3   OH254274   4.654   2.963  12.761 -0.4309 -0.2122 -0.4473
10928TIP3    H154275   4.596   3.006  12.824 -0.5331 -1.0619  0.0709
10928TIP3    H254276   4.652   2.871  12.787 -0.6848 -0.6346 -1.8740
10929TIP3   OH254277   0.691   6.732  11.937  0.1277 -0.2498  0.0340
10929TIP3    H154278   0.757   6.747  11.870  0.4507  0.4477  0.4924
10929TIP3    H254279   0.716   6.790  12.009 -0.9153 -0.0641  0.2684
10930TIP3   OH254280   4.558   5.306  12.038 -0.5629  0.2419 -0.3005
10930TIP3    H154281   4.606   5.241  11.987 -1.8510  0.0308 -1.2683
10930TIP3    H254282   4.573   5.389  11.992  0.8486  0.6320  0.7762
10931TIP3   OH254283   3.604   3.686   1.367  0.4055  0.4320  0.2140
10931TIP3    H154284   3.603   3.698   1.462  1.2461 -1.4524  0.5099
10931TIP3    H254285   3.656   3.760   1.334  2.8031 -0.5277  1.5719
10932TIP3   OH254286   6.261   6.068   2.466  0.2370  0.4545 -0.3862
10932TIP3    H154287   6.299   6.123   2.535  1.2542 -0.9286  0.2251
10932TIP3    H254288   6.206   6.006   2.514  3.6091 -2.8125 -0.1953
10933TIP3   OH254289   5.166   6.816   3.116  0.7224 -0.2812 -0.0567
10933TIP3    H154290   5.145   6.725   3.096 -0.3370 -0.4429  1.5615
10933TIP3    H254291   5.208   6.812   3.202  2.0136  0.6387 -0.6192
10934TIP3   OH254292   3.277   6.006   6.142  0.3903 -0.3765 -0.6562
10934TIP3    H154293   3.371   6.026   6.152  0.4408  0.6861 -2.6684
10934TIP3    H254294   3.240   6.087   6.107 -1.3190 -0.7701  0.1778
10935TIP3   OH254295   6.769   1.432  16.375  0.2402  0.0436 -0.4430
10935TIP3    H154296   6.796   1.402  16.462 -3.0893 -1.1825  0.3163
10935TIP3    H254297   6.785   1.527  16.377  0.0395  0.0889  1.6231
10936TIP3   OH254298   6.428   4.354   5.080  0.3821 -0.3990  0.5178
10936TIP3    H154299   6.420   4.269   5.125  0.6592 -0.3399  0.6783
10936TIP3    H254300   6.509   4.391   5.113  0.4329 -0.2188  0.1924
10937TIP3   OH254301   0.216   6.345   1.983 -0.0466  0.1783 -0.2008
10937TIP3    H154302   0.165   6.369   1.906 -0.3897  0.5612  0.1423
10937TIP3    H254303   0.267   6.423   2.003  1.0264 -0.3397 -0.8057
10938TIP3   OH254304   2.171   6.707   5.319 -0.0384 -0.2284  0.6762
10938TIP3    H154305   2.177   6.802   5.324 -0.7636 -0.1811  0.7122
10938TIP3    H254306   2.181   6.678   5.409 -0.4959 -0.1441  0.7546
10939TIP3   OH254307   0.158   1.603   4.272 -0.0876  0.3576  0.3726
10939TIP3    H154308   0.172   1.581   4.180 -0.2456  2.1209 -0.1136
10939TIP3    H254309   0.078   1.557   4.296 -0.0222 -0.1508 -0.3633
10940TIP3   OH254310   6.586   3.050   0.046  0.3546 -0.0254  0.1301
10940TIP3    H154311   6.554   3.134   0.014  0.3356  0.1292  0.5390
10940TIP3    H254312   6.507   3.001   0.068  0.3316  1.0388  2.8830
10941TIP3   OH254313   2.424   4.759  12.671  0.2298 -0.3178 -0.3341
10941TIP3    H154314   2.464   4.748  12.584  0.0487 -1.0060 -0.3309
10941TIP3    H254315   2.423   4.854  12.684 -0.8878 -0.1237 -1.6201
10942TIP3   OH254316   0.384   2.482  13.682 -0.4776  0.4531 -0.0830
10942TIP3    H154317   0.339   2.466  13.600  0.0645  0.4575 -0.3879
10942TIP3    H254318   0.462   2.532  13.657 -0.1071  0.1223  0.3793
10943TIP3   OH254319   2.445   1.079   4.597 -0.0911 -0.1271 -0.0085
10943TIP3    H154320   2.494   1.157   4.569 -2.7022  1.7881  0.3927
10943TIP3    H254321   2.486   1.054   4.680 -0.0788  1.7602  0.6195
10944TIP3   OH254322   6.067   4.506  16.712  0.5371 -0.0703  0.6620
10944TIP3    H154323   6.057   4.410  16.713  0.8559 -0.1258 -0.4123
10944TIP3    H254324   6.096   4.526  16.623  0.3706  1.0458  0.8495
10945TIP3   OH254325   0.044   3.817  11.172  0.4836  0.6368 -0.4533
10945TIP3    H154326   0.018   3.731  11.140 -0.0624  0.6229  0.0125
10945TIP3    H254327   0.140   3.816  11.167  0.5696 -0.5361  0.8778
10946TIP3   OH254328   0.669   2.303  16.194  0.4718  0.2303  0.1802
10946TIP3    H154329   0.752   2.300  16.241  1.4155 -1.0431 -1.4722
10946TIP3    H254330   0.652   2.213  16.169 -2.1413  0.2403  1.6108
10947TIP3   OH254331   2.949   4.860   0.337  0.1855 -0.0255 -0.1253
10947TIP3    H154332   2.941   4.771   0.301  1.2936  0.3814 -1.4406
10947TIP3    H254333   2.970   4.846   0.429 -1.2269 -1.0986  0.0775
10948TIP3   OH254334   0.352   6.268   5.555 -0.0795  0.3917 -0.3346
10948TIP3    H154335   0.322   6.269   5.646  1.2287 -1.5425  0.1872
10948TIP3    H254336   0.292   6.326   5.509 -0.5756  1.6918  1.8081
10949TIP3   OH254337   6.794   0.740   1.626  0.2692  0.0682 -0.0465
10949TIP3    H154338   6.720   0.788   1.662 -1.3820 -1.7308 -0.9058
10949TIP3    H254339   6.837   0.702   1.703  0.2465  0.9962  0.4463
10950TIP3   OH254340   5.469   0.497   2.076 -0.4695 -0.0512 -0.0530
10950TIP3    H154341   5.539   0.561   2.090 -0.3737  0.0537 -0.9451
10950TIP3    H254342   5.488   0.427   2.138  0.5351 -0.1095 -0.3978
10951TIP3   OH254343   6.041   5.756  15.806 -0.2252  0.1153 -0.2279
10951TIP3    H154344   6.072   5.816  15.874  0.6939  1.2460 -1.5803
10951TIP3    H254345   5.954   5.729  15.836  1.4533 -2.3518  3.1938
10952TIP3   OH254346   0.724   1.192  11.864 -0.2355 -0.5681  0.4770
10952TIP3    H154347   0.783   1.138  11.916  0.3896 -0.4516 -0.0954
10952TIP3    H254348   0.763   1.193  11.776  0.6098  2.0327  0.8008
10953TIP3   OH254349   3.440   5.083  12.630 -0.0025 -0.5611  0.1289
10953TIP3    H154350   3.428   5.113  12.719 -0.1567  3.1684 -0.9961
10953TIP3    H254351   3.357   5.043  12.606 -0.8971  0.8243  0.8328
10954TIP3   OH254352   5.336   1.321  15.651  0.1787  0.4667 -0.7769
10954TIP3    H154353   5.314   1.373  15.728 -0.0740 -1.4811  0.5501
10954TIP3    H254354   5.345   1.385  15.581  0.9814  2.3999  0.9634
10955TIP3   OH254355   0.667   5.498   4.481  0.2591  0.1716 -0.9329
10955TIP3    H154356   0.644   5.408   4.457 -0.9274 -0.0191  0.7335
10955TIP3    H254357   0.594   5.551   4.449  0.4463  0.3997 -0.9848
10956TIP3   OH254358   2.018   3.779   3.831  0.7234 -0.5645  0.0519
10956TIP3    H154359   1.985   3.764   3.743  1.9539  0.2718 -0.5825
10956TIP3    H254360   2.082   3.710   3.846  2.4755  0.7714 -0.8023
10957TIP3   OH254361   4.795   5.271   5.782 -0.1105 -0.3368 -0.0326
10957TIP3    H154362   4.716   5.283   5.835 -0.8420 -2.3148 -0.5744
10957TIP3    H254363   4.841   5.198   5.824  1.5880  0.9109  0.4002
10958TIP3   OH254364   3.576   2.503  11.730 -0.3111  0.4480 -0.6534
10958TIP3    H154365   3.595   2.595  11.747  1.3284 -0.1075  0.8914
10958TIP3    H254366   3.604   2.458  11.809 -1.6507 -1.3313 -1.1332
10959TIP3   OH254367   3.661   1.095  15.401  0.2524 -0.4869  0.1857
10959TIP3    H154368   3.579   1.046  15.399  0.4819 -0.8502 -1.1804
10959TIP3    H254369   3.683   1.103  15.494 -2.7365  1.9927  0.8516
10960TIP3   OH254370   2.681   4.897   6.083  0.0498  0.0942 -0.2821
10960TIP3    H154371   2.617   4.840   6.125 -1.8621  1.4705 -1.1796
10960TIP3    H254372   2.677   4.979   6.133 -1.3292  1.3089 -2.2719
10961TIP3   OH254373   3.001   0.317  13.022  0.1530  0.4119 -0.6255
10961TIP3    H154374   3.022   0.236  13.069 -2.4767 -0.3398 -0.5782
10961TIP3    H254375   3.072   0.377  13.043  0.5994 -0.8836  1.8718
10962TIP3   OH254376   6.197   4.878  11.440 -0.1113 -0.2177 -0.3697
10962TIP3    H154377   6.117   4.837  11.472 -0.7498  1.5414  0.4216
10962TIP3    H254378   6.202   4.853  11.348 -2.8576  1.4401 -1.0852
10963TIP3   OH254379   5.329   4.944  16.038 -0.2252  0.6653  0.0567
10963TIP3    H154380   5.339   4.946  16.133 -0.2729  0.0475  0.0733
10963TIP3    H254381   5.367   5.027  16.009 -0.1608  0.8341  0.6072
10964TIP3   OH254382   4.741   1.983  13.815 -0.0537 -0.1853  0.0836
10964TIP3    H154383   4.748   1.889  13.834  0.8981  0.1982  1.8947
10964TIP3    H254384   4.798   2.024  13.880  0.6651  1.5827 -1.5783
10965TIP3   OH254385   5.899   2.459  11.452 -0.0278  0.6183 -0.5862
10965TIP3    H154386   5.831   2.524  11.469  1.3597  1.9806  0.0045
10965TIP3    H254387   5.924   2.474  11.361 -0.4134  0.2150 -0.7593
10966TIP3   OH254388   2.851   0.763   5.136  0.2916 -0.5174 -0.7739
10966TIP3    H154389   2.911   0.809   5.077  0.2401 -1.5350 -1.6492
10966TIP3    H254390   2.903   0.690   5.170  1.1832  1.4412  2.5337
10967TIP3   OH254391   0.539   0.226  12.778  0.1692  0.3797 -0.0728
10967TIP3    H154392   0.565   0.205  12.867 -3.4954 -0.1867  1.0588
10967TIP3    H254393   0.507   0.142  12.743 -1.6733  1.2461 -0.5856
10968TIP3   OH254394   5.471   2.016   2.633 -0.1998  0.8992 -0.3031
10968TIP3    H154395   5.387   1.990   2.594 -0.1510  1.6153 -0.9022
10968TIP3    H254396   5.507   1.934   2.669 -0.4284  0.2837 -1.4247
10969TIP3   OH254397   0.268   2.640  15.074 -0.2077  0.9560 -0.2716
10969TIP3    H154398   0.233   2.552  15.092 -0.6645  1.0742 -0.5799
10969TIP3    H254399   0.199   2.700  15.102  0.8723  1.3144  1.8179
10970TIP3   OH254400   3.015   3.290  14.453  0.3783 -0.3207  0.2067
10970TIP3    H154401   3.060   3.348  14.514 -0.7411 -0.8754  1.6195
10970TIP3    H254402   3.066   3.295  14.373  0.9386  1.7297  0.6473
10971TIP3   OH254403   5.686   3.261   1.961  0.5489 -0.5954  0.0363
10971TIP3    H154404   5.760   3.316   1.936  1.4472 -1.4099  0.8577
10971TIP3    H254405   5.610   3.319   1.956  0.8674 -0.3055 -3.0223
10972TIP3   OH254406   5.865   0.594  12.280 -0.0047 -0.3267  0.0049
10972TIP3    H154407   5.828   0.530  12.219  0.4971  0.0593 -0.7196
10972TIP3    H254408   5.944   0.553  12.313  0.9396  0.3518 -1.3332
10973TIP3   OH254409   3.642   4.613  17.180 -0.1669  0.4088 -0.5341
10973TIP3    H154410   3.600   4.527  17.185  1.2279 -0.2467  0.5393
10973TIP3    H254411   3.735   4.596  17.198  0.0160  2.2379  0.5150
10974TIP3   OH254412   2.091   4.580   6.081 -0.3921 -0.1396 -0.2025
10974TIP3    H154413   2.048   4.584   5.996  0.2896  2.0093 -0.5267
10974TIP3    H254414   2.109   4.672   6.103 -0.2596 -0.6478  2.1156
10975TIP3   OH254415   2.806   0.074  14.662  0.2192  0.1493 -0.1573
10975TIP3    H154416   2.865   0.124  14.605  1.9976 -0.3741  1.1431
10975TIP3    H254417   2.800  -0.012  14.621  0.1041  0.3085 -0.4748
10976TIP3   OH254418   6.577   0.389  12.661  0.3656  0.1119 -0.1048
10976TIP3    H154419   6.602   0.447  12.732  0.2200  0.5712 -0.4259
10976TIP3    H254420   6.566   0.446  12.585 -0.6935 -0.1972 -0.2072
10977TIP3   OH254421   4.899   3.247  14.581  0.4119  0.1429  0.7943
10977TIP3    H154422   4.945   3.167  14.555  1.8128  1.3349 -0.5803
10977TIP3    H254423   4.868   3.229  14.670  0.4022 -2.0237  0.4050
10978TIP3   OH254424   3.040   5.465   6.739 -0.4695  0.2479 -0.2624
10978TIP3    H154425   3.135   5.468   6.750 -0.4110 -0.7249 -0.4174
10978TIP3    H254426   3.013   5.557   6.742  0.2658  0.4416  1.5271
10979TIP3   OH254427   0.827   1.694  14.464 -0.3919  0.6110  0.2490
10979TIP3    H154428   0.897   1.630  14.474  1.6414  2.4450 -1.2043
10979TIP3    H254429   0.857   1.771  14.514 -1.8175  1.1274  0.3540
10980TIP3   OH254430   2.937   5.556  11.763  0.0546 -0.1631  0.0667
10980TIP3    H154431   2.938   5.640  11.809  0.1975  0.0327 -0.2912
10980TIP3    H254432   2.973   5.576  11.676 -1.9558 -0.1388 -0.8108
10981TIP3   OH254433   3.334   5.437  12.712  0.7090 -0.6931  0.1432
10981TIP3    H154434   3.426   5.413  12.708  0.8120 -0.4166  0.7006
10981TIP3    H254435   3.320   5.460  12.804  0.0313 -0.9517  0.1103
10982TIP3   OH254436   2.960   0.410   1.379 -0.5337  0.4665  0.7777
10982TIP3    H154437   2.926   0.441   1.462 -1.6280  1.6006 -0.0471
10982TIP3    H254438   2.910   0.459   1.313  0.1172 -0.5829 -0.5439
10983TIP3   OH254439   4.957   3.203   1.531 -0.4108  0.0326  0.0440
10983TIP3    H154440   4.983   3.229   1.443 -0.5797 -0.0174 -0.0215
10983TIP3    H254441   4.862   3.195   1.526 -0.2887 -1.4085 -0.1506
10984TIP3   OH254442   0.730   4.093   5.141  0.3791  0.4386  0.3659
10984TIP3    H154443   0.743   4.160   5.074 -0.0978  1.0069  0.8311
10984TIP3    H254444   0.720   4.142   5.222 -0.1559 -0.1887  0.6877
10985TIP3   OH254445   2.812   0.036  17.078 -0.1264  0.1488  0.0383
10985TIP3    H154446   2.784  -0.016  17.154 -0.6656 -0.2501 -0.4306
10985TIP3    H254447   2.749   0.109  17.075 -0.9930 -0.6077 -0.8606
10986TIP3   OH254448   0.507   1.477   0.980  0.2772 -0.3403  0.3677
10986TIP3    H154449   0.570   1.414   0.945  0.4727 -1.1382  2.1019
10986TIP3    H254450   0.527   1.558   0.933  1.2396 -1.0882 -0.5683
10987TIP3   OH254451   1.995   3.489  12.267  0.2797 -0.4548 -0.0152
10987TIP3    H154452   2.080   3.521  12.237  0.0626 -0.0832 -0.2430
10987TIP3    H254453   1.932   3.547  12.226 -0.0106  0.6450  1.8677
10988TIP3   OH254454   1.195   4.208  11.222 -0.2924 -0.1849 -0.4099
10988TIP3    H154455   1.101   4.219  11.232 -0.1789  0.1202  0.4292
10988TIP3    H254456   1.223   4.167  11.304  0.3082 -0.2275 -0.6331
10989TIP3   OH254457   3.979   3.462  16.827 -0.6954  0.3363  0.0426
10989TIP3    H154458   3.952   3.479  16.737  0.5528 -1.6535 -0.7606
10989TIP3    H254459   3.933   3.381  16.851 -1.3390  1.0472  1.3922
10990TIP3   OH254460   1.594   4.242   3.326 -0.1627  0.5984 -0.1620
10990TIP3    H154461   1.585   4.273   3.236 -0.0920 -1.0549 -0.7664
10990TIP3    H254462   1.538   4.164   3.331 -1.0035  1.2427  1.5339
10991TIP3   OH254463   5.114   0.752  15.927  0.9572 -0.3520  0.2038
10991TIP3    H154464   5.079   0.830  15.884  0.5746 -0.4073  0.4038
10991TIP3    H254465   5.155   0.701  15.857 -0.3007 -0.8021 -0.2422
10992TIP3   OH254466   2.301   0.020  16.465  0.9231  0.2186 -0.0107
10992TIP3    H154467   2.268  -0.051  16.411 -0.9194  1.7141 -0.9496
10992TIP3    H254468   2.237   0.029  16.535 -0.1755  2.3877 -1.1930
10993TIP3   OH254469   4.666   5.422   4.898  0.2010 -0.4211 -0.6322
10993TIP3    H154470   4.625   5.377   4.971  1.3479  0.3014  0.5079
10993TIP3    H254471   4.732   5.361   4.866 -0.2381 -0.7002 -1.0208
10994TIP3   OH254472   4.652   3.317   1.711  0.1077 -0.2056  0.4857
10994TIP3    H154473   4.669   3.232   1.669 -0.0710 -0.9334  1.8522
10994TIP3    H254474   4.717   3.323   1.780  0.6468  1.1705 -0.1026
10995TIP3   OH254475   5.409   0.429   3.575 -0.5111  0.3997 -0.1290
10995TIP3    H154476   5.384   0.375   3.500 -0.3631  0.4461 -0.2112
10995TIP3    H254477   5.342   0.497   3.579 -0.2057  0.7272 -0.5606
10996TIP3   OH254478   0.486   2.116   3.317 -0.1219 -0.0055  0.5643
10996TIP3    H154479   0.523   2.128   3.405 -1.7332  0.2935  1.2376
10996TIP3    H254480   0.506   2.197   3.271  1.0929 -0.3223  0.4810
10997TIP3   OH254481   1.242   3.529   0.594  0.2657 -0.2721  0.0292
10997TIP3    H154482   1.246   3.496   0.684  1.1910 -0.4871 -0.0860
10997TIP3    H254483   1.287   3.463   0.542 -3.0138 -1.8230 -1.1286
10998TIP3   OH254484   0.559   5.824  14.067  0.4325  0.5091 -0.5723
10998TIP3    H154485   0.511   5.866  13.996  0.0868  0.8493 -0.1372
10998TIP3    H254486   0.492   5.787  14.124  0.7187 -0.2821 -0.7281
10999TIP3   OH254487   0.934   2.437   4.827 -0.2039 -0.5126  0.0793
10999TIP3    H154488   0.843   2.410   4.841 -0.8474  0.7972 -1.2288
10999TIP3    H254489   0.959   2.393   4.746  0.6685 -1.6035  0.9241
11000TIP3   OH254490   0.996   0.658  16.300  0.7879 -0.3633 -0.1952
11000TIP3    H154491   0.954   0.610  16.371  1.6204 -1.1011 -0.1935
11000TIP3    H254492   1.046   0.592  16.252  0.9795  0.2890 -0.9181
11001TIP3   OH254493   6.631   0.663   1.090 -0.3760 -0.2082 -0.2359
11001TIP3    H154494   6.698   0.665   1.159 -1.2020  3.9852  0.7250
11001TIP3    H254495   6.552   0.630   1.135  0.0723 -1.6063 -0.4116
11002TIP3   OH254496   1.433   1.752  11.984  0.3194 -0.1209  0.3726
11002TIP3    H154497   1.373   1.761  12.058  1.4112  1.1569  1.1668
11002TIP3    H254498   1.381   1.711  11.915 -1.6883  1.5521  0.7724
11003TIP3   OH254499   0.027   1.361  14.420  0.0106  0.0956 -0.4662
11003TIP3    H154500  -0.003   1.300  14.487 -0.2214  0.0094 -0.6481
11003TIP3    H254501   0.063   1.306  14.351  1.9413  0.2281  0.3694
11004TIP3   OH254502   1.322   5.742  13.929 -0.1068 -0.0486  0.0443
11004TIP3    H154503   1.240   5.791  13.935  1.0275  1.8057  4.0374
11004TIP3    H254504   1.390   5.809  13.922  1.2411 -1.3940 -0.3710
11005TIP3   OH254505   2.554   6.578  14.499 -0.5068 -0.2159 -0.4403
11005TIP3    H154506   2.554   6.483  14.509 -0.5190 -0.2819 -1.0523
11005TIP3    H254507   2.533   6.611  14.587  1.8605 -0.6946  0.3766
11006TIP3   OH254508   3.980   4.940  15.504 -0.4434 -0.1238 -0.4418
11006TIP3    H154509   3.929   4.998  15.447 -1.1398  0.5940  0.8672
11006TIP3    H254510   3.916   4.904  15.565  0.5036  0.3345  0.8712
11007TIP3   OH254511   5.235   1.029  15.697 -0.1068 -0.0280  0.1144
11007TIP3    H154512   5.282   0.978  15.631  2.5335  0.7146  1.2751
11007TIP3    H254513   5.200   1.105  15.649  0.8937 -0.0126 -0.6148
11008TIP3   OH254514   0.768   1.072  14.984  0.2668 -0.2271  0.1881
11008TIP3    H154515   0.674   1.087  14.975  0.3921 -0.1043 -1.0264
11008TIP3    H254516   0.776   1.018  15.063 -0.6216  1.5391  1.5384
11009TIP3   OH254517   2.049   1.923  12.183  0.4374  0.1794  0.0779
11009TIP3    H154518   2.134   1.915  12.227 -0.2399  0.8854  1.5770
11009TIP3    H254519   2.029   2.016  12.186 -0.1867  0.0820 -0.7052
11010TIP3   OH254520   3.209   0.950   1.167  0.6441 -0.0407 -0.2898
11010TIP3    H154521   3.245   0.954   1.255 -1.5180  0.6507  0.6317
11010TIP3    H254522   3.283   0.967   1.109  2.1726 -0.8555  1.3548
11011TIP3   OH254523   2.823   0.805   5.537 -0.0424  0.2994 -0.6156
11011TIP3    H154524   2.760   0.761   5.480  0.8008 -1.4610 -0.2834
11011TIP3    H254525   2.810   0.763   5.622  1.0096  0.4945 -0.3471
11012TIP3   OH254526   0.958   3.841   3.009 -0.6937 -0.8929  0.3199
11012TIP3    H154527   0.869   3.829   3.044 -1.0712 -1.1322 -0.6674
11012TIP3    H254528   0.954   3.927   2.966 -0.1332 -0.4415  1.1433
11013TIP3   OH254529   0.422   0.414  17.039 -0.0079  0.0336  0.2504
11013TIP3    H154530   0.333   0.447  17.045 -0.0383  0.0607 -0.2605
11013TIP3    H254531   0.428   0.377  16.950 -0.4570 -2.7103  1.2590
11014TIP3   OH254532   1.948   2.209   4.509  0.9921 -0.8150 -0.2911
11014TIP3    H154533   1.986   2.121   4.516 -0.5970 -1.5403 -0.2665
11014TIP3    H254534   1.854   2.193   4.495  1.0169  0.8321 -3.0109
11015TIP3   OH254535   1.966   4.291  15.507 -0.1005  0.3751 -0.2172
11015TIP3    H154536   1.922   4.340  15.437  0.2307  1.3263  0.2286
11015TIP3    H254537   2.058   4.314  15.498  0.4420 -1.9241 -1.4022
11016TIP3   OH254538   1.516   2.307   1.206  0.5379 -0.4221  0.4223
11016TIP3    H154539   1.570   2.230   1.223  1.8764  0.3955  0.0169
11016TIP3    H254540   1.447   2.276   1.147  1.7582 -1.0882 -0.7195
11017TIP3   OH254541   5.629   1.818   5.108  0.1371 -0.0259  0.0164
11017TIP3    H154542   5.710   1.855   5.145 -1.0456  0.6051  2.1532
11017TIP3    H254543   5.643   1.723   5.111  0.2897  0.0203  1.7060
11018TIP3   OH254544   3.122   6.024   5.136  0.4018 -0.0574  0.0258
11018TIP3    H154545   3.107   5.975   5.055  0.4492  2.2217 -1.4561
11018TIP3    H254546   3.050   5.997   5.193 -0.0472 -1.2083 -1.0329
11019TIP3   OH254547   0.109   3.763  15.483  0.8500  0.2965 -0.1336
11019TIP3    H154548   0.136   3.847  15.522  1.8134  0.2194 -0.5910
11019TIP3    H254549   0.151   3.697  15.538  0.9929  0.1478 -0.4198
11020TIP3   OH254550   5.200   6.785  15.517 -0.3517  0.3503 -0.3614
11020TIP3    H154551   5.161   6.716  15.463  0.7325 -0.6135  0.0272
11020TIP3    H254552   5.254   6.835  15.457 -0.3399  0.2248 -0.4565
11021TIP3   OH254553   6.225   2.190   4.697  0.0881 -0.0717  0.1184
11021TIP3    H154554   6.155   2.232   4.747  0.2673  0.9465 -0.4596
11021TIP3    H254555   6.251   2.115   4.751  0.3454  1.0395  1.5877
11022TIP3   OH254556   4.306   3.711  11.663 -0.2135 -0.0862 -0.4978
11022TIP3    H154557   4.303   3.800  11.629  0.3732  0.0867 -0.1030
11022TIP3    H254558   4.398   3.694  11.679 -0.2073 -1.1268 -1.5038
11023TIP3   OH254559   5.558   1.733   5.454 -0.3384  0.4794 -0.7155
11023TIP3    H154560   5.557   1.662   5.390  1.1341 -0.4049  0.1776
11023TIP3    H254561   5.468   1.764   5.457 -1.6089 -2.9037  0.5239
11024TIP3   OH254562   0.626   3.265   3.136 -0.2514 -0.2681 -0.1220
11024TIP3    H154563   0.697   3.238   3.078 -0.9968 -1.4556 -0.5203
11024TIP3    H254564   0.646   3.356   3.157  0.3942  0.0106 -1.7445
11025TIP3   OH254565   4.554   4.875  12.376 -0.4562  0.1166  0.3447
11025TIP3    H154566   4.562   4.808  12.444  1.2235  0.2467  0.3070
11025TIP3    H254567   4.644   4.905  12.361 -1.0980  1.9603 -0.0582
11026TIP3   OH254568   5.752   1.197  14.147  0.0633  0.2302 -0.0078
11026TIP3    H154569   5.657   1.195  14.142 -0.1482  1.3786  2.3707
11026TIP3    H254570   5.779   1.257  14.077 -1.0138  0.6042 -0.1154
11027TIP3   OH254571   6.341   4.708   5.668  0.6442  0.0298 -0.2778
11027TIP3    H154572   6.261   4.714   5.615 -0.9014  2.3166  2.0362
11027TIP3    H254573   6.317   4.650   5.740  0.8712  1.1066  0.6842
11028TIP3   OH254574   5.039   4.845   1.018 -0.1809 -0.0314 -0.6026
11028TIP3    H154575   5.121   4.880   1.052  0.8409 -2.1361 -0.7813
11028TIP3    H254576   4.976   4.857   1.090  0.3853  1.1058 -0.2738
11029TIP3   OH254577   4.054   6.023  10.534  0.0397  0.3767 -0.2641
11029TIP3    H154578   3.986   6.086  10.511  0.4711  1.6786  1.7346
11029TIP3    H254579   4.124   6.038  10.471 -0.7150  0.4152 -1.1074
11030TIP3   OH254580   4.172   2.023   1.090  0.0157  1.1433 -0.0430
11030TIP3    H154581   4.164   2.026   0.995  1.3190  0.8579 -0.1909
11030TIP3    H254582   4.235   2.092   1.111 -1.6311  2.4563  0.8324
11031TIP3   OH254583   0.885   6.386  11.050 -0.0325 -0.2095  0.3221
11031TIP3    H154584   0.821   6.456  11.062 -0.7889 -0.4624 -1.7261
11031TIP3    H254585   0.968   6.432  11.037 -0.6094  0.4273 -1.5655
11032TIP3   OH254586   1.161   2.243   0.483  0.3083  0.5049 -0.8829
11032TIP3    H154587   1.192   2.176   0.422 -0.5623  0.4394 -1.2765
11032TIP3    H254588   1.066   2.245   0.470  0.1173  0.5846  0.3842
11033TIP3   OH254589   6.643   4.505   6.247  0.0810  0.0445  0.2166
11033TIP3    H154590   6.631   4.514   6.152  2.0215 -0.9017 -0.1571
11033TIP3    H254591   6.559   4.471   6.278  0.4883 -3.1255 -1.7032
11034TIP3   OH254592   2.385   1.878  11.042 -0.1439 -0.3956 -0.4292
11034TIP3    H154593   2.404   1.946  10.977  2.1446  0.4201  0.9323
11034TIP3    H254594   2.452   1.811  11.026 -0.7408 -1.0775 -0.0955
11035TIP3   OH254595   1.948   4.244  13.037 -0.0105 -0.4091 -0.2278
11035TIP3    H154596   1.935   4.161  12.991  0.4403 -0.5064 -0.1752
11035TIP3    H254597   2.025   4.231  13.091  0.3192  0.1883 -0.5418
11036TIP3   OH254598   1.303   1.880  14.652 -0.0705 -0.3762 -0.0772
11036TIP3    H154599   1.380   1.862  14.706  0.0306 -1.3729 -0.5309
11036TIP3    H254600   1.231   1.836  14.697  0.1945 -2.1021 -1.2488
11037TIP3   OH254601   2.467   2.029   4.683  0.4382 -0.2017  0.4909
11037TIP3    H154602   2.387   2.031   4.630  0.8633  0.4866 -0.1425
11037TIP3    H254603   2.517   2.105   4.654  0.6965  0.2016  1.8814
11038TIP3   OH254604   4.517   0.729  10.962 -0.0977 -0.1233 -0.0730
11038TIP3    H154605   4.486   0.819  10.972  1.1822  0.3225 -0.0108
11038TIP3    H254606   4.555   0.726  10.874 -0.7630 -0.8053 -0.3481
11039TIP3   OH254607   5.295   2.254   1.555  0.1234  0.3542 -0.1882
11039TIP3    H154608   5.374   2.207   1.579 -0.4413 -0.1487  0.7646
11039TIP3    H254609   5.224   2.195   1.580 -0.5481  0.6463 -1.3453
11040TIP3   OH254610   3.192   2.727   2.069  0.4493  0.0080  0.0831
11040TIP3    H154611   3.227   2.669   2.003  0.2784  0.7510 -0.6807
11040TIP3    H254612   3.097   2.711   2.067  0.3397  0.6530 -0.4927
11041TIP3   OH254613   0.250   2.908   1.744  0.5517  0.5719 -0.2317
11041TIP3    H154614   0.184   2.977   1.732  2.0684  1.9541 -0.8843
11041TIP3    H254615   0.202   2.827   1.724 -1.8331  1.1141  2.5166
11042TIP3   OH254616   3.271   0.128  10.488  0.3065 -0.4422  0.2789
11042TIP3    H154617   3.246   0.103  10.398  0.1751  0.9576 -0.0914
11042TIP3    H254618   3.361   0.160  10.480  0.2704 -0.2508  0.6380
11043TIP3   OH254619   1.965   0.251  16.951 -0.3080  0.6431  0.1709
11043TIP3    H154620   1.899   0.228  16.885  0.8230  0.4535 -0.9265
11043TIP3    H254621   1.969   0.174  17.008  0.4248 -0.2235 -0.9908
11044TIP3   OH254622   2.859   6.791  11.401  0.2315 -0.2408 -0.2129
11044TIP3    H154623   2.777   6.840  11.402  1.2052  1.4590 -0.0726
11044TIP3    H254624   2.856   6.742  11.318 -1.6481 -1.5936  0.5787
11045TIP3   OH254625   2.912   2.372   5.683  0.3533  0.0986 -0.2383
11045TIP3    H154626   2.869   2.334   5.760  1.3466 -0.9782 -0.2098
11045TIP3    H254627   3.004   2.352   5.694  0.7918  1.6961 -0.7149
11046TIP3   OH254628   6.180   3.393   1.835 -0.3296  0.5053  0.0965
11046TIP3    H154629   6.162   3.410   1.928  0.7355 -0.5777  0.5216
11046TIP3    H254630   6.216   3.305   1.833 -2.7131 -0.5164 -1.6751
11047TIP3   OH254631   0.452   3.222   4.700 -0.6194  0.2210  0.2011
11047TIP3    H154632   0.518   3.199   4.635 -2.1955 -0.2462 -1.3246
11047TIP3    H254633   0.370   3.226   4.650 -1.8645  0.0585  2.1408
11048TIP3   OH254634   0.793   5.114  12.076  0.2308 -0.4010 -0.5760
11048TIP3    H154635   0.880   5.077  12.068  0.0151 -0.8970 -0.6911
11048TIP3    H254636   0.793   5.190  12.018  0.7831 -0.0135 -0.0785
11049TIP3   OH254637   5.060   6.689   1.292  0.2812  0.3339 -0.2350
11049TIP3    H154638   5.084   6.597   1.292  0.6808  0.4323  0.0882
11049TIP3    H254639   5.127   6.731   1.237  2.0286  0.8871  2.1322
11050TIP3   OH254640   0.912   5.172  14.093  0.0376  0.0867 -0.1206
11050TIP3    H154641   0.831   5.182  14.144 -0.3356 -0.9439 -0.4788
11050TIP3    H254642   0.931   5.259  14.060 -1.9470  0.0458 -1.5497
11051TIP3   OH254643   0.121   3.488   2.166 -0.7276 -0.3192 -0.5549
11051TIP3    H154644   0.198   3.437   2.192 -0.0726  0.9860  0.1940
11051TIP3    H254645   0.139   3.576   2.200 -3.1663 -0.2793  0.8412
11052TIP3   OH254646   1.537   3.005   5.445 -0.1914  0.0872 -0.3767
11052TIP3    H154647   1.566   2.924   5.403  0.0027 -0.0339 -0.0071
11052TIP3    H254648   1.618   3.051   5.467 -0.2831 -0.0080  0.1761
11053TIP3   OH254649   1.393   2.007   3.600  0.1950 -0.3130 -0.2144
11053TIP3    H154650   1.434   2.038   3.520 -1.1153  0.7266 -0.5325
11053TIP3    H254651   1.304   2.043   3.596 -0.6937 -2.2896  0.5174
11054TIP3   OH254652   0.007   1.877   4.109 -0.3244  0.1770 -0.1218
11054TIP3    H154653   0.082   1.890   4.168 -0.1364  1.2376 -0.5674
11054TIP3    H254654   0.037   1.811   4.047  0.0522  0.2005  0.0331
11055TIP3   OH254655   1.326   4.305   6.033 -0.1733 -0.6398  0.4758
11055TIP3    H154656   1.398   4.367   6.044 -0.0888 -0.7938  0.8108
11055TIP3    H254657   1.270   4.321   6.109 -1.1790  0.3729 -0.4376
11056TIP3   OH254658   6.478   5.647  11.299 -0.2190  0.2261 -0.5430
11056TIP3    H154659   6.471   5.695  11.382  1.6137 -0.9070  0.3398
11056TIP3    H254660   6.548   5.692  11.251 -1.4298  1.0183 -1.6218
11057TIP3   OH254661   1.016   6.521   0.237  0.4038 -0.1915 -0.1290
11057TIP3    H154662   1.071   6.597   0.254  0.5325  0.1852 -2.0408
11057TIP3    H254663   1.068   6.446   0.267  0.6931  0.3785  0.8298
11058TIP3   OH254664   4.383   5.391   2.429  0.1741 -0.0211 -0.0834
11058TIP3    H154665   4.463   5.423   2.389  0.8853  1.5038  2.3215
11058TIP3    H254666   4.332   5.354   2.356  2.4789  0.0996 -1.8575
11059TIP3   OH254667   4.579   6.358  13.695  0.1811  0.0467  0.4636
11059TIP3    H154668   4.560   6.285  13.754 -0.7117 -0.0274  0.0960
11059TIP3    H254669   4.624   6.423  13.749 -1.4259  0.3715  1.4484
11060TIP3   OH254670   2.193   3.268  13.221  0.5273  0.1255 -0.1482
11060TIP3    H154671   2.212   3.176  13.243 -1.9202 -0.2875  0.6414
11060TIP3    H254672   2.233   3.318  13.292  0.8504 -0.4400  0.0771
11061TIP3   OH254673   0.639   2.005   0.566 -0.1821 -0.0594 -0.1346
11061TIP3    H154674   0.628   2.058   0.645  1.7264 -0.6399  0.5532
11061TIP3    H254675   0.720   1.957   0.579  0.3565  0.0324 -2.5726
11062TIP3   OH254676   0.159   2.946  11.468  0.5858  0.0194 -0.0970
11062TIP3    H154677   0.132   2.892  11.543  1.4587 -0.2257  0.0538
11062TIP3    H254678   0.176   2.882  11.398 -0.3087  0.2528 -0.5382
11063TIP3   OH254679   1.159   3.155   3.910 -0.2769  0.5898 -0.0308
11063TIP3    H154680   1.115   3.207   3.978  0.5606 -0.6347  1.5367
11063TIP3    H254681   1.253   3.171   3.925 -0.0868  0.4340 -1.0234
11064TIP3   OH254682   1.994   4.164   3.855 -0.1078  0.6431  0.6743
11064TIP3    H154683   2.006   4.077   3.893  0.8390  1.0033  1.2247
11064TIP3    H254684   2.028   4.224   3.921  1.9793  1.2726 -0.8553
11065TIP3   OH254685   2.858   0.623   4.789 -0.0776 -0.2712  0.0800
11065TIP3    H154686   2.944   0.592   4.818 -0.5245  0.7443  2.7131
11065TIP3    H254687   2.875   0.710   4.754 -0.0004 -0.1815  0.3408
11066TIP3   OH254688   5.437   2.044  12.477  0.7498  0.1128 -0.2439
11066TIP3    H154689   5.379   1.992  12.422  1.0038  0.8381 -1.2037
11066TIP3    H254690   5.509   1.985  12.498  0.3089 -0.3836 -0.1051
11067TIP3   OH254691   2.062   1.588  14.199 -0.7908  0.4566  0.3023
11067TIP3    H154692   2.101   1.671  14.172  0.8078  0.3155  1.9678
11067TIP3    H254693   2.013   1.558  14.123  0.5801  1.7493 -1.1481
11068TIP3   OH254694   4.862   3.183  14.032 -0.6250 -0.0374  0.0791
11068TIP3    H154695   4.793   3.185  13.966 -0.2068  0.0076 -0.3639
11068TIP3    H254696   4.863   3.271  14.069  0.0841  0.3621 -0.8558
11069TIP3   OH254697   6.371   5.055  11.040  0.2324  0.4375  0.7709
11069TIP3    H154698   6.370   5.144  11.075  1.1119  0.7772 -0.0341
11069TIP3    H254699   6.411   5.063  10.954 -1.8563 -0.3841 -0.3462
11070TIP3   OH254700   1.371   4.979   4.613  0.2806 -0.5152 -0.5061
11070TIP3    H154701   1.289   4.947   4.577 -0.6796  1.4650 -0.1994
11070TIP3    H254702   1.390   4.920   4.686 -1.4073 -0.4180  0.0400
11071TIP3   OH254703   1.444   6.077   5.299  0.2947 -0.5470 -0.4033
11071TIP3    H154704   1.492   5.994   5.291 -0.5273 -0.8258 -3.5736
11071TIP3    H254705   1.512   6.144   5.298  0.9119 -1.0716  1.3698
11072TIP3   OH254706   4.874   5.176   1.803  0.2754 -0.1760 -0.3092
11072TIP3    H154707   4.916   5.148   1.721  0.6235 -1.7263  0.3773
11072TIP3    H254708   4.945   5.173   1.868  0.0399  1.1970  0.0539
11073TIP3   OH254709   1.755   4.683   5.113  0.5128  0.1774  0.0835
11073TIP3    H154710   1.682   4.684   5.052  0.0017 -0.2787  0.6693
11073TIP3    H254711   1.761   4.773   5.145  0.6981  0.3871 -0.5242
11074TIP3   OH254712   1.358   4.067   1.533  0.7044  0.0221 -0.5754
11074TIP3    H154713   1.411   4.013   1.473  0.9597  0.0140 -0.3453
11074TIP3    H254714   1.379   4.157   1.509  0.8718  0.0190 -0.4428
11075TIP3   OH254715   3.939   4.833  14.896 -0.4569 -0.4137  0.3029
11075TIP3    H154716   3.954   4.741  14.877 -0.2265 -0.0710 -1.3764
11075TIP3    H254717   4.024   4.865  14.927 -0.7461 -0.9088  1.6999
11076TIP3   OH254718   0.252   1.926   0.155  0.2310  0.6274  0.3335
11076TIP3    H154719   0.341   1.951   0.177  0.9343 -1.2411 -0.1734
11076TIP3    H254720   0.230   1.856   0.217 -0.6177  0.5871  0.0086
11077TIP3   OH254721   3.351   3.683   0.820  0.5017  0.2405  0.2095
11077TIP3    H154722   3.446   3.686   0.835  0.9183 -0.6922 -1.9620
11077TIP3    H254723   3.325   3.595   0.847  0.1157  0.6836  1.3462
11078TIP3   OH254724   1.923   6.649   5.684  0.5467 -0.2817 -0.3671
11078TIP3    H154725   1.949   6.661   5.776 -0.1513 -1.7131  0.0512
11078TIP3    H254726   1.834   6.684   5.679  0.4164 -0.6113 -0.3813
11079TIP3   OH254727   5.379   3.987   4.467  0.1112  0.1352  0.6965
11079TIP3    H154728   5.338   4.034   4.395 -0.4560  0.3322  1.1404
11079TIP3    H254729   5.468   4.023   4.472  0.0268  0.3915  0.3426
11080TIP3   OH254730   6.680   4.836   5.130 -0.6547  0.4319  0.6479
11080TIP3    H154731   6.593   4.867   5.105 -1.5720  0.4657  3.5363
11080TIP3    H254732   6.728   4.916   5.154  0.0875  0.3776 -0.5619
11081TIP3   OH254733   5.378   4.098  16.139  0.1631  0.2965  0.1361
11081TIP3    H154734   5.296   4.147  16.145  0.6830  1.1643  0.4889
11081TIP3    H254735   5.384   4.051  16.222  0.0383  0.2714  0.1301
11082TIP3   OH254736   1.782   4.592   1.238 -0.2098  0.4909 -0.5498
11082TIP3    H154737   1.871   4.594   1.272  0.3101  1.3803 -1.8890
11082TIP3    H254738   1.782   4.656   1.167 -1.5209 -0.5327 -1.5275
11083TIP3   OH254739   0.769   6.397   0.556 -1.0878 -0.3232 -0.5419
11083TIP3    H154740   0.749   6.459   0.486  1.0651  0.5733 -0.4442
11083TIP3    H254741   0.854   6.425   0.589  0.4020 -3.7640 -0.9949
11084TIP3   OH254742   2.286   5.340  11.950 -0.5774 -0.1396 -0.0277
11084TIP3    H154743   2.297   5.426  11.908 -0.8862 -0.1983 -0.2294
11084TIP3    H254744   2.224   5.294  11.893 -0.5697 -0.4227  0.1949
11085TIP3   OH254745   2.056   3.085   4.006  0.0428 -0.8561 -0.1271
11085TIP3    H154746   2.011   3.095   4.090  0.9331  1.4722  0.1487
11085TIP3    H254747   2.003   3.135   3.944  1.2397  0.4893 -0.1446
11086TIP3   OH254748   1.420   4.873  14.955  0.4766  0.5187  0.3503
11086TIP3    H154749   1.407   4.878  14.861 -1.4271  0.3085  0.5658
11086TIP3    H254750   1.442   4.963  14.982 -0.3091  0.8560 -0.1207
11087TIP3   OH254751   5.705   4.456  13.248  0.4897  0.1263  0.3969
11087TIP3    H154752   5.624   4.485  13.208  0.2497 -1.1784 -0.1406
11087TIP3    H254753   5.682   4.376  13.295  1.4703 -0.3420  0.1257
11088TIP3   OH254754   6.173   5.370  12.393 -0.1979 -0.5551  0.0312
11088TIP3    H154755   6.138   5.430  12.459  0.7932 -0.5987  0.6199
11088TIP3    H254756   6.111   5.298  12.391 -0.0202 -0.7685  1.2679
11089TIP3   OH254757   5.291   1.547  13.116  0.0136  0.2419 -0.1476
11089TIP3    H154758   5.279   1.641  13.131  0.5714  0.0741  1.4747
11089TIP3    H254759   5.252   1.532  13.029  3.2145  2.6571 -2.2655
11090TIP3   OH254760   2.201   5.147  10.519  0.6174  0.2450  0.0749
11090TIP3    H154761   2.201   5.065  10.567  0.9546  0.2478  0.0804
11090TIP3    H254762   2.283   5.147  10.470  0.6108  0.5692  0.0592
11091TIP3   OH254763   3.398   1.292  13.493 -0.4988 -0.2861  0.5527
11091TIP3    H154764   3.432   1.212  13.532 -0.6148  0.8569  3.2151
11091TIP3    H254765   3.337   1.262  13.426 -0.4464 -2.4162  1.3833
11092TIP3   OH254766   6.282   1.564   6.450  0.3772  0.9557 -0.1918
11092TIP3    H154767   6.191   1.563   6.421  0.2594  0.0546  0.1637
11092TIP3    H254768   6.318   1.481   6.419  0.6310  0.5860  1.0325
11093TIP3   OH254769   1.872   3.185  13.493  0.3266 -0.1406  0.0480
11093TIP3    H154770   1.886   3.223  13.406  1.7166 -0.0456  0.2873
11093TIP3    H254771   1.915   3.246  13.553 -1.1670  0.1401  0.9028
11094TIP3   OH254772   4.362   5.143  14.396 -0.2803  0.5506  0.8722
11094TIP3    H154773   4.382   5.138  14.490 -0.3960  0.6678  0.9033
11094TIP3    H254774   4.279   5.189  14.392 -0.9340 -0.5980  0.7875
11095TIP3   OH254775   1.974   2.479  10.847 -0.1019  0.2675 -0.3459
11095TIP3    H154776   1.972   2.458  10.753  0.6331 -3.3686  0.3302
11095TIP3    H254777   2.061   2.517  10.860 -0.1217  0.5863 -1.0519
11096TIP3   OH254778   5.467   1.922  16.073 -0.1470  0.0786  0.1778
11096TIP3    H154779   5.510   1.881  16.149  1.1424 -1.2606 -1.2122
11096TIP3    H254780   5.538   1.968  16.028 -0.5165 -0.5711 -1.1192
11097TIP3   OH254781   3.121   6.599   3.259  0.8918 -0.1944  0.9188
11097TIP3    H154782   3.027   6.601   3.272  0.8046 -1.3669  0.6155
11097TIP3    H254783   3.147   6.511   3.285  1.8311 -0.0359  0.5600
11098TIP3   OH254784   1.980   3.120   1.589  0.2859  0.1808 -0.3965
11098TIP3    H154785   2.050   3.183   1.572  2.9241 -1.6816  2.4583
11098TIP3    H254786   2.000   3.045   1.533  0.4256 -0.2571  0.2307
11099TIP3   OH254787   0.108   2.435   6.654 -0.0105  0.0477 -0.5090
11099TIP3    H154788   0.088   2.347   6.684 -1.4063  0.6116  0.3417
11099TIP3    H254789   0.202   2.435   6.638 -0.0718 -1.7442 -1.0869
11100TIP3   OH254790   1.825   2.303  15.043 -0.6311  0.1595  0.2935
11100TIP3    H154791   1.860   2.304  15.132  1.1053 -1.1256 -0.3139
11100TIP3    H254792   1.798   2.393  15.026  1.7917  1.1293  1.1085
11101TIP3   OH254793   6.522   3.225   0.972 -0.5851  0.2196  0.5656
11101TIP3    H154794   6.452   3.221   1.037 -2.1568  0.1707 -1.0462
11101TIP3    H254795   6.539   3.318   0.960 -0.6142  0.2460  0.7309
11102TIP3   OH254796   5.804   6.743   4.695  0.3029  0.2961 -0.2775
11102TIP3    H154797   5.742   6.690   4.644 -0.1164 -0.3154  0.8429
11102TIP3    H254798   5.854   6.791   4.629 -2.2950  1.9056 -1.2396
11103TIP3   OH254799   1.833   1.005   5.356 -0.3555 -0.1280  0.5294
11103TIP3    H154800   1.896   0.944   5.394  0.8094  1.3589  1.1187
11103TIP3    H254801   1.882   1.050   5.287 -1.5137 -0.5833 -0.6307
11104TIP3   OH254802   3.551   6.471   1.963 -0.4262  0.0553 -0.0850
11104TIP3    H154803   3.612   6.544   1.973  0.6995 -0.6856 -1.2446
11104TIP3    H254804   3.536   6.440   2.053  1.4836 -0.1825  0.1908
11105TIP3   OH254805   1.864   0.763  11.352 -0.0316  0.4453 -0.0275
11105TIP3    H154806   1.861   0.725  11.440 -0.5358 -0.7115 -0.5200
11105TIP3    H254807   1.874   0.687  11.294 -1.5420  1.0133 -1.0854
11106TIP3   OH254808   0.560   1.731   0.301 -0.3527  0.4823  0.2049
11106TIP3    H154809   0.636   1.741   0.243 -0.3557 -0.8893 -0.0733
11106TIP3    H254810   0.528   1.820   0.313  1.4017  1.1237  0.4812
11107TIP3   OH254811   5.586   5.183  15.258  0.2677 -0.0540  0.1570
11107TIP3    H154812   5.651   5.150  15.196 -2.0188 -2.7533 -1.0494
11107TIP3    H254813   5.540   5.252  15.211 -0.4036 -0.9869 -0.5767
11108TIP3   OH254814   4.989   3.392  15.695 -0.3033 -0.3220 -0.4433
11108TIP3    H154815   5.025   3.455  15.757  0.5975 -0.6590 -0.6108
11108TIP3    H254816   5.040   3.405  15.615  0.4166 -1.7625 -0.2505
11109TIP3   OH254817   6.742   6.050  15.549  0.0074  0.2744 -0.5276
11109TIP3    H154818   6.667   5.991  15.547  0.0717  0.1981 -0.9403
11109TIP3    H254819   6.789   6.031  15.467  1.2387 -0.6805  0.3501
11110TIP3   OH254820   0.476   1.642  16.223 -0.0450 -0.5093 -0.2061
11110TIP3    H154821   0.408   1.701  16.253  0.5210  0.0789 -0.0644
11110TIP3    H254822   0.512   1.684  16.145  1.5679  0.2565  0.8906
11111TIP3   OH254823   5.612   5.822  12.916  0.1206  0.2556 -0.2561
11111TIP3    H154824   5.585   5.890  12.854  1.7341  1.6112  0.4437
11111TIP3    H254825   5.638   5.749  12.860 -1.7048  0.1511 -1.0225
11112TIP3   OH254826   3.024   5.151   4.640 -0.2313  0.2217  0.0620
11112TIP3    H154827   3.079   5.087   4.685  0.9833 -0.6900 -2.4964
11112TIP3    H254828   2.937   5.111   4.637 -0.2105  0.0843  1.1272
11113TIP3   OH254829   3.928   5.003  16.288  0.0748 -0.2862 -0.6917
11113TIP3    H154830   3.883   5.023  16.206  1.1202 -1.5463 -1.5994
11113TIP3    H254831   3.899   5.072  16.348 -0.6353  0.7128 -2.1278
11114TIP3   OH254832   5.900   0.563   0.994  0.0558  0.6215 -0.6385
11114TIP3    H154833   5.825   0.507   0.974 -0.6905  0.7826  1.5111
11114TIP3    H254834   5.961   0.507   1.041  1.1979  0.5739 -2.0991
11115TIP3   OH254835   3.546   0.079   2.133 -0.2042  0.4512 -0.1679
11115TIP3    H154836   3.605   0.007   2.112  1.2689  1.5818 -0.0834
11115TIP3    H254837   3.548   0.135   2.056 -0.1351  1.1631  0.3437
11116TIP3   OH254838   3.258   0.384  13.888  0.4370 -0.0699  0.0600
11116TIP3    H154839   3.225   0.412  13.803 -2.6538  0.0914  1.1852
11116TIP3    H254840   3.307   0.304  13.870 -0.8344 -0.4778 -1.7918
11117TIP3   OH254841   5.321   0.478   2.460 -0.3900 -0.5203 -0.0035
11117TIP3    H154842   5.295   0.519   2.542 -0.7602  0.5875 -0.6621
11117TIP3    H254843   5.239   0.445   2.423 -0.6150  1.1643 -1.0935
11118TIP3   OH254844   3.531   2.436  15.980 -0.4587 -0.2815  0.2679
11118TIP3    H154845   3.593   2.508  15.978  1.4132 -1.8333 -1.0352
11118TIP3    H254846   3.552   2.389  16.061 -0.0226 -0.7270 -0.1021
11119TIP3   OH254847   2.400   2.610   4.670 -0.6312 -0.4596  1.0293
11119TIP3    H154848   2.444   2.529   4.645 -0.2500  0.0921 -0.1648
11119TIP3    H254849   2.413   2.669   4.595 -2.3850  0.1201  1.1376
11120TIP3   OH254850   2.074   1.420   1.271 -0.3002 -0.0415 -0.0993
11120TIP3    H154851   2.137   1.491   1.270  0.1062 -0.3319  1.5752
11120TIP3    H254852   2.070   1.392   1.362 -2.0386 -0.7631 -0.3397
11121TIP3   OH254853   4.669   2.663  13.521  0.1893  0.1499  0.3615
11121TIP3    H154854   4.582   2.631  13.497  0.1455  1.5063 -1.5691
11121TIP3    H254855   4.659   2.758  13.526  1.4735  0.3001  0.4232
11122TIP3   OH254856   3.549   0.520  11.195  0.4137  0.2182  0.4545
11122TIP3    H154857   3.605   0.478  11.130 -0.5926  0.1700 -0.4025
11122TIP3    H254858   3.591   0.604  11.213  0.0274  0.8147 -1.2596
11123TIP3   OH254859   5.186   1.585  14.372  0.4888 -0.0562  0.2930
11123TIP3    H154860   5.250   1.520  14.345 -0.4480  0.0350 -2.4141
11123TIP3    H254861   5.115   1.535  14.412 -0.0720 -0.7450 -1.4636
11124TIP3   OH254862   5.753   0.439   0.053  0.0596 -0.0113  0.1936
11124TIP3    H154863   5.831   0.393   0.083 -0.1837 -1.0201 -0.6506
11124TIP3    H254864   5.775   0.471  -0.034 -1.0060 -1.8007 -0.7826
11125TIP3   OH254865   3.942   1.999  15.874  0.0859  0.3190 -0.3414
11125TIP3    H154866   4.019   1.952  15.907  0.5325 -0.1565 -1.9338
11125TIP3    H254867   3.979   2.076  15.831 -0.4346  0.7096 -0.0914
11126TIP3   OH254868   2.119   3.427  11.563 -0.3779 -0.4002  0.1463
11126TIP3    H154869   2.210   3.441  11.586 -0.2739 -1.1269  0.1972
11126TIP3    H254870   2.081   3.515  11.560  0.2592 -0.1130  0.3689
11127TIP3   OH254871   0.456   3.976  13.852 -0.6290  0.0473  0.3540
11127TIP3    H154872   0.389   3.919  13.890 -2.2340  1.1656 -0.6515
11127TIP3    H254873   0.512   3.916  13.803 -2.8688 -0.6874 -1.5244
11128TIP3   OH254874   3.605   0.828   0.310  0.2280  0.3807 -0.1367
11128TIP3    H154875   3.626   0.817   0.217  0.6266 -0.0748  0.0015
11128TIP3    H254876   3.670   0.774   0.355 -1.2006 -1.0378  0.3126
11129TIP3   OH254877   4.307   3.423   0.520 -0.9642 -0.3613  0.2557
11129TIP3    H154878   4.346   3.501   0.561 -0.1842  2.1017 -4.5337
11129TIP3    H254879   4.330   3.351   0.580  2.8201  2.3080  2.4474
11130TIP3   OH254880   4.219   5.953  12.386  0.3703 -0.0101 -0.1344
11130TIP3    H154881   4.170   6.025  12.347 -1.5554 -0.8585  0.6399
11130TIP3    H254882   4.192   5.952  12.478  2.5018  0.0039  0.5606
11131TIP3   OH254883   4.687   1.687   5.014  0.2646 -0.3900 -0.7110
11131TIP3    H154884   4.782   1.683   5.028  0.6367  0.2800 -2.7445
11131TIP3    H254885   4.666   1.780   5.014  0.1236 -0.3539 -2.9681
11132TIP3   OH254886   3.535   0.651  12.640  0.0011  0.1307 -0.5452
11132TIP3    H154887   3.581   0.574  12.674 -0.1701 -0.2193 -1.0935
11132TIP3    H254888   3.600   0.722  12.644  0.0347  0.0674  0.3510
11133TIP3   OH254889   5.386   4.544  12.163  0.6009  0.2717 -0.3082
11133TIP3    H154890   5.381   4.611  12.095  0.1654  0.5979  0.0401
11133TIP3    H254891   5.430   4.470  12.121  0.6799  0.6099 -0.8270
11134TIP3   OH254892   5.417   4.700  15.246  0.1599 -0.4350 -0.6531
11134TIP3    H154893   5.487   4.732  15.189  0.3529  0.8350  0.2669
11134TIP3    H254894   5.339   4.747  15.216  0.1506 -0.1842 -0.2384
11135TIP3   OH254895   3.246   0.069  12.325 -0.1221 -0.2067 -0.4221
11135TIP3    H154896   3.271   0.079  12.233  3.7299 -0.5069  0.4081
11135TIP3    H254897   3.235   0.158  12.356 -0.8634 -0.0833 -0.9962
11136TIP3   OH254898   0.796   3.526   3.186 -0.5897  0.0211  0.0908
11136TIP3    H154899   0.754   3.535   3.100  0.5178 -0.3367 -0.4972
11136TIP3    H254900   0.874   3.473   3.170 -0.8013 -0.7615  1.4625
11137TIP3   OH254901   2.489   1.924   3.479 -0.1950  0.4149  0.0811
11137TIP3    H154902   2.534   1.901   3.561 -1.0793  2.2899  1.1639
11137TIP3    H254903   2.500   2.019   3.472 -1.6488  0.5342 -1.0470
11138TIP3   OH254904   0.310   1.263  12.152  0.2027  0.1631 -0.4525
11138TIP3    H154905   0.217   1.246  12.136  0.1958 -0.2111 -0.0300
11138TIP3    H254906   0.326   1.349  12.112 -1.2836  2.1472  2.7780
11139TIP3   OH254907   0.096   3.613  13.167  0.0449 -0.0615 -0.1173
11139TIP3    H154908   0.032   3.664  13.216  0.5917  0.1148  0.4186
11139TIP3    H254909   0.055   3.527  13.155  1.0064 -1.1669  3.2495
11140TIP3   OH254910   3.015   1.151  16.030  0.0575 -0.0701 -0.2081
11140TIP3    H154911   3.077   1.209  15.986 -0.4903  0.2558 -0.5596
11140TIP3    H254912   3.060   1.067  16.035  1.5290  0.7332  1.7400
11141TIP3   OH254913   2.051   1.772   4.120  0.0825  0.0191  0.4071
11141TIP3    H154914   2.041   1.723   4.039  0.6026  1.2642 -0.4385
11141TIP3    H254915   2.122   1.729   4.166  2.7176  1.7346 -1.7512
11142TIP3   OH254916   3.534   6.612  16.710 -0.4291  0.2134  0.0945
11142TIP3    H154917   3.606   6.552  16.732 -0.2946  0.6317  0.8349
11142TIP3    H254918   3.560   6.695  16.751 -0.6867  0.7327 -0.7876
11143TIP3   OH254919   3.430   0.926   0.692  0.1178  0.5176 -0.0338
11143TIP3    H154920   3.366   0.955   0.757 -0.9459 -0.3528 -0.6781
11143TIP3    H254921   3.450   1.005   0.642 -1.0253  0.6547 -0.3030
11144TIP3   OH254922   3.377   2.107   0.858 -0.1597 -0.6352  0.0607
11144TIP3    H154923   3.402   2.165   0.787 -0.3564 -0.7541 -0.1036
11144TIP3    H254924   3.286   2.129   0.878 -0.1459 -0.6898  0.1897
11145TIP3   OH254925   2.211   4.427  13.331  0.3675 -0.2708  0.4703
11145TIP3    H154926   2.276   4.492  13.357  0.7615 -0.4367 -0.0934
11145TIP3    H254927   2.133   4.449  13.382  0.9532 -0.2526  1.3845
11146TIP3   OH254928   5.587   4.828   6.250 -0.4766 -0.0744 -0.0521
11146TIP3    H154929   5.542   4.897   6.201 -0.4698  0.1912  0.3186
11146TIP3    H254930   5.518   4.783   6.298 -0.2646  0.8168  1.1161
11147TIP3   OH254931   4.402   3.783   1.911  0.3863  0.5358 -0.0113
11147TIP3    H154932   4.410   3.877   1.930  0.3236  0.5591 -0.0996
11147TIP3    H254933   4.455   3.770   1.832  2.5574  0.0169  1.4289
11148TIP3   OH254934   0.108   1.947  11.339 -0.5270  0.1198  0.1588
11148TIP3    H154935   0.034   1.979  11.288  0.3165 -0.5370 -1.5480
11148TIP3    H254936   0.185   1.977  11.292  0.2863 -1.4079  0.4373
11149TIP3   OH254937   6.818   0.199  14.015 -0.1717  0.5414  0.0029
11149TIP3    H154938   6.763   0.238  13.948 -1.1579 -1.0226 -0.1419
11149TIP3    H254939   6.808   0.257  14.091 -3.3721 -0.5127  0.5289
11150TIP3   OH254940   2.157   2.587  16.129 -0.5508  0.6114 -0.7370
11150TIP3    H154941   2.222   2.602  16.061 -0.5067  0.8198 -0.6491
11150TIP3    H254942   2.132   2.675  16.158 -1.3231  0.5564 -1.1970
11151TIP3   OH254943   0.032   6.611  15.893 -0.0270 -0.4172  0.6959
11151TIP3    H154944   0.103   6.631  15.832 -0.3675 -0.4936  0.2690
11151TIP3    H254945  -0.041   6.585  15.837 -0.0366 -1.4792  1.1691
11152TIP3   OH254946   0.604   5.387   0.095  0.2003  0.2948 -0.0455
11152TIP3    H154947   0.696   5.392   0.121  0.1968 -1.0601  0.2803
11152TIP3    H254948   0.556   5.413   0.173  0.3059  2.3376 -0.6130
11153TIP3   OH254949   5.089   1.547  11.761  0.5078 -0.9118 -0.5215
11153TIP3    H154950   5.090   1.473  11.701 -0.8037 -1.0898 -0.3506
11153TIP3    H254951   5.163   1.532  11.820  1.8079 -0.7503 -2.0248
11154TIP3   OH254952   4.689   3.761   5.613 -0.1097 -0.4066 -0.2838
11154TIP3    H154953   4.710   3.846   5.653 -0.1589 -1.5159  2.2826
11154TIP3    H254954   4.774   3.718   5.605 -0.4057 -1.5913  2.1519
11155TIP3   OH254955   1.673   6.135  15.203  0.1965  0.0255  0.1807
11155TIP3    H154956   1.703   6.066  15.263  1.6858 -0.5924 -1.2023
11155TIP3    H254957   1.654   6.209  15.261  2.2982 -0.2992  1.4014
11156TIP3   OH254958   4.133   0.282   6.683 -0.4891  0.1400 -0.0709
11156TIP3    H154959   4.190   0.308   6.756 -0.0429  2.0564 -1.0405
11156TIP3    H254960   4.112   0.364   6.639 -2.9433 -0.6709 -0.5521
11157TIP3   OH254961   6.077   5.910   2.886 -0.3958  0.3522  0.0104
11157TIP3    H154962   6.122   5.959   2.955 -0.7692 -0.3001  0.7456
11157TIP3    H254963   6.008   5.861   2.933 -1.4962  0.8841 -1.0089
11158TIP3   OH254964   1.379   0.279  16.137  0.0358 -0.4875  0.3879
11158TIP3    H154965   1.379   0.186  16.117  1.1117 -0.3102 -0.5540
11158TIP3    H254966   1.442   0.289  16.209 -0.5446 -0.5551  0.9157
11159TIP3   OH254967   1.094   3.636  12.299  0.1825  0.1675  0.5562
11159TIP3    H154968   1.007   3.616  12.335 -0.0440 -0.2702 -0.2129
11159TIP3    H254969   1.085   3.619  12.205  1.5047 -1.3261  0.6641
11160TIP3   OH254970   0.436   4.335   3.220 -0.3887  0.1529 -0.3860
11160TIP3    H154971   0.370   4.354   3.287 -0.9344 -0.4886 -0.7277
11160TIP3    H254972   0.403   4.380   3.142 -0.7956 -0.7281 -0.7397
11161TIP3   OH254973   0.693   5.851   1.793 -0.0762 -0.0946  0.1791
11161TIP3    H154974   0.599   5.869   1.800  0.0597  0.3478  0.9384
11161TIP3    H254975   0.698   5.770   1.743 -1.0092 -1.7012  2.4926
11162TIP3   OH254976   4.596   2.952   1.328  0.2872  0.1430  0.4759
11162TIP3    H154977   4.656   2.902   1.274 -0.7804  0.0891 -0.7065
11162TIP3    H254978   4.532   2.888   1.359 -1.7692  0.8563 -1.9939
11163TIP3   OH254979   3.412   6.375   5.604  0.2861  0.0154  0.3443
11163TIP3    H154980   3.465   6.399   5.679 -0.2513 -1.8467  1.3798
11163TIP3    H254981   3.473   6.336   5.542  1.0366  3.0835 -1.0365
11164TIP3   OH254982   6.513   0.041  12.979  0.2031  0.2822  0.3453
11164TIP3    H154983   6.458   0.078  13.047  0.8409  1.3137  0.3269
11164TIP3    H254984   6.461  -0.030  12.942 -1.4309  1.6599 -0.1585
11165TIP3   OH254985   1.410   1.061  10.792 -0.1516  0.1598 -0.2532
11165TIP3    H154986   1.360   1.008  10.854 -0.8692 -0.3472 -1.2509
11165TIP3    H254987   1.488   1.088  10.842  1.2209 -3.3231 -0.1745
11166TIP3   OH254988   4.230   0.584   4.566 -0.5632  0.0213  0.1130
11166TIP3    H154989   4.148   0.535   4.561 -1.2066  1.0976 -0.1500
11166TIP3    H254990   4.288   0.528   4.617 -1.0525 -1.3133 -0.7402
11167TIP3   OH254991   5.976   3.592  15.795  0.0264 -0.4202 -0.5435
11167TIP3    H154992   5.955   3.602  15.702 -1.4256 -1.1858 -0.3197
11167TIP3    H254993   6.048   3.529  15.797  0.2822 -0.1530 -1.1594
11168TIP3   OH254994   6.109   2.735   0.665  0.0744 -0.0609  0.5746
11168TIP3    H154995   6.054   2.772   0.734 -0.2877  0.7685 -0.1396
11168TIP3    H254996   6.158   2.810   0.631  2.3168 -0.8960  1.7645
11169TIP3   OH254997   2.221   6.752   2.951 -0.3744  0.2272  0.0988
11169TIP3    H154998   2.233   6.792   2.865 -0.8000 -2.6174 -1.4033
11169TIP3    H254999   2.309   6.751   2.989 -0.0097  0.6984 -0.6917
11170TIP3   OH255000   2.514   0.532  12.505  0.6162 -0.3144  0.2965
11170TIP3    H155001   2.559   0.454  12.538 -1.3095 -1.1427  1.1010
11170TIP3    H255002   2.475   0.571  12.583  1.7996  1.6942 -0.0429
11171TIP3   OH255003   3.977   2.482  13.717  0.5309 -0.4496 -0.3495
11171TIP3    H155004   3.925   2.495  13.796  0.7041  0.8772 -0.4168
11171TIP3    H255005   4.027   2.402  13.733 -0.6901 -1.1242  0.1689
11172TIP3   OH255006   2.811   5.709  11.223 -0.2835 -0.3582  0.2137
11172TIP3    H155007   2.888   5.749  11.183 -0.9674  1.3551  0.5150
11172TIP3    H255008   2.771   5.659  11.152  0.9613 -1.0699 -0.0037
11173TIP3   OH255009   2.033   3.742  12.729  0.6555  0.7911 -0.1500
11173TIP3    H155010   2.018   3.774  12.640 -2.0716  1.2710  0.3834
11173TIP3    H255011   2.126   3.759  12.746  1.0016  1.5975 -2.5343
11174TIP3   OH255012   2.982   4.236  15.706 -0.3260 -0.6096 -0.5164
11174TIP3    H155013   2.890   4.254  15.727  0.5527  1.6187  1.9863
11174TIP3    H255014   3.005   4.303  15.641 -0.0397  0.0458  0.2397
11175TIP3   OH255015   2.096   3.886   5.607 -0.6061 -0.2350 -0.4088
11175TIP3    H155016   2.177   3.877   5.558  0.1317  1.9305  0.2992
11175TIP3    H255017   2.108   3.828   5.683 -0.0645 -0.5172 -0.7019
11176TIP3   OH255018   0.380   4.364  14.805 -0.9924  0.2619  0.3163
11176TIP3    H155019   0.372   4.360  14.710 -0.6123  1.4685  0.2223
11176TIP3    H255020   0.416   4.451  14.823  1.7431 -0.9886  1.3906
11177TIP3   OH255021   2.518   1.600   5.068 -0.0450  0.5301  0.2769
11177TIP3    H155022   2.466   1.669   5.110 -0.8142 -0.2486  0.6295
11177TIP3    H255023   2.602   1.601   5.115 -0.7880 -0.1312  1.6737
11178TIP3   OH255024   0.504   0.989  10.540  0.1974 -0.4697  0.6534
11178TIP3    H155025   0.528   1.073  10.500  2.6186 -1.7391 -0.7943
11178TIP3    H255026   0.448   0.947  10.476 -1.3311  0.1169  1.5423
11179TIP3   OH255027   0.698   5.341   2.449  0.3967 -0.5543  0.0224
11179TIP3    H155028   0.783   5.382   2.432 -0.1479  1.1918  1.2096
11179TIP3    H255029   0.690   5.273   2.382  4.2363 -3.2283  1.9008
11180TIP3   OH255030   5.281   5.768  14.127  0.3983  0.2536 -0.3551
11180TIP3    H155031   5.355   5.824  14.148  0.2103  0.2030  0.4825
11180TIP3    H255032   5.320   5.684  14.104  0.5811 -0.0093  0.8494
11181TIP3   OH255033   6.248   5.452  16.711  0.2423  0.8897  0.0641
11181TIP3    H155034   6.244   5.463  16.616  1.7600  0.4597 -0.0876
11181TIP3    H255035   6.169   5.493  16.744 -0.5987  0.5405 -1.4320
11182TIP3   OH255036   6.516   5.851  11.803 -1.2633  0.0160 -0.2001
11182TIP3    H155037   6.492   5.764  11.836 -1.5483  0.3259  0.4126
11182TIP3    H255038   6.469   5.912  11.860 -0.1577  0.5996  0.0949
11183TIP3   OH255039   1.113   5.952   5.231  0.0043 -0.5922  0.3394
11183TIP3    H155040   1.033   5.932   5.280  0.2659  0.6725  1.3479
11183TIP3    H255041   1.152   6.026   5.278  0.3991  0.5339 -1.6398
11184TIP3   OH255042   3.397   2.320  11.337 -0.2444  0.4896 -0.1719
11184TIP3    H155043   3.412   2.405  11.380 -1.4098  0.7120 -0.1769
11184TIP3    H255044   3.453   2.259  11.385  0.1242  1.1399  0.2429
11185TIP3   OH255045   6.333   4.521   4.893  0.0980 -0.2175 -0.9146
11185TIP3    H155046   6.382   4.552   4.817  0.1859  1.3136 -0.2667
11185TIP3    H255047   6.396   4.469   4.943  1.1403  1.7586 -0.0713
11186TIP3   OH255048   1.531   4.592  12.037 -0.4485  0.1085 -0.6950
11186TIP3    H155049   1.598   4.579  11.969 -0.2719 -0.6633 -0.3872
11186TIP3    H255050   1.556   4.673  12.081  0.7803 -0.5963 -0.0392
11187TIP3   OH255051   2.787   1.690  11.456 -0.7650  0.2763 -0.4306
11187TIP3    H155052   2.735   1.715  11.379 -0.6153 -0.5224 -0.7945
11187TIP3    H255053   2.725   1.647  11.514 -0.4937 -0.8186 -0.9328
11188TIP3   OH255054   5.968   0.556   0.573 -0.0352  0.4844  0.3476
11188TIP3    H155055   5.957   0.630   0.632 -2.0749 -0.0431  0.6993
11188TIP3    H255056   5.983   0.481   0.631  0.5768  0.3652  0.0516
11189TIP3   OH255057   1.885   6.069  16.166  0.2939  0.2559  0.3942
11189TIP3    H155058   1.944   5.995  16.151 -1.3628 -0.6306 -2.6337
11189TIP3    H255059   1.917   6.137  16.107 -0.9371  0.1749 -0.4092
11190TIP3   OH255060   1.386   4.699  13.968  0.4286 -0.2037 -0.2260
11190TIP3    H155061   1.449   4.718  14.037 -0.3982  0.5265  0.3414
11190TIP3    H255062   1.363   4.607  13.982  2.0742 -0.7779 -1.0432
11191TIP3   OH255063   6.229   4.547   1.496  0.5048  0.4115  0.1017
11191TIP3    H155064   6.212   4.608   1.424  0.4071  1.5830  1.0816
11191TIP3    H255065   6.229   4.602   1.574  0.3586 -0.8675  1.0330
11192TIP3   OH255066   3.028   0.387   4.098 -0.1171  0.4772  0.8282
11192TIP3    H155067   2.963   0.420   4.161 -1.2758  0.2560 -0.2233
11192TIP3    H255068   3.112   0.402   4.141 -0.8377  1.0961  2.0796
11193TIP3   OH255069   4.065   0.012   1.626 -0.3238 -0.0025  0.0519
11193TIP3    H155070   4.121  -0.061   1.600  0.5083  0.0399  1.6400
11193TIP3    H255071   4.123   0.088   1.624 -1.2198  0.6971 -1.7582
11194TIP3   OH255072   4.703   6.254  12.134  0.3032  0.2154 -0.5587
11194TIP3    H155073   4.631   6.281  12.077  1.0100  0.2577 -1.4638
11194TIP3    H255074   4.774   6.234  12.073  0.2723 -2.2938  0.1316
11195TIP3   OH255075   1.207   5.007  16.887 -0.4814 -0.0625 -0.7177
11195TIP3    H155076   1.299   4.996  16.862  0.4383  1.3524  1.6620
11195TIP3    H255077   1.197   4.954  16.966 -2.0339 -0.9799 -1.4797
11196TIP3   OH255078   2.053   5.464   0.017 -0.0953 -0.4024  0.1079
11196TIP3    H155079   2.121   5.523  -0.016 -0.1424 -0.4356 -0.0472
11196TIP3    H255080   2.003   5.439  -0.060 -0.9753  0.4989  0.3672
11197TIP3   OH255081   0.184   5.238   2.285 -0.0093  0.2398  0.3014
11197TIP3    H155082   0.236   5.318   2.291  0.1225  0.1585  0.2259
11197TIP3    H255083   0.145   5.229   2.373 -0.1728  0.4865  0.2575
11198TIP3   OH255084   2.865   2.321   2.210 -0.7519  0.1807  0.6288
11198TIP3    H155085   2.921   2.346   2.284  1.0508 -1.4783 -0.0904
11198TIP3    H255086   2.896   2.375   2.137  2.2518 -2.8348 -0.5854
11199TIP3   OH255087   0.424   4.108   1.594 -0.4729 -0.0185  0.2801
11199TIP3    H155088   0.409   4.188   1.542  0.3590 -0.4731 -0.6923
11199TIP3    H255089   0.511   4.120   1.631 -1.2327  0.5057  2.0132
11200TIP3   OH255090   5.305   5.410   5.915  0.4590 -0.4960  0.1722
11200TIP3    H155091   5.349   5.370   5.990 -0.7925 -0.9701  0.6764
11200TIP3    H255092   5.371   5.410   5.846  1.8091  0.3986  1.3909
11201TIP3   OH255093   1.674   1.415  14.570  0.3215 -0.0139  0.0382
11201TIP3    H155094   1.674   1.491  14.628 -1.0499 -0.1461  0.2495
11201TIP3    H255095   1.745   1.432  14.508 -0.9016  2.1956 -0.8633
11202TIP3   OH255096   6.091   1.664  16.725 -0.2151 -0.4416  0.3635
11202TIP3    H155097   6.062   1.628  16.809  0.6764  0.1583  0.9513
11202TIP3    H255098   6.039   1.744  16.715  0.5223  0.1258  0.9476
11203TIP3   OH255099   3.710   4.594  12.414  0.1044  0.2473  0.0593
11203TIP3    H155100   3.639   4.587  12.350  0.8883 -0.1353 -0.7966
11203TIP3    H255101   3.666   4.612  12.497 -1.0437 -0.8663 -0.2824
11204TIP3   OH255102   1.847   2.027   3.162 -0.0259 -0.1075  0.2983
11204TIP3    H155103   1.824   2.078   3.239 -0.2778 -0.3956  0.4147
11204TIP3    H255104   1.803   2.071   3.090  1.0723  0.7935  0.1495
11205TIP3   OH255105   4.567   0.144  13.585  0.4971  0.4392  0.3427
11205TIP3    H155106   4.656   0.128  13.555  1.4552  3.3885  1.2881
11205TIP3    H255107   4.575   0.162  13.678 -1.2209 -0.0231  0.6195
11206TIP3   OH255108   3.231   6.481  17.145  0.6234 -0.6435 -0.1532
11206TIP3    H155109   3.278   6.473  17.062  0.6931  1.4693 -0.3620
11206TIP3    H255110   3.149   6.523  17.122 -0.7884 -2.8939  0.4486
11207TIP3   OH255111   0.963   1.865   3.656  0.2060  0.1762  0.2312
11207TIP3    H155112   1.052   1.838   3.676  0.1761 -0.0532  0.0554
11207TIP3    H255113   0.969   1.905   3.570 -0.4256 -2.9504 -1.4063
11208TIP3   OH255114   0.015   1.882   5.821 -0.1052  0.5168  0.2980
11208TIP3    H155115  -0.007   1.897   5.913 -0.9518  2.8602 -0.2175
11208TIP3    H255116  -0.069   1.873   5.777  0.2465  0.8817 -0.4589
11209TIP3   OH255117   4.540   3.375  12.943  0.5018  0.6110  0.5764
11209TIP3    H155118   4.575   3.463  12.931 -2.5995  1.8911 -0.0788
11209TIP3    H255119   4.452   3.388  12.980 -0.1479 -2.1904  0.3117
11210TIP3   OH255120   3.366   0.222  13.539 -0.1547 -0.6520  0.1955
11210TIP3    H155121   3.359   0.295  13.601  0.7378 -0.0980 -0.3385
11210TIP3    H255122   3.300   0.240  13.473 -1.5659 -1.5834  1.2845
11211TIP3   OH255123   4.817   0.638   4.546 -0.0468 -0.3370  0.8758
11211TIP3    H155124   4.891   0.656   4.488 -0.6696  0.3252  0.2528
11211TIP3    H255125   4.845   0.564   4.599  1.0054 -0.1885  0.5590
11212TIP3   OH255126   4.398   1.103  16.470 -0.5294 -0.2441 -0.6310
11212TIP3    H155127   4.398   1.022  16.419  2.3994 -1.0150  0.3527
11212TIP3    H255128   4.454   1.083  16.546 -0.6098  2.3699  0.2136
11213TIP3   OH255129   2.006   4.362  12.776 -0.7636  0.3094 -0.0191
11213TIP3    H155130   1.996   4.335  12.867  1.2421  0.5804  0.3167
11213TIP3    H255131   2.039   4.452  12.780 -3.1758  1.3390 -1.0840
11214TIP3   OH255132   2.149   1.781  11.138 -0.0086  0.1883  0.1889
11214TIP3    H155133   2.214   1.846  11.110 -1.5511  1.9951  0.5376
11214TIP3    H255134   2.071   1.802  11.086 -0.7905 -0.9046  0.8800
11215TIP3   OH255135   6.522   4.802  13.224 -0.2251  0.0773 -0.5397
11215TIP3    H155136   6.513   4.852  13.305 -0.4777 -1.1772  0.2374
11215TIP3    H255137   6.434   4.800  13.187 -0.3418 -0.3063 -0.2478
11216TIP3   OH255138   0.042   0.610  11.974 -0.3160  0.7487  0.2243
11216TIP3    H155139   0.028   0.584  12.065  0.0004  0.6498  0.2482
11216TIP3    H255140   0.133   0.584  11.956  0.1070  2.0388  0.3261
11217TIP3   OH255141   1.591   3.269  13.720 -0.3196  0.1454  0.0006
11217TIP3    H155142   1.583   3.238  13.630  0.1878 -0.2090  0.0746
11217TIP3    H255143   1.511   3.238  13.763  0.2358 -1.2204  0.1120
11218TIP3   OH255144   4.988   6.512  14.667  0.1497 -0.3323 -0.4347
11218TIP3    H155145   4.895   6.532  14.677 -0.0652 -1.0388 -0.9330
11218TIP3    H255146   5.030   6.598  14.658 -0.0431  0.2150  2.7347
11219TIP3   OH255147   4.365   5.217   0.080  0.0394 -0.0882 -0.5880
11219TIP3    H155148   4.365   5.168   0.163 -0.5081 -0.2349 -0.6691
11219TIP3    H255149   4.273   5.225   0.058  0.1265  0.8482 -0.6612
11220TIP3   OH255150   5.282   3.413   5.175  0.0193 -0.9454  0.3981
11220TIP3    H155151   5.321   3.500   5.171 -0.1109 -0.8946  0.2324
11220TIP3    H255152   5.302   3.381   5.263  1.8106 -1.5462 -0.1840
11221TIP3   OH255153   4.782   1.254   4.239 -0.1864  0.3145 -0.8979
11221TIP3    H155154   4.700   1.224   4.278 -0.2750 -0.7807 -1.8891
11221TIP3    H255155   4.805   1.187   4.175  1.0949  0.9829 -1.1802
11222TIP3   OH255156   1.956   4.447  12.160  0.1625  0.0420 -0.3501
11222TIP3    H155157   2.003   4.494  12.092  3.8232 -1.0043  1.2124
11222TIP3    H255158   1.974   4.496  12.240 -0.0509 -1.2954  0.5597
11223TIP3   OH255159   6.684   3.295  14.783  0.0588  0.2319  0.3967
11223TIP3    H155160   6.711   3.384  14.804  1.4132 -0.1235  0.2589
11223TIP3    H255161   6.644   3.262  14.864 -0.9113  1.1132  0.2931
11224TIP3   OH255162   4.392   0.832  12.062  0.3334  0.3778  0.6141
11224TIP3    H155163   4.425   0.760  12.117  1.7605 -0.9622 -1.8362
11224TIP3    H255164   4.300   0.840  12.086 -0.2141 -3.1236  0.1775
11225TIP3   OH255165   2.858   1.278   3.486 -0.2241  0.4445  0.2030
11225TIP3    H155166   2.936   1.322   3.453  0.0242  0.3219  0.6130
11225TIP3    H255167   2.795   1.283   3.414  0.2196  0.3964 -0.1961
11226TIP3   OH255168   3.867   4.530  15.467 -0.5771  0.4348 -0.2005
11226TIP3    H155169   3.884   4.581  15.387 -0.4085  0.9054  0.1326
11226TIP3    H255170   3.908   4.581  15.537  1.0744 -0.9968 -0.0768
11227TIP3   OH255171   1.181   0.469  16.215  0.0562 -0.1776  0.6700
11227TIP3    H155172   1.253   0.518  16.255  0.4024  0.1681 -0.3499
11227TIP3    H255173   1.221   0.388  16.184  0.0934  0.1530 -0.1849
11228TIP3   OH255174   6.337   4.862   2.847 -0.7465 -0.2058 -0.0041
11228TIP3    H155175   6.344   4.792   2.911 -0.1900  1.0315  1.3479
11228TIP3    H255176   6.353   4.942   2.897 -5.8397  1.4465 -0.4587
11229TIP3   OH255177   0.808   2.911   0.404 -0.1986  0.8637 -0.5489
11229TIP3    H155178   0.903   2.904   0.402 -0.2273  0.3145 -2.9077
11229TIP3    H255179   0.789   2.992   0.357 -0.9063 -0.1458 -2.1013
11230TIP3   OH255180   6.558   1.741   0.971  0.4187 -0.0368  0.2712
11230TIP3    H155181   6.579   1.834   0.975  1.5082 -0.2770  0.8765
11230TIP3    H255182   6.580   1.709   1.059  0.3698 -0.9137 -0.0303
11231TIP3   OH255183   3.194   4.989   0.289 -0.3187  0.0488 -0.6317
11231TIP3    H155184   3.103   4.958   0.291  0.1700 -1.6220 -2.0232
11231TIP3    H255185   3.213   5.000   0.196  1.3863 -1.1487 -0.4596
11232TIP3   OH255186   5.650   6.115   3.877  0.5954 -0.4351 -0.1831
11232TIP3    H155187   5.659   6.205   3.910 -0.0298  0.0032 -1.1600
11232TIP3    H255188   5.679   6.060   3.950 -1.3084  0.4596  1.3635
11233TIP3   OH255189   5.349   3.616   0.381  0.5008  0.5819  0.1927
11233TIP3    H155190   5.376   3.701   0.415 -3.0851  1.6847  0.7028
11233TIP3    H255191   5.331   3.564   0.459 -0.5650  0.5821 -0.0270
11234TIP3   OH255192   5.781   3.018  16.181 -0.0405 -0.1811  0.0902
11234TIP3    H155193   5.729   3.081  16.132 -0.8321 -0.3692  0.6771
11234TIP3    H255194   5.797   3.060  16.265  0.6063 -0.2033 -0.0160
11235TIP3   OH255195   1.921   4.340  14.555 -0.0855 -0.2810 -0.7685
11235TIP3    H155196   1.983   4.385  14.498  0.2983  0.5791  0.3011
11235TIP3    H255197   1.835   4.366  14.521  0.1345  0.7431 -0.5811
11236TIP3   OH255198   1.016   0.424   2.050 -0.6601 -0.1233  0.0197
11236TIP3    H155199   1.016   0.354   2.114  0.2415 -0.5596 -0.4427
11236TIP3    H255200   1.097   0.473   2.066 -1.8600  1.5940  1.1474
11237TIP3   OH255201   4.977   4.916   0.319 -0.4306 -0.4378 -0.4240
11237TIP3    H155202   5.049   4.968   0.354 -1.2346  0.1196  0.4148
11237TIP3    H255203   5.010   4.826   0.321  0.6633 -0.0750 -1.1337
11238TIP3   OH255204   3.309   2.077  12.879  0.3035  1.1296  0.6637
11238TIP3    H155205   3.255   2.135  12.825 -0.2710 -0.6886 -0.7999
11238TIP3    H255206   3.307   2.117  12.966 -2.0805  2.0100  0.2829
11239TIP3   OH255207   5.012   6.600   3.518 -0.2090 -0.4493 -0.5432
11239TIP3    H155208   4.971   6.633   3.438 -1.2008  0.0149  0.1491
11239TIP3    H255209   5.097   6.567   3.488 -0.9666 -1.2302 -1.9626
11240TIP3   OH255210   3.346   0.639   5.194 -0.8014  0.3210 -0.1035
11240TIP3    H155211   3.363   0.618   5.286 -0.6205  0.9572  0.0126
11240TIP3    H255212   3.431   0.666   5.160 -0.4743 -1.5542 -0.9331
11241TIP3   OH255213   2.976   5.482   2.419  0.3385 -0.2884 -0.2912
11241TIP3    H155214   2.903   5.424   2.439  0.3025 -0.3751 -0.6710
11241TIP3    H255215   2.948   5.568   2.451 -0.1222 -0.2252 -0.8359
11242TIP3   OH255216   2.530   3.707   4.536  0.2581 -0.3803  0.8048
11242TIP3    H155217   2.611   3.700   4.486 -0.7822 -0.0877 -1.0083
11242TIP3    H255218   2.496   3.618   4.541  1.8936 -0.9762  3.8401
11243TIP3   OH255219   1.966   5.422   1.666  0.0840 -0.3826 -0.0732
11243TIP3    H155220   2.044   5.394   1.618 -1.7317 -0.6462 -3.1440
11243TIP3    H255221   1.976   5.517   1.675  0.6577 -0.3867 -0.6170
11244TIP3   OH255222   5.354   3.931  16.359  0.9264 -0.4800 -0.2601
11244TIP3    H155223   5.420   3.914  16.426  0.3862 -0.9263  0.1656
11244TIP3    H255224   5.272   3.903  16.399  0.2391  1.4279 -0.2008
11245TIP3   OH255225   2.180   2.524   5.530  0.3352 -0.0725  0.0293
11245TIP3    H155226   2.161   2.555   5.619  1.0513 -1.1982  0.5960
11245TIP3    H255227   2.276   2.523   5.525  0.3288 -1.6195 -0.1597
11246TIP3   OH255228   2.447   6.343   6.572 -0.1267 -0.0612  0.2742
11246TIP3    H155229   2.429   6.258   6.533 -1.1346  1.0493 -1.9021
11246TIP3    H255230   2.538   6.362   6.548  0.5472 -1.0494  1.9209
11247TIP3   OH255231   2.678   4.224   1.350 -0.0540 -0.1630  0.1424
11247TIP3    H155232   2.624   4.282   1.296  0.1360  0.4558  0.6067
11247TIP3    H255233   2.617   4.156   1.380 -0.1292 -0.6080 -0.9563
11248TIP3   OH255234   0.628   1.362  10.822  0.1425 -0.0065  0.8676
11248TIP3    H155235   0.541   1.369  10.860 -0.2749  0.2847 -0.1075
11248TIP3    H255236   0.653   1.453  10.802 -0.0348 -0.1997 -0.3500
11249TIP3   OH255237   5.571   0.034   1.523 -0.4512 -0.4672  0.2830
11249TIP3    H155238   5.501  -0.029   1.540 -1.3691  0.4291 -0.0511
11249TIP3    H255239   5.620  -0.004   1.450 -1.2773 -0.5955 -0.2201
11250TIP3   OH255240   2.122   1.701   1.368 -0.2135 -0.3522 -0.0547
11250TIP3    H155241   2.085   1.701   1.279  0.5014  0.2476 -0.3604
11250TIP3    H255242   2.182   1.775   1.369 -0.5658 -0.0646  1.0911
11251TIP3   OH255243   2.839   3.462   5.307 -0.1799 -0.4778 -0.2405
11251TIP3    H155244   2.772   3.495   5.248 -0.0860 -0.4590 -0.3374
11251TIP3    H255245   2.836   3.520   5.383  0.3007  0.0395 -0.6094
11252TIP3   OH255246   4.461   1.764   3.688 -0.1216  0.3234  0.2494
11252TIP3    H155247   4.473   1.844   3.636 -1.3017  0.3194 -0.0695
11252TIP3    H255248   4.540   1.758   3.741  0.1414  1.5239  0.0331
11253TIP3   OH255249   2.806   5.830  11.787 -0.0545 -0.2632 -0.6403
11253TIP3    H155250   2.802   5.902  11.724 -0.2330  0.6402  0.3716
11253TIP3    H255251   2.725   5.839  11.839 -0.6353 -1.8704 -1.1959
11254TIP3   OH255252   1.902   1.649  16.062  0.4869  0.2724 -0.0862
11254TIP3    H155253   1.997   1.651  16.051  0.2825 -0.4100 -2.5675
11254TIP3    H255254   1.867   1.676  15.977 -1.4928 -3.6705 -0.7578
11255TIP3   OH255255   2.464   3.869  15.891 -0.3547  1.0349  0.2509
11255TIP3    H155256   2.411   3.891  15.967 -2.0273  0.1878 -0.6048
11255TIP3    H255257   2.529   3.939  15.886 -1.4903  2.2182  1.2811
11256TIP3   OH255258   3.620   0.353   2.833 -0.4985  0.1112 -0.0350
11256TIP3    H155259   3.619   0.392   2.920  0.1627  1.0712 -0.4380
11256TIP3    H255260   3.638   0.260   2.847 -0.5744  0.2277  0.8482
11257TIP3   OH255261   2.076   6.521  17.123  0.4793  0.2684  0.0606
11257TIP3    H155262   2.088   6.443  17.069  1.1329  0.3330  0.1008
11257TIP3    H255263   2.044   6.487  17.207 -0.0275  0.1218 -0.1888
11258TIP3   OH255264   3.172   2.803   5.897  0.4363 -0.0052  0.2231
11258TIP3    H155265   3.175   2.752   5.817 -0.1923  0.8740 -0.3791
11258TIP3    H255266   3.126   2.748   5.960  1.7732 -1.0892  0.2919
11259TIP3   OH255267   3.004   6.629   3.938  0.1863  0.4577  0.5828
11259TIP3    H155268   2.987   6.570   3.865  0.6114  0.9809  0.0560
11259TIP3    H255269   2.917   6.655   3.969  0.0065  0.7692 -0.1752
11260TIP3   OH255270   5.169   3.387  14.649 -0.2319 -0.2889 -0.6295
11260TIP3    H155271   5.142   3.365  14.560  1.8628 -0.6318 -1.2431
11260TIP3    H255272   5.182   3.302  14.691 -0.4718 -0.1344 -0.2455
11261TIP3   OH255273   1.128   4.627  10.793  0.3360  1.1189  0.1947
11261TIP3    H155274   1.068   4.565  10.834 -1.3485  0.9992 -2.2564
11261TIP3    H255275   1.155   4.584  10.711 -1.4229  3.7633 -1.9410
11262TIP3   OH255276   3.897   3.805  11.989 -0.0782 -0.1726 -0.4394
11262TIP3    H155277   3.874   3.875  11.928 -0.6513 -0.9406 -1.1354
11262TIP3    H255278   3.924   3.733  11.932  0.9888 -0.3506  0.2791
11263TIP3   OH255279   1.352   3.263  16.372  0.1761  0.1125 -0.3436
11263TIP3    H155280   1.428   3.259  16.430  0.3490 -1.5097 -0.6259
11263TIP3    H255281   1.360   3.186  16.316 -1.3223  0.2678 -0.8334
11264TIP3   OH255282   5.777   1.104   4.342  0.0725  0.2856  0.2243
11264TIP3    H155283   5.842   1.087   4.410 -1.1045 -0.7081  1.1615
11264TIP3    H255284   5.824   1.091   4.260  0.8485 -1.3524  0.8787
11265TIP3   OH255285   6.132   0.212  11.074  0.6146  0.2442  0.0661
11265TIP3    H155286   6.076   0.160  11.016  0.2098 -0.9592  1.4641
11265TIP3    H255287   6.189   0.261  11.015  1.9990 -2.8375 -1.3986
11266TIP3   OH255288   5.465   2.179  16.663  0.1017 -0.3750 -0.0319
11266TIP3    H155289   5.386   2.185  16.717  0.0811  0.0942 -0.1039
11266TIP3    H255290   5.536   2.200  16.724  0.1454 -0.5214 -0.0315
11267TIP3   OH255291   3.997   5.885  16.650 -0.1658  0.9727  0.0391
11267TIP3    H155292   4.084   5.896  16.613 -0.2942  0.2696 -0.4746
11267TIP3    H255293   3.996   5.796  16.686 -0.6831  0.9578  0.0046
11268TIP3   OH255294   1.784   2.049  12.898 -0.4048 -0.3902 -0.2027
11268TIP3    H155295   1.820   2.126  12.942  0.6606 -0.3941 -1.0451
11268TIP3    H255296   1.697   2.077  12.869 -0.0569  0.4721 -0.4397
11269TIP3   OH255297   1.147   1.621   0.207 -0.7174  0.2474  0.5595
11269TIP3    H155298   1.100   1.686   0.154 -0.8378  1.6777  2.3287
11269TIP3    H255299   1.236   1.623   0.172 -0.7509  1.2966  0.4871
11270TIP3   OH255300   5.165   0.479   5.644 -0.0855 -0.3009  0.3079
11270TIP3    H155301   5.079   0.445   5.666 -0.5502  1.5305  1.5034
11270TIP3    H255302   5.203   0.506   5.728  0.7428  0.9602 -0.4348
11271TIP3   OH255303   3.876   5.156   3.600  0.3773  0.0402 -0.6866
11271TIP3    H155304   3.937   5.179   3.530  2.3092  1.7787  1.4135
11271TIP3    H255305   3.804   5.112   3.555  1.5232  0.9994 -3.7373
11272TIP3   OH255306   3.342   0.894  13.872  0.0571  0.0215 -0.0249
11272TIP3    H155307   3.346   0.918  13.965  0.2910  0.4259 -0.1374
11272TIP3    H255308   3.346   0.978  13.826 -1.7301 -0.0517 -0.3636
11273TIP3   OH255309   3.083   1.018  13.879 -0.2389 -0.3208  0.4359
11273TIP3    H155310   3.012   1.040  13.819  0.2961  0.1098 -0.0521
11273TIP3    H255311   3.068   0.926  13.902  0.7523 -1.2063 -2.0879
11274TIP3   OH255312   0.949   3.801  13.090  0.0881 -0.0876  0.2905
11274TIP3    H155313   0.991   3.773  13.009  0.7350  1.6159 -0.0007
11274TIP3    H255314   0.855   3.797  13.070  0.2119 -0.5342 -0.2386
11275TIP3   OH255315   3.551   3.752   1.622  0.0655  0.0696 -0.5413
11275TIP3    H155316   3.511   3.839   1.622  0.9759  0.5138  0.3654
11275TIP3    H255317   3.520   3.711   1.703 -2.6404 -1.5955 -2.2949
11276TIP3   OH255318   3.031   4.749  14.659 -0.4889  0.5492  0.6419
11276TIP3    H155319   2.997   4.809  14.593  0.1057 -0.4330 -0.5810
11276TIP3    H255320   3.055   4.806  14.733  0.1863  1.8336 -0.5210
11277TIP3   OH255321   2.724   3.777  11.686 -0.0097  0.2897  0.1734
11277TIP3    H155322   2.721   3.698  11.632  1.6476  0.3651 -0.1020
11277TIP3    H255323   2.803   3.767  11.739  1.2682  2.5062 -1.1456
11278TIP3   OH255324   3.497   4.088   4.875 -0.4334 -0.6237  0.1998
11278TIP3    H155325   3.446   4.155   4.828 -0.5706 -0.8644  0.0057
11278TIP3    H255326   3.486   4.009   4.823  0.2702 -0.6374  0.0709
11279TIP3   OH255327   2.703   5.564  12.950  0.2372  0.4935 -0.1493
11279TIP3    H155328   2.645   5.638  12.967 -1.7747 -1.1544  0.6219
11279TIP3    H255329   2.709   5.518  13.034  0.7477 -0.6807 -0.8014
11280TIP3   OH255330   2.957   2.287   0.570  0.0894  1.1011 -0.3813
11280TIP3    H155331   2.887   2.226   0.548  0.8714  0.1300 -0.2458
11280TIP3    H255332   2.965   2.344   0.493  0.2892  0.1311 -1.0896
11281TIP3   OH255333   3.719   5.052  12.842  0.6220  0.6460 -0.0832
11281TIP3    H155334   3.664   5.033  12.767  0.8158  0.8170 -0.2679
11281TIP3    H255335   3.786   5.112  12.810  0.7408  0.6772  0.2099
11282TIP3   OH255336   0.169   4.806   5.041  0.3473 -0.1514 -0.4971
11282TIP3    H155337   0.165   4.712   5.023  0.7182 -0.2471 -0.1001
11282TIP3    H255338   0.157   4.847   4.956 -3.6122 -0.4436 -0.2936
11283TIP3   OH255339   1.606   5.513   3.677 -0.3351 -0.2941  0.3645
11283TIP3    H155340   1.631   5.423   3.655 -0.6288 -0.2551 -0.1555
11283TIP3    H255341   1.510   5.511   3.676 -0.3522 -0.1909  1.2642
11284TIP3   OH255342   3.176   2.322  15.274 -0.1398 -0.2284  0.4180
11284TIP3    H155343   3.177   2.407  15.230 -1.4649 -1.0083 -1.1945
11284TIP3    H255344   3.113   2.333  15.345 -0.1481  0.1780  0.3524
11285TIP3   OH255345   0.498   2.810  16.357  0.5013  0.0715 -0.4774
11285TIP3    H155346   0.485   2.784  16.448  0.3916 -3.1146 -1.2709
11285TIP3    H255347   0.418   2.857  16.334 -0.6878 -1.4020  0.3938
11286TIP3   OH255348   6.416   6.791   5.512 -0.2656 -0.2645  0.1645
11286TIP3    H155349   6.373   6.724   5.459 -2.1063  0.9097  0.1283
11286TIP3    H255350   6.385   6.775   5.601 -0.7295  0.5481  0.1529
11287TIP3   OH255351   5.573   0.228   2.869 -0.2632  0.3554 -0.1597
11287TIP3    H155352   5.606   0.142   2.897 -1.1132  0.1553  0.2426
11287TIP3    H255353   5.593   0.286   2.942 -0.6411  0.2687  0.0155
11288TIP3   OH255354   0.104   4.062  14.330 -0.2135 -0.0902  0.3954
11288TIP3    H155355   0.154   4.141  14.313 -0.8422  0.3871  0.7234
11288TIP3    H255356   0.139   4.028  14.412 -0.4496  0.2651  0.6466
11289TIP3   OH255357   4.997   5.888   3.260  0.6811  0.4691  0.4074
11289TIP3    H155358   4.953   5.825   3.203  1.0872  1.3431 -0.9304
11289TIP3    H255359   4.972   5.863   3.349 -0.8939 -0.2625 -0.2144
11290TIP3   OH255360   6.335   2.950  11.335  0.1230 -0.6160  0.2256
11290TIP3    H155361   6.369   2.975  11.420 -1.5937  2.6684  0.1419
11290TIP3    H255362   6.405   2.971  11.273 -0.0372  0.8748  0.5179
11291TIP3   OH255363   3.101   4.404  13.339 -0.0639 -0.3093 -0.1398
11291TIP3    H155364   3.151   4.400  13.421  0.9056  0.1582 -0.6967
11291TIP3    H255365   3.049   4.484  13.347  1.8311  1.0806 -0.9516
11292TIP3   OH255366   3.836   5.069  15.022 -0.5680  0.1647  0.7115
11292TIP3    H155367   3.745   5.057  14.994 -0.1968  0.0490 -0.5157
11292TIP3    H255368   3.882   4.993  14.987 -0.1753 -0.3216  2.2318
11293TIP3   OH255369   5.860   4.494  11.620  0.5718 -0.4486  0.4237
11293TIP3    H155370   5.765   4.490  11.610  0.6547  0.1169 -0.7516
11293TIP3    H255371   5.894   4.468  11.535  1.5293 -2.0894  1.2543
11294TIP3   OH255372   6.595   2.035  16.590 -0.1065  0.1304  0.3269
11294TIP3    H155373   6.646   2.027  16.671 -0.9299 -0.3949  0.8076
11294TIP3    H255374   6.660   2.025  16.520  0.5990  0.4790  0.9176
11295TIP3   OH255375   3.757   2.278   2.262 -0.2112 -0.3781 -0.4067
11295TIP3    H155376   3.723   2.328   2.337 -3.7306 -0.7745 -1.5530
11295TIP3    H255377   3.785   2.345   2.199  1.6025 -0.0372  0.6942
11296TIP3   OH255378   2.806   6.538   1.633  0.2127 -0.1416 -0.2190
11296TIP3    H155379   2.854   6.473   1.582  1.4455  0.1090  0.5847
11296TIP3    H255380   2.739   6.570   1.574 -0.1591 -1.8292 -0.7859
11297TIP3   OH255381   0.079   5.108   6.462  0.0649  0.1579 -0.2769
11297TIP3    H155382  -0.003   5.059   6.468  0.5136 -0.6664 -0.5848
11297TIP3    H255383   0.065   5.186   6.515  0.2889 -1.6403  2.6300
11298TIP3   OH255384   1.332   1.332  14.846 -0.4186  0.1674 -0.5298
11298TIP3    H155385   1.317   1.244  14.811  1.5075 -0.0550 -0.9210
11298TIP3    H255386   1.280   1.335  14.926 -0.9483 -1.1363 -0.7963
11299TIP3   OH255387   3.475   2.991  15.107  0.1297 -0.1165 -0.3783
11299TIP3    H155388   3.495   3.064  15.166  1.8806 -2.0385  1.5812
11299TIP3    H255389   3.397   3.019  15.059  0.1373  2.5873  1.0418
11300TIP3   OH255390   3.865   0.047  16.277 -0.1938 -0.1452  0.1129
11300TIP3    H155391   3.916   0.043  16.196  1.1880  0.6113  0.9049
11300TIP3    H255392   3.922   0.091  16.340 -1.6264  0.2403  1.2195
11301TIP3   OH255393   2.103   2.845  13.320  0.2513  0.0068  0.0579
11301TIP3    H155394   2.019   2.804  13.300  0.1561  0.7895 -1.3005
11301TIP3    H255395   2.083   2.908  13.389  0.5326 -2.5744  2.7111
11302TIP3   OH255396   0.700   2.198  16.682  0.6469  0.3041 -0.1194
11302TIP3    H155397   0.647   2.210  16.761  0.2794 -0.3491 -0.2543
11302TIP3    H255398   0.747   2.280  16.671  1.8722 -0.1203  1.6231
11303TIP3   OH255399   2.833   0.147  14.929  0.2230 -0.1430 -0.0517
11303TIP3    H155400   2.780   0.216  14.968 -1.4188 -1.7368  0.6903
11303TIP3    H255401   2.804   0.143  14.837  0.3254  0.1622 -0.0959
11304TIP3   OH255402   1.286   4.174   0.434 -0.2123  0.3250  0.0594
11304TIP3    H155403   1.234   4.242   0.478 -1.1161 -1.9507  2.7855
11304TIP3    H255404   1.307   4.111   0.503  2.9635 -0.8414 -1.7497
11305TIP3   OH255405   6.182   0.838  16.581 -0.4870 -0.3188 -0.6459
11305TIP3    H155406   6.142   0.924  16.568  1.4883  0.8649  0.5823
11305TIP3    H255407   6.258   0.838  16.523  0.7194 -0.3580  0.8742
11306TIP3   OH255408   5.905   3.517  12.792  0.2453 -0.6180 -0.6754
11306TIP3    H155409   5.870   3.430  12.814  1.9723 -1.5346 -1.2851
11306TIP3    H255410   5.961   3.539  12.866 -0.0888 -0.0703 -0.5848
11307TIP3   OH255411   3.958   3.917   2.932 -0.1755  0.0151  0.7837
11307TIP3    H155412   3.969   4.007   2.901  0.3875 -0.1582  0.4613
11307TIP3    H255413   3.873   3.890   2.899  0.4456 -0.2008 -0.7372
11308TIP3   OH255414   2.795   4.351  16.660  0.4900 -0.3760  0.5340
11308TIP3    H155415   2.806   4.443  16.637  4.0963 -0.2752  2.0916
11308TIP3    H255416   2.731   4.318  16.596  0.3829  2.7346 -1.1683
11309TIP3   OH255417   6.581   1.512   5.490  0.5834  0.2996 -0.5022
11309TIP3    H155418   6.491   1.544   5.484  0.5693  0.2467 -0.5851
11309TIP3    H255419   6.634   1.590   5.502  0.2242  0.1671  3.4012
11310TIP3   OH255420   0.474   6.226   1.869  0.1333 -0.5242 -0.2394
11310TIP3    H155421   0.388   6.267   1.871  0.6262  0.5714  1.9700
11310TIP3    H255422   0.500   6.229   1.777 -1.2322  1.1985 -0.6151
11311TIP3   OH255423   5.061   0.255  11.697 -0.3303  0.1279  0.3240
11311TIP3    H155424   5.020   0.325  11.646 -3.2134 -0.4778  1.6101
11311TIP3    H255425   5.046   0.176  11.645 -1.5956 -0.2205  1.1933
11312TIP3   OH255426   4.173   1.656   0.724 -0.0685 -0.3370 -0.1340
11312TIP3    H155427   4.138   1.657   0.635  0.2779 -0.3665 -0.2737
11312TIP3    H255428   4.191   1.749   0.743 -2.5084  0.0005  0.8705
11313TIP3   OH255429   0.793   2.442   0.943  0.0844  0.7459 -0.0119
11313TIP3    H155430   0.710   2.441   0.896  0.0704  1.0181  0.0073
11313TIP3    H255431   0.776   2.391   1.023  0.0736  0.3905 -0.2377
11314TIP3   OH255432   2.493   2.261  13.761 -0.1877  0.6454 -0.1763
11314TIP3    H155433   2.550   2.230  13.832 -0.8211 -0.9138 -0.2917
11314TIP3    H255434   2.421   2.306  13.805 -0.2933  0.1623  0.1523
11315TIP3   OH255435   5.832   1.159  11.473  0.1480 -0.4991  0.1573
11315TIP3    H155436   5.874   1.229  11.522 -1.4751  0.6073  0.0257
11315TIP3    H255437   5.846   1.182  11.381 -0.3776 -0.3502  0.1137
11316TIP3   OH255438   1.728   4.879   4.161  0.8604  0.5891  0.0536
11316TIP3    H155439   1.822   4.894   4.161  1.0588  0.1917 -3.1477
11316TIP3    H255440   1.691   4.959   4.124 -0.1449  0.8633  1.5569
11317TIP3   OH255441   6.181   3.926  11.516 -0.0941  0.0069 -0.6108
11317TIP3    H155442   6.260   3.937  11.463 -0.1491 -1.6194 -1.0676
11317TIP3    H255443   6.151   3.837  11.497 -0.9253 -0.1107  1.0707
11318TIP3   OH255444   4.779   4.662   6.034 -0.1640  0.3381 -0.1486
11318TIP3    H155445   4.700   4.653   5.980 -0.6389 -0.1782  0.6167
11318TIP3    H255446   4.749   4.708   6.112  0.4064  0.5741 -0.0621
11319TIP3   OH255447   6.246   0.513   4.829 -0.0467  0.1614 -0.0450
11319TIP3    H155448   6.165   0.560   4.848 -0.3902 -0.2368 -0.5137
11319TIP3    H255449   6.290   0.569   4.764 -0.8818 -0.5888 -1.2963
11320TIP3   OH255450   6.579   0.538  12.421 -1.0827  0.5602  0.2437
11320TIP3    H155451   6.532   0.616  12.392 -1.8244 -0.0999 -0.3962
11320TIP3    H255452   6.667   0.569  12.441 -1.3736  1.5644  0.0474
11321TIP3   OH255453   2.598   2.376   3.751  0.4435 -0.2313  0.2140
11321TIP3    H155454   2.521   2.400   3.699  1.0057 -0.8153 -0.9393
11321TIP3    H255455   2.667   2.360   3.686  0.7491 -2.5729  0.9920
11322TIP3   OH255456   2.395   2.792  14.879 -0.5458  0.0623  0.1694
11322TIP3    H155457   2.354   2.859  14.824  0.6361  0.6000 -0.0935
11322TIP3    H255458   2.471   2.836  14.917 -1.9221  0.0454  3.1297
11323TIP3   OH255459   4.805   2.860   4.500  0.2605  0.1004  0.4921
11323TIP3    H155460   4.743   2.933   4.491 -0.3712 -0.5436 -0.6789
11323TIP3    H255461   4.752   2.782   4.484  0.8292 -0.6671  2.1551
11324TIP3   OH255462   5.839   5.073  16.641  0.2160  0.3924  0.6667
11324TIP3    H155463   5.829   4.988  16.599 -0.0792  1.5056 -1.6882
11324TIP3    H255464   5.916   5.063  16.697 -0.1968 -1.5834  0.9442
11325TIP3   OH255465   4.530   0.694   0.933  0.2708 -0.3995  0.8489
11325TIP3    H155466   4.469   0.641   0.882  0.5407 -1.8312  1.9646
11325TIP3    H255467   4.479   0.771   0.959 -0.7885 -1.1450  1.0096
11326TIP3   OH255468   4.118   1.918   5.728  0.0818 -0.4642  0.3036
11326TIP3    H155469   4.124   1.876   5.814 -1.0428 -1.1183  0.0780
11326TIP3    H255470   4.024   1.925   5.711  0.2817 -0.9592 -1.1665
11327TIP3   OH255471   0.830   4.029  13.901  0.0521  0.5553 -0.5254
11327TIP3    H155472   0.901   4.030  13.964 -1.4014 -1.4091  1.2731
11327TIP3    H255473   0.778   4.107  13.922  0.2948  0.6231 -0.1744
11328TIP3   OH255474   0.269   3.307  14.073 -0.2491  0.0634  0.3256
11328TIP3    H155475   0.262   3.401  14.054 -0.4366 -0.0727 -0.2787
11328TIP3    H255476   0.179   3.278  14.084 -0.1513  0.1435  1.4819
11329TIP3   OH255477   1.163   3.866  11.995 -0.6236  0.3265  0.2796
11329TIP3    H155478   1.178   3.928  12.067  0.1538  0.7446 -0.2261
11329TIP3    H255479   1.068   3.852  11.994 -0.4661 -2.2185  3.4621
11330TIP3   OH255480   6.695   1.991  14.962  0.3842  0.2004  0.8317
11330TIP3    H155481   6.698   1.895  14.964  3.3616  0.2042  1.4430
11330TIP3    H255482   6.681   2.013  14.870  0.3029 -0.8321  0.5871
11331TIP3   OH255483   3.573   2.984   3.329  0.7644  0.7373  0.1135
11331TIP3    H155484   3.661   2.975   3.293 -0.3600 -0.5144 -2.5951
11331TIP3    H255485   3.539   3.064   3.290  0.6676  1.2039  1.1291
11332TIP3   OH255486   4.228   1.242   1.833 -0.2653  0.0513  0.4678
11332TIP3    H155487   4.290   1.235   1.906  0.0176 -2.9087  0.0576
11332TIP3    H255488   4.177   1.161   1.838 -2.3780  1.2248 -0.7880
11333TIP3   OH255489   1.258   1.082   3.565 -0.1753 -0.5682 -0.1638
11333TIP3    H155490   1.192   1.083   3.495  0.4626  1.4137 -0.7993
11333TIP3    H255491   1.304   0.999   3.553 -0.3371 -0.4456 -1.8707
11334TIP3   OH255492   6.266   3.616   1.118  0.4710  0.4437  0.7264
11334TIP3    H155493   6.280   3.638   1.210  1.5965  0.0285  0.6756
11334TIP3    H255494   6.354   3.607   1.082  0.0488 -0.1822 -0.1982
11335TIP3   OH255495   4.610   4.731  16.860  0.5572 -0.2139 -0.0126
11335TIP3    H155496   4.683   4.697  16.912  1.8043  0.8864 -0.9752
11335TIP3    H255497   4.580   4.808  16.908 -1.1778 -1.6103  1.2923
11336TIP3   OH255498   6.224   2.037   0.550  0.2439 -0.2409 -0.0800
11336TIP3    H155499   6.299   2.092   0.528  0.4386 -0.8499 -0.9759
11336TIP3    H255500   6.147   2.088   0.524  0.2964  0.6416  1.3944
11337TIP3   OH255501   2.119   4.000  16.305  0.4315  0.4418  0.1587
11337TIP3    H155502   2.066   4.063  16.256  0.2920 -0.0457 -0.3233
11337TIP3    H255503   2.071   3.988  16.387 -0.7783 -0.7890 -0.7040
11338TIP3   OH255504   4.654   2.108   2.934  0.1001 -1.5752  0.1432
11338TIP3    H155505   4.629   2.125   3.025  0.1207 -0.7661  0.0044
11338TIP3    H255506   4.594   2.162   2.882  0.1357 -1.9792 -0.3252
11339TIP3   OH255507   4.694   6.728   1.790 -0.2086  0.5595  0.3123
11339TIP3    H155508   4.605   6.695   1.783  0.0719 -0.2929  0.6473
11339TIP3    H255509   4.708   6.776   1.708 -0.7464  0.1495 -0.0239
11340TIP3   OH255510   1.840   3.721   3.566 -0.0117  0.4817  0.1563
11340TIP3    H155511   1.751   3.687   3.572 -0.2686  0.6557 -1.9800
11340TIP3    H255512   1.893   3.645   3.540  0.5416  0.3185  1.6673
11341TIP3   OH255513   0.760   1.875   2.552 -0.4205  0.0007 -0.1634
11341TIP3    H155514   0.794   1.787   2.534 -1.4264 -1.0458  2.5069
11341TIP3    H255515   0.833   1.921   2.594 -0.0363  0.3176 -1.1531
11342TIP3   OH255516   1.450   2.853  15.408  0.1421 -0.3304  0.2908
11342TIP3    H155517   1.356   2.854  15.426 -0.2996  3.0906 -1.4091
11342TIP3    H255518   1.457   2.869  15.314  2.4539 -0.9663  0.2844
11343TIP3   OH255519   1.674   0.862   2.950 -0.1982 -0.4505 -0.2192
11343TIP3    H155520   1.581   0.843   2.935 -0.0709 -0.6400 -0.8031
11343TIP3    H255521   1.683   0.954   2.922  0.1357 -0.9414 -1.8368
11344TIP3   OH255522   0.830   1.831  11.329 -0.6657 -0.1607  0.2740
11344TIP3    H155523   0.739   1.835  11.299 -0.3214 -2.9223 -1.4960
11344TIP3    H255524   0.861   1.921  11.324 -2.1759  0.3129 -2.9720
11345TIP3   OH255525   5.203   1.595  14.666 -0.2758  0.1215  0.1345
11345TIP3    H155526   5.228   1.613  14.575 -0.5052  0.0541  0.0578
11345TIP3    H255527   5.113   1.563  14.660  0.1652 -1.2156  0.2361
11346TIP3   OH255528   1.526   6.247  14.956  0.0107  0.9238 -0.3915
11346TIP3    H155529   1.437   6.259  14.923 -1.2641 -0.8186  2.1511
11346TIP3    H255530   1.537   6.314  15.023  0.5051  0.9417 -0.4829
11347TIP3   OH255531   0.493   6.686   5.032  0.2811 -0.2524  0.6713
11347TIP3    H155532   0.586   6.683   5.009  0.2608 -0.1658  0.5799
11347TIP3    H255533   0.458   6.602   5.000  0.0479  0.2607 -0.4950
11348TIP3   OH255534   6.481   0.543  13.512  0.2927  0.6462  1.0437
11348TIP3    H155535   6.444   0.614  13.460 -0.4279  0.7272  1.6521
11348TIP3    H255536   6.568   0.528  13.475 -1.2407 -1.3363 -2.2031
11349TIP3   OH255537   6.029   3.615   0.563 -0.0499  0.0563 -0.5466
11349TIP3    H155538   6.065   3.691   0.608 -0.3821 -0.1521  0.0751
11349TIP3    H255539   5.934   3.625   0.571 -0.1521  0.5049 -2.0076
11350TIP3   OH255540   3.430   3.462  13.856 -0.3395 -0.5376 -0.4889
11350TIP3    H155541   3.517   3.483  13.824  0.4744  0.1158  1.9391
11350TIP3    H255542   3.389   3.547  13.872 -0.0396 -0.7533  1.7427
11351TIP3   OH255543   0.074   0.976   0.500 -0.0285  0.0644 -0.2871
11351TIP3    H155544   0.054   1.068   0.480  1.0965  0.6506  1.1482
11351TIP3    H255545   0.147   0.980   0.561 -0.3304 -1.7899  0.2439
11352TIP3   OH255546   4.317   2.874  14.058  0.2522 -0.3780  0.6846
11352TIP3    H155547   4.385   2.806  14.063 -1.2718 -2.0895 -0.4166
11352TIP3    H255548   4.279   2.863  13.971  0.6535  2.6824  0.0243
11353TIP3   OH255549   2.358   1.463   3.135 -0.0393  0.0472  0.3771
11353TIP3    H155550   2.306   1.387   3.106  0.1623  0.0431  0.0242
11353TIP3    H255551   2.428   1.470   3.071  0.9477 -0.5050  1.3692
11354TIP3   OH255552   3.281   5.045  15.416 -0.1158 -0.0009 -0.1771
11354TIP3    H155553   3.362   5.090  15.438 -0.4363  0.6093 -0.2209
11354TIP3    H255554   3.232   5.108  15.363 -1.1501  0.1144  0.8773
11355TIP3   OH255555   3.744   0.913  13.134  0.5017  0.3296 -0.3030
11355TIP3    H155556   3.749   0.875  13.046  1.2967  0.6974 -0.4260
11355TIP3    H255557   3.658   0.955  13.138 -0.0744 -0.7874 -0.4412
11356TIP3   OH255558   6.292   5.284   0.256 -0.2534  0.2042  0.0765
11356TIP3    H155559   6.266   5.304   0.166 -0.1865 -2.4042 -0.5857
11356TIP3    H255560   6.210   5.265   0.301 -0.1195 -0.7801 -0.0740
11357TIP3   OH255561   6.077   0.803   5.945  0.6507 -0.2805  0.3138
11357TIP3    H155562   5.983   0.822   5.938  0.2665 -2.1269 -0.0478
11357TIP3    H255563   6.115   0.843   5.867  0.2503  0.8383  0.6658
11358TIP3   OH255564   3.318   1.747   3.262  0.2067  0.0073  0.1299
11358TIP3    H155565   3.343   1.655   3.247  1.9839  0.6618 -1.2894
11358TIP3    H255566   3.270   1.772   3.183  1.2698  0.7686 -0.2983
11359TIP3   OH255567   5.667   0.698   0.086  0.3740 -0.5219 -0.1561
11359TIP3    H155568   5.674   0.603   0.086  0.6176 -0.5066 -0.7975
11359TIP3    H255569   5.573   0.715   0.093  0.2064 -0.8258 -1.4765
11360TIP3   OH255570   1.293   1.306  12.614  0.0675 -0.1488 -0.0639
11360TIP3    H155571   1.252   1.298  12.700 -0.5839  0.1400 -0.3442
11360TIP3    H255572   1.235   1.364  12.565  0.4987 -0.2163 -0.6602
11361TIP3   OH255573   1.080   3.569   4.877  0.6269  0.2092  0.3924
11361TIP3    H155574   0.994   3.578   4.837  0.4944 -1.3745  0.2446
11361TIP3    H255575   1.107   3.479   4.855  2.8148  1.0299 -0.5269
11362TIP3   OH255576   2.652   5.521  13.614 -0.2045 -0.5525  0.0801
11362TIP3    H155577   2.603   5.601  13.635 -0.9691 -0.5994 -1.4109
11362TIP3    H255578   2.590   5.467  13.565  0.7851 -1.4101 -0.2588
11363TIP3   OH255579   3.520   0.126   3.419 -0.2034  0.3588  0.2687
11363TIP3    H155580   3.547   0.141   3.328 -1.6616  3.2301  0.2231
11363TIP3    H255581   3.464   0.048   3.414  1.4492 -0.8504 -0.8731
11364TIP3   OH255582   5.090   3.081   0.503  0.5134 -0.1083 -0.1758
11364TIP3    H155583   5.051   3.137   0.436  0.1911 -0.9499 -0.7114
11364TIP3    H255584   5.149   3.023   0.454  1.3764  0.2227  0.4547
11365TIP3   OH255585   4.153   2.405  16.064  0.0116  0.9305 -0.2374
11365TIP3    H155586   4.121   2.459  16.136  1.4633 -1.8705  2.8093
11365TIP3    H255587   4.078   2.351  16.039  0.0401  0.3652  0.8244
11366TIP3   OH255588   6.795   3.208   0.046 -0.0777 -0.1056  0.7484
11366TIP3    H155589   6.806   3.138  -0.018 -2.4253  1.4300 -1.5547
11366TIP3    H255590   6.765   3.164   0.125 -0.2346 -1.8156 -0.2156
11367TIP3   OH255591   3.108   6.811  16.358 -0.4550 -0.1696 -0.3166
11367TIP3    H155592   3.188   6.811  16.411 -0.1591  0.4781 -0.7532
11367TIP3    H255593   3.041   6.845  16.416  0.1666  1.9387 -0.7674
11368TIP3   OH255594   3.033   2.056  12.811  0.0264  0.0539 -0.1272
11368TIP3    H155595   3.066   2.028  12.897 -1.8874  0.7401  0.8839
11368TIP3    H255596   3.078   1.999  12.749  1.3713 -0.5570  1.3268
11369TIP3   OH255597   0.456   2.005  16.697  0.0402  0.2188  0.1338
11369TIP3    H155598   0.550   2.022  16.702 -0.0890  0.9701  0.2179
11369TIP3    H255599   0.422   2.027  16.784 -0.4560  1.6664 -0.3937
11370TIP3   OH255600   5.494   3.879   2.239  0.5099  0.6107  0.1530
11370TIP3    H155601   5.566   3.834   2.195 -0.2482 -1.0381  0.5342
11370TIP3    H255602   5.462   3.942   2.174  1.8140  0.8544 -0.2749
11371TIP3   OH255603   0.836   5.214   0.776  0.1886 -0.0974 -0.7623
11371TIP3    H155604   0.781   5.136   0.764  1.0202 -0.9283  0.5719
11371TIP3    H255605   0.865   5.208   0.867  1.0456  1.2757 -0.9310
11372TIP3   OH255606   2.787   0.386  12.842  0.1905 -0.4703 -0.1495
11372TIP3    H155607   2.723   0.341  12.897  0.7600  0.4783  1.3370
11372TIP3    H255608   2.870   0.376  12.889  0.6399  0.6067 -0.6907
11373TIP3   OH255609   6.131   3.630   5.458  0.3150 -0.2188  0.0858
11373TIP3    H155610   6.046   3.593   5.479  0.2999 -0.6781 -0.7400
11373TIP3    H255611   6.162   3.579   5.382  1.0033  0.4029 -0.0697
11374TIP3   OH255612   0.025   1.720   1.338  0.0940 -0.0678  0.1174
11374TIP3    H155613  -0.062   1.726   1.299  0.4701  2.0024 -0.4989
11374TIP3    H255614   0.008   1.709   1.432 -0.9185  2.9825  0.3780
11375TIP3   OH255615   1.860   6.122   2.810 -0.2436 -0.0445 -0.3724
11375TIP3    H155616   1.903   6.059   2.868  0.4386 -0.1855 -1.0184
11375TIP3    H255617   1.931   6.179   2.780 -0.2518 -1.0053 -2.3800
11376TIP3   OH255618   0.777   1.186  15.326 -0.0016  0.1524 -0.0711
11376TIP3    H155619   0.843   1.246  15.361 -1.3424  0.6065  1.8756
11376TIP3    H255620   0.720   1.242  15.273  0.5304 -0.0194 -0.8266
11377TIP3   OH255621   5.352   4.618   6.839 -0.0613  0.3486  0.6559
11377TIP3    H155622   5.378   4.662   6.758  0.7742  0.9828  1.2509
11377TIP3    H255623   5.272   4.571   6.816 -0.1942  1.0398 -0.3666
11378TIP3   OH255624   2.802   5.961   5.509  0.0156 -0.2506  0.8017
11378TIP3    H155625   2.796   5.928   5.598 -0.3744 -0.1264  0.8248
11378TIP3    H255626   2.891   5.997   5.502  0.4929 -1.4227  0.7278
11379TIP3   OH255627   6.002   6.517   1.944 -0.1143  0.1975 -0.0851
11379TIP3    H155628   6.015   6.538   2.037 -1.0348  0.5111 -0.0173
11379TIP3    H255629   6.053   6.437   1.931 -1.5544 -0.9933  1.2066
11380TIP3   OH255630   1.154   5.150   5.676  0.1353  0.2246  0.0908
11380TIP3    H155631   1.231   5.097   5.699  0.7397  1.1603  0.2603
11380TIP3    H255632   1.189   5.223   5.625 -0.5536  1.0338  0.7472
11381TIP3   OH255633   6.718   4.283  13.457 -0.5673 -0.2406  0.1400
11381TIP3    H155634   6.790   4.281  13.393 -1.9767  0.4542 -1.5716
11381TIP3    H255635   6.758   4.318  13.537  1.3021 -1.2792 -0.2860
11382TIP3   OH255636   2.072   3.157   6.107 -0.7787 -0.3933 -0.1529
11382TIP3    H155637   2.007   3.111   6.159 -0.1451 -1.3003 -0.1456
11382TIP3    H255638   2.093   3.235   6.159  0.9203 -1.9956  1.7193
11383TIP3   OH255639   3.291   3.978   0.269 -0.4514  0.2676  1.1108
11383TIP3    H155640   3.225   4.008   0.207 -1.2410  2.4251  2.8507
11383TIP3    H255641   3.247   3.907   0.317 -0.8161  0.4024  0.9815
11384TIP3   OH255642   0.825   6.231   5.239 -0.1976 -0.0200  0.4506
11384TIP3    H155643   0.824   6.325   5.221 -1.0351  0.1108  1.1286
11384TIP3    H255644   0.764   6.193   5.176  0.6951 -0.2117 -0.3114
11385TIP3   OH255645   3.235   2.808  16.779  0.0526 -0.4177  0.2552
11385TIP3    H155646   3.165   2.746  16.763 -0.1624 -0.6757  2.0741
11385TIP3    H255647   3.287   2.806  16.698 -2.3100  0.2367 -1.4018
11386TIP3   OH255648   4.303   6.642  17.085  0.1387  0.0915  0.3024
11386TIP3    H155649   4.311   6.728  17.044  0.9256 -1.0917 -2.3084
11386TIP3    H255650   4.210   6.622  17.080  0.2999 -0.4650 -2.2093
11387TIP3   OH255651   6.687   3.784   3.680  0.3676 -0.0110  0.1020
11387TIP3    H155652   6.710   3.756   3.591  0.8271 -0.1387  0.2571
11387TIP3    H255653   6.615   3.725   3.705  0.5315 -0.2670 -0.0206
11388TIP3   OH255654   2.219   3.479  15.825 -0.0189 -0.0653 -0.6139
11388TIP3    H155655   2.143   3.524  15.790 -0.1815  0.2490  0.1305
11388TIP3    H255656   2.201   3.386  15.812 -1.8215 -0.1882  2.0315
11389TIP3   OH255657   5.483   0.707  15.846  0.5622  0.3091 -0.1592
11389TIP3    H155658   5.411   0.670  15.797  1.2489 -0.7980 -0.3660
11389TIP3    H255659   5.470   0.802  15.840 -0.5466  0.1401 -0.6530
11390TIP3   OH255660   5.390   6.705   5.332  0.5996  0.5025 -0.0457
11390TIP3    H155661   5.478   6.688   5.299  0.4262  0.1223 -0.3240
11390TIP3    H255662   5.398   6.700   5.428  1.0287  1.2276 -0.0450
11391TIP3   OH255663   2.157   3.063  14.462 -0.4276 -0.1673 -1.0695
11391TIP3    H155664   2.156   3.158  14.458 -1.0841  0.3148  3.9362
11391TIP3    H255665   2.066   3.037  14.446 -0.5723  0.2033 -0.8485
11392TIP3   OH255666   6.006   0.787  14.115 -0.0077  0.3315  0.2450
11392TIP3    H155667   5.989   0.879  14.095 -2.9365 -0.2737 -0.5976
11392TIP3    H255668   6.054   0.789  14.198 -0.5593  2.6221  0.5811
11393TIP3   OH255669   5.990   0.494  13.289 -0.1947  0.8273 -0.2921
11393TIP3    H155670   5.912   0.477  13.342  1.6065 -0.8991  2.0117
11393TIP3    H255671   6.023   0.577  13.322 -0.4643  1.0291 -0.5240
11394TIP3   OH255672   1.500   6.590  13.286 -0.1573  0.4121 -0.0773
11394TIP3    H155673   1.410   6.585  13.253 -0.1638 -0.8006  0.0969
11394TIP3    H255674   1.492   6.580  13.380  0.2017 -0.2520 -0.1135
11395TIP3   OH255675   3.240   4.344  11.150 -0.1657  0.2438  0.7125
11395TIP3    H155676   3.249   4.312  11.060 -0.1505 -0.8451  1.0828
11395TIP3    H255677   3.304   4.294  11.200  1.5818  2.5783  0.9507
11396TIP3   OH255678   1.548   3.979   5.570  0.2074 -0.0532 -0.0054
11396TIP3    H155679   1.550   4.032   5.491  0.6212  0.0881  0.0950
11396TIP3    H255680   1.635   3.939   5.574  0.3642  0.3277  0.6303
11397TIP3   OH255681   2.496   2.487  15.392  0.3651 -0.2343 -0.1484
11397TIP3    H155682   2.503   2.577  15.361  1.7928  0.0921  1.0173
11397TIP3    H255683   2.416   2.487  15.446  0.9572  0.6511  0.7643
11398TIP3   OH255684   2.271   0.855   0.223  0.0003  0.4901 -0.1459
11398TIP3    H155685   2.332   0.839   0.151 -0.3942 -2.8072  0.0814
11398TIP3    H255686   2.314   0.922   0.276  2.1947  0.1303 -1.3336
11399TIP3   OH255687   6.069   2.463   2.732  0.0456  0.3148  0.1198
11399TIP3    H155688   6.108   2.406   2.798  1.7350  0.7819 -0.4254
11399TIP3    H255689   6.129   2.537   2.726 -1.9089  2.0028  0.5474
11400TIP3   OH255690   3.349   3.882  12.140 -0.1517  0.4825  0.0145
11400TIP3    H155691   3.416   3.832  12.092  0.4787  1.0401  0.2953
11400TIP3    H255692   3.395   3.912  12.219 -1.0405 -0.0378  0.7441
11401TIP3   OH255693   2.938   3.033   1.221 -0.0408 -0.4601  0.1360
11401TIP3    H155694   2.974   3.113   1.259 -0.5404  0.9153 -2.0923
11401TIP3    H255695   3.007   2.967   1.233  1.5461  1.0387 -0.4264
11402TIP3   OH255696   1.496   4.130   0.837  0.1942  0.0826 -0.2688
11402TIP3    H155697   1.472   4.209   0.788 -3.3788 -1.9627 -2.2003
11402TIP3    H255698   1.496   4.158   0.928  1.7676  2.8425 -0.9982
11403TIP3   OH255699   5.635   5.979   3.351 -0.4390  0.2738  0.0787
11403TIP3    H155700   5.688   5.989   3.430 -1.1490 -1.4869  0.8456
11403TIP3    H255701   5.693   6.002   3.279  0.0411  2.5407  1.1080
11404TIP3   OH255702   1.054   3.474  11.893 -0.5496  0.2190 -0.3582
11404TIP3    H155703   1.134   3.481  11.944 -2.1182 -0.4106  2.3887
11404TIP3    H255704   1.074   3.518  11.811  2.2731  0.9124  0.5898
11405TIP3   OH255705   2.685   0.156   3.762  0.2130  1.0304 -0.0373
11405TIP3    H155706   2.703   0.198   3.846 -1.1029 -0.0371  0.7966
11405TIP3    H255707   2.702   0.064   3.777 -2.4073  0.4473 -0.1815
11406TIP3   OH255708   6.329   2.433  15.058  0.7221  0.0258  0.5111
11406TIP3    H155709   6.251   2.385  15.086  0.9274 -1.0530 -0.6839
11406TIP3    H255710   6.305   2.471  14.974  0.6772  1.8089  1.2758
11407TIP3   OH255711   3.037   2.516   0.405  0.6757  0.0439  0.4925
11407TIP3    H155712   3.036   2.608   0.380  0.7085  0.1404  0.8474
11407TIP3    H255713   3.127   2.500   0.434  0.5747 -0.0047  0.7810
11408TIP3   OH255714   6.499   2.245   5.504 -0.3461 -0.1779  0.3089
11408TIP3    H155715   6.430   2.244   5.439 -1.0692 -0.4233  1.0651
11408TIP3    H255716   6.512   2.153   5.527  0.9044 -0.2348 -0.5033
11409TIP3   OH255717   1.346   0.029  16.048 -0.1240  0.6092 -0.2383
11409TIP3    H155718   1.275  -0.033  16.066  0.1253  0.4677  0.3010
11409TIP3    H255719   1.375   0.008  15.959  0.9851 -1.1049  0.4730
11410TIP3   OH255720   0.361   3.942   0.310 -0.1218 -0.2766  0.5335
11410TIP3    H155721   0.361   3.868   0.371 -1.4325 -1.0613 -0.3820
11410TIP3    H255722   0.320   3.908   0.230 -1.0521  1.5349  0.1980
11411TIP3   OH255723   1.588   0.949   0.788  0.3119  0.6336 -0.5084
11411TIP3    H155724   1.573   0.856   0.805  0.8140  0.5628 -0.4257
11411TIP3    H255725   1.503   0.983   0.758 -0.0172  0.2740  0.0047
11412TIP3   OH255726   5.127   0.641  12.151 -0.1241 -0.3025 -0.4111
11412TIP3    H155727   5.113   0.729  12.116 -0.7773 -0.6106 -0.9462
11412TIP3    H255728   5.165   0.656  12.238  0.7199  0.4839 -0.8973
11413TIP3   OH255729   0.577   6.631  17.041  0.4646  0.4103  0.3328
11413TIP3    H155730   0.532   6.711  17.014  1.0502  0.9648  0.9646
11413TIP3    H255731   0.669   6.655  17.044  0.5109  0.1484  1.9991
11414TIP3   OH255732   1.321   2.457   1.393 -0.1518  0.1722  0.2292
11414TIP3    H155733   1.374   2.432   1.317 -2.2439 -1.5402 -0.7582
11414TIP3    H255734   1.235   2.479   1.357 -1.3105 -0.9979  2.0956
11415TIP3   OH255735   6.799   1.670  13.043  0.1544  0.2727 -0.2719
11415TIP3    H155736   6.770   1.760  13.056 -0.3197  0.0571  0.2480
11415TIP3    H255737   6.799   1.632  13.132 -2.4385 -1.0473 -0.7225
11416TIP3   OH255738   0.211   5.436  12.723  0.5533 -0.4463 -0.2478
11416TIP3    H155739   0.157   5.511  12.747  0.0023 -1.2065  1.0391
11416TIP3    H255740   0.150   5.362  12.722  1.0951 -0.8932 -1.4217
11417TIP3   OH255741   5.318   6.240   2.907  0.1603 -0.5649  0.0426
11417TIP3    H155742   5.223   6.237   2.905  0.1801 -0.9774 -0.5624
11417TIP3    H255743   5.345   6.153   2.876  0.7294 -0.6243  0.6685
11418TIP3   OH255744   0.538   2.591  11.986 -0.0085  0.5360  0.3685
11418TIP3    H155745   0.484   2.580  11.907 -0.7084 -1.5874  1.0805
11418TIP3    H255746   0.608   2.527  11.976  0.8629  1.4125  0.7192
11419TIP3   OH255747   3.559   3.697  12.003 -0.1932  0.5131  0.5395
11419TIP3    H155748   3.579   3.756  11.931  1.1605  0.2703  0.6955
11419TIP3    H255749   3.512   3.624  11.961  0.8098  0.2454 -0.1518
11420TIP3   OH255750   0.612   5.524   0.804 -0.8081  0.3166 -0.3152
11420TIP3    H155751   0.682   5.553   0.746 -1.6162  0.8748 -1.0213
11420TIP3    H255752   0.567   5.604   0.829  0.6954  0.3887  2.7180
11421TIP3   OH255753   1.691   0.036  10.536 -0.5605  0.1688  0.6837
11421TIP3    H155754   1.672   0.062  10.626 -1.5658  0.6077  0.3548
11421TIP3    H255755   1.720   0.117  10.493 -0.6111  0.0753  0.4718
11422TIP3   OH255756   1.095   4.511   1.725 -0.2388  0.2107 -0.3347
11422TIP3    H155757   1.144   4.594   1.729  2.2200 -1.0020 -2.1903
11422TIP3    H255758   1.053   4.504   1.811  0.3508  2.8520  0.2642
11423TIP3   OH255759   3.599   1.626   5.579 -0.5740 -0.0436 -0.0387
11423TIP3    H155760   3.581   1.691   5.647 -0.0032 -0.3028  0.3638
11423TIP3    H255761   3.671   1.663   5.528  2.2709 -1.8661  2.3567
11424TIP3   OH255762   1.869   5.513  12.598 -0.2514  0.1727 -0.3850
11424TIP3    H155763   1.909   5.512  12.685  1.1439  1.3895 -0.9645
11424TIP3    H255764   1.785   5.556  12.611  0.5129  1.5824  0.1900
11425TIP3   OH255765   2.349   1.239  15.008  0.1966  0.7077 -0.4720
11425TIP3    H155766   2.436   1.201  14.995  0.8338  1.5737  1.0686
11425TIP3    H255767   2.292   1.187  14.951  1.2417 -1.6806  0.5324
11426TIP3   OH255768   2.861   3.041   2.750 -0.3009 -0.4314  0.2414
11426TIP3    H155769   2.817   3.121   2.719  0.6153 -0.7889 -2.1569
11426TIP3    H255770   2.914   3.071   2.824 -0.2291  1.1252 -0.3906
11427TIP3   OH255771   5.677   0.665  15.604 -0.1950  0.3575  0.0620
11427TIP3    H155772   5.633   0.622  15.677  1.8416  0.4382  1.4141
11427TIP3    H255773   5.683   0.757  15.630  1.4151  0.2176  0.2912
11428TIP3   OH255774   1.166   4.380  16.374 -0.4517  0.3462 -0.2111
11428TIP3    H155775   1.182   4.391  16.280 -0.7558 -0.3580 -0.3502
11428TIP3    H255776   1.111   4.302  16.381 -3.1964  2.1971  0.3177
11429TIP3   OH255777   5.457   2.180   4.986 -0.4710  0.2388  0.1730
11429TIP3    H155778   5.388   2.118   4.962 -0.5953  0.2653  0.4527
11429TIP3    H255779   5.499   2.140   5.063  0.5642 -0.3287 -0.6623
11430TIP3   OH255780   0.250   4.368   1.232 -0.2081  0.3080 -0.2034
11430TIP3    H155781   0.227   4.375   1.324 -0.7133  0.3277 -0.3236
11430TIP3    H255782   0.319   4.433   1.218 -3.1216  3.5819 -0.7836
11431TIP3   OH255783   6.047   5.583   4.922 -0.2613  0.4511 -0.2582
11431TIP3    H155784   6.042   5.504   4.975  0.3847 -0.6185 -1.7287
11431TIP3    H255785   6.133   5.619   4.940 -0.6564  0.9927  0.6137
11432TIP3   OH255786   1.989   0.766  14.405  0.4856 -0.6279 -0.0626
11432TIP3    H155787   1.908   0.802  14.442  0.3305  1.3811 -2.0690
11432TIP3    H255788   2.038   0.732  14.480 -1.9836 -1.4665  1.2595
11433TIP3   OH255789   2.498   4.770  11.204 -0.0056 -0.4461 -0.4726
11433TIP3    H155790   2.460   4.771  11.116 -2.6189 -1.3276  0.5507
11433TIP3    H255791   2.428   4.734  11.260  1.3158  0.7159  2.0817
11434TIP3   OH255792   4.487   0.563  11.356  0.0951  0.4751  0.4903
11434TIP3    H155793   4.416   0.625  11.339 -0.6931 -0.2268  1.1481
11434TIP3    H255794   4.537   0.604  11.427 -0.1668  0.5667  0.6247
11435TIP3   OH255795   6.181   4.390   3.109 -0.2920  0.0038 -0.7588
11435TIP3    H155796   6.193   4.441   3.189 -0.5093  0.0771 -0.7745
11435TIP3    H255797   6.228   4.308   3.126 -1.2294 -0.4161 -0.1485
11436TIP3   OH255798   3.914   6.643  16.595  0.1133  0.1764 -0.1123
11436TIP3    H155799   3.853   6.571  16.615 -0.7484  0.6590 -0.9148
11436TIP3    H255800   3.904   6.703  16.670 -0.5210  0.3186 -0.2995
11437TIP3   OH255801   3.701   5.807  10.644 -0.1326 -0.2089  0.5341
11437TIP3    H155802   3.792   5.817  10.671 -0.3643  1.9954  0.6764
11437TIP3    H255803   3.656   5.883  10.680 -1.6622 -0.2925 -1.0397
11438TIP3   OH255804   2.391   0.898  16.247  0.4363  0.1929  0.7555
11438TIP3    H155805   2.348   0.904  16.332  0.6021 -0.6584  0.9133
11438TIP3    H255806   2.481   0.871  16.268  0.6928  0.7152  0.3570
11439TIP3   OH255807   0.099   1.235   1.498 -0.5119  0.5426  0.3026
11439TIP3    H155808   0.092   1.249   1.404 -1.5572 -0.9932  0.1146
11439TIP3    H255809   0.009   1.227   1.529 -0.1664  0.2584  1.3007
11440TIP3   OH255810   5.084   4.780   3.983  0.5086  0.0773  0.1614
11440TIP3    H155811   5.043   4.831   4.053  1.7557 -0.3380  1.2355
11440TIP3    H255812   5.151   4.838   3.947  0.6411 -0.1229  0.0839
11441TIP3   OH255813   6.069   2.077  10.408  0.3397  0.1579  0.1889
11441TIP3    H155814   5.985   2.037  10.432  0.5285  0.2384  0.9857
11441TIP3    H255815   6.134   2.010  10.427  0.6050  0.6444  1.0391
11442TIP3   OH255816   4.764   5.033   4.596 -0.2461 -0.0552 -0.1995
11442TIP3    H155817   4.780   4.992   4.511  1.7240  1.9962 -0.9197
11442TIP3    H255818   4.682   5.082   4.584  0.7493  1.3901 -1.4515
11443TIP3   OH255819   2.575   4.700   3.843  0.2081 -1.0466 -0.1949
11443TIP3    H155820   2.634   4.709   3.917  0.7639 -0.7843 -0.6676
11443TIP3    H255821   2.488   4.719   3.879  0.6566  0.5982  0.0591
11444TIP3   OH255822   4.702   5.680   2.855  0.0723  0.0231 -0.2425
11444TIP3    H155823   4.747   5.764   2.854 -1.5018  0.9230 -1.8718
11444TIP3    H255824   4.724   5.640   2.771  1.7015 -1.7859  0.9384
11445TIP3   OH255825   5.341   0.874  10.465  0.1009  0.3307 -0.4729
11445TIP3    H155826   5.424   0.846  10.503 -0.0255 -3.2013 -2.3859
11445TIP3    H255827   5.350   0.968  10.453  2.6412  0.5276  2.0015
11446TIP3   OH255828   3.430   2.126   5.192 -0.4493 -0.2153  0.0613
11446TIP3    H155829   3.460   2.067   5.261 -0.7001 -1.2560 -0.6949
11446TIP3    H255830   3.335   2.133   5.206 -0.3448  0.4767  0.4868
11447TIP3   OH255831   2.560   5.298  15.252 -0.2321 -0.3181 -0.1905
11447TIP3    H155832   2.488   5.296  15.316 -1.9930  0.4029 -2.0305
11447TIP3    H255833   2.559   5.211  15.212  1.6741 -1.2016  1.4849
11448TIP3   OH255834   5.236   1.826   2.812 -0.4671 -0.0743  0.1697
11448TIP3    H155835   5.201   1.738   2.830 -0.9931  0.0066 -0.4213
11448TIP3    H255836   5.223   1.838   2.718 -0.3115  0.6036  0.2332
11449TIP3   OH255837   0.228   2.637  13.858  0.4269 -0.0164  0.6777
11449TIP3    H155838   0.288   2.567  13.829 -0.3773 -0.9048  1.1131
11449TIP3    H255839   0.141   2.597  13.854 -0.2048  1.3846 -0.3422
11450TIP3   OH255840   4.577   6.073  15.376 -0.1224  0.6761  0.4345
11450TIP3    H155841   4.501   6.015  15.377 -0.0400  0.4753 -1.4722
11450TIP3    H255842   4.647   6.020  15.413 -0.4121  0.0905  0.1602
11451TIP3   OH255843   3.807   2.603  15.427 -0.1965 -0.6292 -0.1728
11451TIP3    H155844   3.829   2.617  15.335 -2.1090  2.6884 -0.2696
11451TIP3    H255845   3.713   2.618  15.432  0.0434  0.5268  2.4749
11452TIP3   OH255846   6.592   1.418  10.126  0.0823  0.1126  0.7518
11452TIP3    H155847   6.607   1.489  10.189  3.6104  0.4446 -0.2743
11452TIP3    H255848   6.593   1.461  10.041 -0.5730 -0.8678  0.2288
11453TIP3   OH255849   5.876   6.221   1.643 -0.1055 -0.4381 -0.6178
11453TIP3    H155850   5.917   6.238   1.728  1.0229 -1.0823 -1.0074
11453TIP3    H255851   5.869   6.126   1.638 -1.4080 -0.3491 -0.6948
11454TIP3   OH255852   2.683   4.495  12.864  0.1609 -0.2508  0.3924
11454TIP3    H155853   2.771   4.466  12.890 -0.0606 -0.0642  1.3576
11454TIP3    H255854   2.635   4.503  12.946 -0.7408 -0.2695 -0.1280
11455TIP3   OH255855   2.790   2.711   4.262  0.0610  0.0818 -0.4523
11455TIP3    H155856   2.827   2.741   4.179 -0.4206  0.0061 -0.6984
11455TIP3    H255857   2.828   2.624   4.275  0.0581  0.0501 -0.6462
11456TIP3   OH255858   2.419   3.856   3.607  0.2944  0.0483 -0.6599
11456TIP3    H155859   2.330   3.887   3.624  0.8264  0.6646  1.1999
11456TIP3    H255860   2.413   3.813   3.522 -1.9115 -0.4143 -0.3450
11457TIP3   OH255861   1.336   4.133  13.745 -0.2498  0.0610  0.5788
11457TIP3    H155862   1.400   4.070  13.777 -0.1750 -0.0305  0.2575
11457TIP3    H255863   1.266   4.079  13.708  1.6418 -0.0210 -3.5564
11458TIP3   OH255864   4.211   6.472   1.827 -0.5977  0.5794 -0.6025
11458TIP3    H155865   4.246   6.411   1.892 -2.7510 -0.6656 -0.5372
11458TIP3    H255866   4.119   6.447   1.817 -1.3800  3.3079 -1.1726
11459TIP3   OH255867   0.360   4.304  12.520 -0.3919  0.4915 -0.1340
11459TIP3    H155868   0.283   4.312  12.578  0.7818 -1.3348  1.8216
11459TIP3    H255869   0.409   4.385  12.535 -0.1887  0.1202  1.3468
11460TIP3   OH255870   4.718   6.502   2.134  0.7336  0.2272 -0.6412
11460TIP3    H155871   4.665   6.578   2.158 -0.4746 -0.3887 -1.2593
11460TIP3    H255872   4.808   6.533   2.139  0.4832  0.7774  2.4225
11461TIP3   OH255873   2.014   0.500  16.037  0.7773 -0.3602 -0.4180
11461TIP3    H155874   1.972   0.497  15.951 -0.5654  0.3510  0.1640
11461TIP3    H255875   1.977   0.579  16.078 -0.5869 -2.0219  1.7583
11462TIP3   OH255876   0.897   2.415   3.293  0.0608 -0.7105 -0.2570
11462TIP3    H155877   0.952   2.484   3.255  0.9524  0.4109  2.7676
11462TIP3    H255878   0.825   2.463   3.335 -0.0755 -1.6954  0.6895
11463TIP3   OH255879   5.222   5.849   6.306 -0.2837  0.8822 -0.0041
11463TIP3    H155880   5.238   5.861   6.400  0.7990  1.0598 -0.1993
11463TIP3    H255881   5.271   5.770   6.283 -0.5529  0.8344 -0.4201
11464TIP3   OH255882   2.753   0.760   2.633  0.0403  0.3283  0.4313
11464TIP3    H155883   2.762   0.704   2.556  0.2688 -0.1359  0.7972
11464TIP3    H255884   2.748   0.700   2.707  0.2733  0.7838  0.8248
11465TIP3   OH255885   3.127   2.534  15.785 -0.0266  0.3358 -0.6475
11465TIP3    H155886   3.179   2.493  15.854 -1.5956 -1.3903 -0.4263
11465TIP3    H255887   3.089   2.612  15.826 -0.8907 -0.6401  0.4699
11466TIP3   OH255888   0.488   5.208  14.622 -0.2076 -0.5893 -0.1543
11466TIP3    H155889   0.417   5.219  14.559 -0.7155 -0.0326  0.4914
11466TIP3    H255890   0.564   5.248  14.581 -1.0683  1.9404  0.4996
11467TIP3   OH255891   6.757   0.744   2.100 -0.2269 -0.1416 -0.0440
11467TIP3    H155892   6.725   0.745   2.190 -0.3144  0.7673 -0.0809
11467TIP3    H255893   6.685   0.706   2.049 -0.4168 -0.0756  0.1769
11468TIP3   OH255894   5.752   5.360   0.538  0.4201  1.0048 -0.0312
11468TIP3    H155895   5.707   5.317   0.465  0.2391 -0.8496  1.1030
11468TIP3    H255896   5.831   5.308   0.551 -0.2193  0.4335  1.9308
11469TIP3   OH255897   3.912   3.205  16.808  0.2354  0.0939  0.3590
11469TIP3    H155898   3.850   3.203  16.735 -1.1290  1.6822  1.3869
11469TIP3    H255899   3.886   3.132  16.865  0.3832 -0.2672 -0.0370
11470TIP3   OH255900   6.789   0.143  12.045 -0.3635  0.2540 -0.1201
11470TIP3    H155901   6.823   0.084  11.977 -0.6791 -0.5174  0.3855
11470TIP3    H255902   6.778   0.227  12.000 -0.6633 -0.2694 -1.0520
11471TIP3   OH255903   2.458   6.609  12.690  0.2472  0.1050  0.3366
11471TIP3    H155904   2.391   6.571  12.748  0.1368  1.3655  1.0788
11471TIP3    H255905   2.465   6.700  12.719  1.2770  0.3629 -0.6720
11472TIP3   OH255906   5.930   1.928   6.098  0.3210 -0.0342  0.0161
11472TIP3    H155907   5.889   2.014   6.104  1.9646  0.8271 -0.5177
11472TIP3    H255908   5.859   1.866   6.115 -1.1818  1.3743 -0.8868
11473TIP3   OH255909   5.482   4.453   0.628  0.2760 -0.3786  0.2958
11473TIP3    H155910   5.570   4.429   0.599 -0.4584 -1.7268 -0.9422
11473TIP3    H255911   5.425   4.389   0.587 -1.2744  0.2737  1.3412
11474TIP3   OH255912   5.024   6.354   2.300  0.9394 -0.7306 -0.5079
11474TIP3    H155913   4.986   6.422   2.245 -0.5272 -0.5968  0.5773
11474TIP3    H255914   5.064   6.292   2.239 -0.5527 -0.5589 -1.7221
11475TIP3   OH255915   6.805   6.312  13.005  0.4641  0.1116  0.1125
11475TIP3    H155916   6.750   6.296  12.928  0.2777 -1.4502  0.5296
11475TIP3    H255917   6.755   6.275  13.078  0.1204  2.5852  1.2060
11476TIP3   OH255918   2.782   0.393   4.936 -0.0470  0.0497  0.1703
11476TIP3    H155919   2.809   0.479   4.905 -0.7739 -0.0491 -0.7676
11476TIP3    H255920   2.741   0.351   4.860 -1.2168 -0.4823  1.0561
11477TIP3   OH255921   0.637   4.895   1.698  0.2029 -0.0681  0.0772
11477TIP3    H155922   0.634   4.957   1.772 -0.5409 -0.7905  0.6775
11477TIP3    H255923   0.634   4.951   1.620  0.5252  0.6922  0.5894
11478TIP3   OH255924   1.862   5.021  12.242  0.3041  0.3649  0.3563
11478TIP3    H155925   1.853   4.931  12.211 -1.1736  0.4046  0.5938
11478TIP3    H255926   1.918   5.064  12.177  0.9449 -0.6879  0.1929
11479TIP3   OH255927   3.242   0.040   2.535 -0.0234  0.2164 -0.4308
11479TIP3    H155928   3.321   0.072   2.492  0.0201 -0.7982 -1.1366
11479TIP3    H255929   3.189   0.005   2.464 -1.2171  1.0676  0.0093
11480TIP3   OH255930   1.726   0.048   2.080 -0.4382  0.2368  0.2577
11480TIP3    H155931   1.704  -0.024   2.022  0.5609  2.0075 -2.5067
11480TIP3    H255932   1.657   0.113   2.064  0.5828  1.2926  0.0156
11481TIP3   OH255933   0.791   5.459  13.484  0.0987 -0.3970  0.3687
11481TIP3    H155934   0.884   5.468  13.501  0.0832 -1.1629  0.9076
11481TIP3    H255935   0.767   5.374  13.523 -0.4113 -1.1560 -1.4907
11482TIP3   OH255936   3.012   4.806  16.914  0.0044  0.1477  0.0457
11482TIP3    H155937   3.001   4.715  16.942  0.7189 -0.4061 -1.3842
11482TIP3    H255938   3.043   4.851  16.993  1.5024 -1.2538  0.3176
11483TIP3   OH255939   6.344   2.150  14.035 -0.1695 -0.8537 -0.2407
11483TIP3    H155940   6.354   2.236  13.995  2.4063 -0.3546  1.2709
11483TIP3    H255941   6.352   2.166  14.129  1.1708 -2.8018  0.0290
11484TIP3   OH255942   3.810   6.553   0.468 -0.0200 -0.1544 -0.1351
11484TIP3    H155943   3.901   6.572   0.493 -0.3232  1.3119 -0.0800
11484TIP3    H255944   3.802   6.459   0.480  1.2425 -0.1852  0.7107
11485TIP3   OH255945   6.245   3.884   5.159 -0.0112  0.1532  0.4915
11485TIP3    H155946   6.179   3.953   5.150  1.1993  1.2900 -0.0572
11485TIP3    H255947   6.260   3.854   5.069  1.8580  1.5594  0.2670
11486TIP3   OH255948   0.594   4.829  11.605 -0.2421 -0.2090  0.3099
11486TIP3    H155949   0.517   4.775  11.618 -1.9953  1.9311 -0.4495
11486TIP3    H255950   0.573   4.912  11.649  1.7245  0.3868  0.2553
11487TIP3   OH255951   0.055   4.345   6.163  0.0226  0.0037  0.2538
11487TIP3    H155952  -0.026   4.391   6.143  0.4027  0.2634 -0.7896
11487TIP3    H255953   0.053   4.267   6.107  0.4346 -0.0408  0.2962
11488TIP3   OH255954   1.248   0.806   1.478 -0.2345 -0.3309  0.4477
11488TIP3    H155955   1.219   0.893   1.450 -0.6143 -0.8947 -1.0299
11488TIP3    H255956   1.342   0.816   1.495 -0.5494  0.6815  1.7447
11489TIP3   OH255957   0.491   4.464  15.291  0.1693 -0.0092 -0.0751
11489TIP3    H155958   0.435   4.424  15.224  1.8402 -1.1236 -0.8658
11489TIP3    H255959   0.565   4.500  15.242  1.5817 -1.1150  1.1534
11490TIP3   OH255960   1.438   3.186   4.950 -0.1088  0.0551 -0.5153
11490TIP3    H155961   1.484   3.175   4.866  0.0198  0.2546 -0.4740
11490TIP3    H255962   1.397   3.272   4.943  0.2790  0.2747 -0.2015
11491TIP3   OH255963   1.237   1.559  11.401  0.3237 -0.2536 -1.1855
11491TIP3    H155964   1.292   1.603  11.466 -0.3203 -1.5097  0.2864
11491TIP3    H255965   1.172   1.625  11.376  1.6143  0.7902 -1.8695
11492TIP3   OH255966   4.228   0.372  13.865  0.0816 -0.3503  0.3169
11492TIP3    H155967   4.222   0.446  13.925  0.7828 -0.6907  0.8120
11492TIP3    H255968   4.224   0.411  13.778  0.8694  0.3044  0.5709
11493TIP3   OH255969   1.172   3.400   6.084  0.0523 -0.3651 -0.2155
11493TIP3    H155970   1.209   3.395   5.996 -0.8403  2.5548 -0.8601
11493TIP3    H255971   1.090   3.351   6.078  0.5325 -1.1378 -0.6676
11494TIP3   OH255972   6.286   3.315   2.954  0.1783 -0.0451  0.5214
11494TIP3    H155973   6.259   3.328   3.045 -0.8021 -0.1218  0.2479
11494TIP3    H255974   6.210   3.276   2.912  1.0608 -1.2344 -0.0316
11495TIP3   OH255975   1.499   6.690   1.705 -0.3337  0.1812  0.1534
11495TIP3    H155976   1.424   6.649   1.662 -0.6323  0.8005  0.0814
11495TIP3    H255977   1.525   6.627   1.773 -1.3427  0.2593  0.6360
11496TIP3   OH255978   6.273   5.505  14.323 -0.6399  0.5386  0.5738
11496TIP3    H155979   6.298   5.587  14.367  1.1464 -1.3009  3.3212
11496TIP3    H255980   6.356   5.468  14.294 -1.1463 -1.2762  1.3209
11497TIP3   OH255981   2.483   6.182   3.108 -0.0725  0.1573  0.1531
11497TIP3    H155982   2.504   6.089   3.111  1.7746  0.5291  0.2142
11497TIP3    H255983   2.393   6.188   3.140 -0.3899 -1.6337 -0.2989
11498TIP3   OH255984   2.502   1.152  16.090  0.1472  0.4713  0.2583
11498TIP3    H155985   2.474   1.114  16.173 -1.0799  0.5960 -0.0914
11498TIP3    H255986   2.586   1.109  16.071 -1.6203 -2.8705 -0.6208
11499TIP3   OH255987   2.344   3.530   5.786 -0.1892  0.4121  0.2036
11499TIP3    H155988   2.420   3.495   5.832  0.6680  2.5603  0.5515
11499TIP3    H255989   2.271   3.519   5.848 -0.7079 -3.3142 -0.7995
11500TIP3   OH255990   0.190   1.873   4.312  0.4996 -0.0413  0.5246
11500TIP3    H155991   0.194   1.780   4.291 -0.1435 -0.4033  1.9084
11500TIP3    H255992   0.208   1.878   4.406 -1.1679  1.0483  0.8302
11501TIP3   OH255993   0.830   4.016   4.569 -0.4261  0.2751 -0.0403
11501TIP3    H155994   0.830   4.094   4.514 -0.5504 -0.3627 -0.9631
11501TIP3    H255995   0.854   4.048   4.656  1.3985  1.0809 -0.7890
11502TIP3   OH255996   1.932   1.621   2.323 -0.4604 -0.5083 -0.1553
11502TIP3    H155997   2.002   1.652   2.264 -1.0864  0.8178 -0.2321
11502TIP3    H255998   1.922   1.529   2.300  1.2200 -0.7248 -0.1919
11503TIP3   OH255999   2.367   2.810  13.434  0.4127  0.5024 -0.6304
11503TIP3    H156000   2.284   2.813  13.388  1.4975  1.3558 -2.6613
11503TIP3    H256001   2.345   2.781  13.522 -1.8495 -0.5858 -1.4861
11504TIP3   OH256002   6.625   0.051   4.053 -0.5710 -0.1376  0.1768
11504TIP3    H156003   6.664  -0.022   4.102 -0.5346 -0.4432 -0.3014
11504TIP3    H256004   6.541   0.066   4.096 -0.5501 -0.4174  0.3197
11505TIP3   OH256005   5.328   0.833  16.100 -0.2024 -0.1473  0.3670
11505TIP3    H156006   5.387   0.871  16.036 -1.4331  1.5131  0.1668
11505TIP3    H256007   5.252   0.804  16.050 -1.5074  1.8381  1.0736
11506TIP3   OH256008   6.337   6.544  15.536  0.6149  0.2572  0.1906
11506TIP3    H156009   6.293   6.576  15.614  0.7297  1.8578 -0.3663
11506TIP3    H256010   6.293   6.461  15.515  1.0140 -0.5544  2.2902
11507TIP3   OH256011   5.438   5.269   0.101 -0.3253 -0.0572 -0.3501
11507TIP3    H156012   5.466   5.201   0.040 -2.3146 -0.6599 -0.6442
11507TIP3    H256013   5.392   5.333   0.047  0.3446  0.8660  0.1350
11508TIP3   OH256014   6.295   5.498  16.349  0.2016  0.3725 -0.4536
11508TIP3    H156015   6.240   5.429  16.385 -0.4529  0.4631 -1.2550
11508TIP3    H256016   6.233   5.563  16.315  0.8071  0.7418 -0.8671
11509TIP3   OH256017   5.445   2.969  14.559  0.2661 -0.1060 -0.0277
11509TIP3    H156018   5.507   2.923  14.503  0.3963 -0.9588  0.7887
11509TIP3    H256019   5.370   2.910  14.566 -0.2748  0.5318 -0.2860
11510TIP3   OH256020   2.453   6.597   5.427 -0.0298 -0.1114  0.1380
11510TIP3    H156021   2.426   6.598   5.335  1.3226 -0.9300 -0.2959
11510TIP3    H256022   2.374   6.623   5.475  0.1138  3.7976 -1.4091
11511TIP3   OH256023   4.811   3.279  11.303 -0.0362  0.1423 -0.0429
11511TIP3    H156024   4.751   3.308  11.234 -1.5732 -0.4729  0.9741
11511TIP3    H256025   4.821   3.355  11.360 -0.7529 -0.0705  0.3798
11512TIP3   OH256026   2.755   1.975   0.420  0.6922 -0.2957  0.6650
11512TIP3    H156027   2.784   2.063   0.398 -3.8673  2.1292  3.0043
11512TIP3    H256028   2.675   1.962   0.370  0.1089 -2.2168  1.9645
11513TIP3   OH256029   1.083   2.135  12.391 -0.3310  0.2973  0.2947
11513TIP3    H156030   1.008   2.170  12.341  0.0116  0.2562 -0.2550
11513TIP3    H256031   1.087   2.043  12.366  0.3868  0.4780 -0.2991
11514TIP3   OH256032   3.327   1.222  10.799 -0.4369 -0.3316  0.4444
11514TIP3    H156033   3.263   1.285  10.766 -0.8877 -0.2526  1.4315
11514TIP3    H256034   3.292   1.137  10.773  1.4482 -0.1850 -3.1630
11515TIP3   OH256035   2.927   1.294   4.321  0.6066 -0.1062 -0.0094
11515TIP3    H156036   2.991   1.247   4.376 -0.1365 -1.8434 -0.5482
11515TIP3    H256037   2.858   1.229   4.304 -1.0861  1.5717  0.1670
11516TIP3   OH256038   6.717   2.011   5.576 -0.0994  0.7849 -0.0463
11516TIP3    H156039   6.775   2.064   5.521  0.5795  0.8570  0.7175
11516TIP3    H256040   6.701   2.066   5.653 -0.1290  0.2452  0.3352
11517TIP3   OH256041   3.198   3.917   1.321  0.2545  0.2956 -0.2411
11517TIP3    H156042   3.197   3.838   1.374 -0.7744 -0.1765 -0.9345
11517TIP3    H256043   3.178   3.988   1.383 -3.2082 -0.4827 -0.2851
11518TIP3   OH256044   6.102   4.294   5.360 -0.4385 -0.4792  0.3842
11518TIP3    H156045   6.172   4.310   5.423 -0.2456 -0.1680  0.0893
11518TIP3    H256046   6.143   4.242   5.291 -0.9743 -1.9929  1.1649
11519TIP3   OH256047   5.042   2.201   5.662  0.2980 -0.4540  0.4813
11519TIP3    H156048   5.057   2.254   5.584 -1.6582 -1.0809 -0.3855
11519TIP3    H256049   5.127   2.195   5.704  1.6206 -0.7913 -2.0450
11520TIP3   OH256050   4.009   1.156   4.460 -0.3298  0.4047  0.3645
11520TIP3    H156051   3.959   1.226   4.503  0.3544  1.7057 -0.9014
11520TIP3    H256052   4.097   1.162   4.499 -0.6579 -0.7785  1.3557
11521TIP3   OH256053   2.338   6.053   4.922  0.2255  0.2171 -0.4005
11521TIP3    H156054   2.290   5.972   4.940 -0.2201  0.2050 -1.5443
11521TIP3    H256055   2.430   6.026   4.915  0.1608 -0.0771 -0.1267
11522TIP3   OH256056   0.856   5.545  15.646  0.2517  0.0439  0.2760
11522TIP3    H156057   0.945   5.580  15.640  0.4370 -0.4541  0.1071
11522TIP3    H256058   0.801   5.612  15.606  0.5313  0.4396  0.5553
11523TIP3   OH256059   1.914   0.289  16.594 -0.0834  0.5044  0.0296
11523TIP3    H156060   1.906   0.259  16.503  0.2458 -2.6450  0.9214
11523TIP3    H256061   1.963   0.220  16.638 -2.5179  0.5555  3.2004
11524TIP3   OH256062   4.160   1.645   3.653 -0.1821 -0.6128 -0.1710
11524TIP3    H156063   4.244   1.686   3.673 -0.4454 -0.5960  0.9474
11524TIP3    H256064   4.097   1.717   3.655 -0.0935 -0.3956 -2.2344
11525TIP3   OH256065   0.909   6.542  16.043  0.0912 -0.1931  0.1909
11525TIP3    H156066   0.984   6.496  16.006 -0.5469 -0.6805 -0.5042
11525TIP3    H256067   0.845   6.545  15.973 -0.6422  0.0112  0.8552
11526TIP3   OH256068   0.398   2.149   4.499  0.0749 -0.4103 -0.7602
11526TIP3    H156069   0.332   2.197   4.449  0.4033 -1.3765 -2.1804
11526TIP3    H256070   0.361   2.062   4.510  0.4809 -0.5238 -0.2404
11527TIP3   OH256071   3.912   0.915   2.729  0.1971 -0.1403 -0.4388
11527TIP3    H156072   3.896   0.901   2.822 -1.6704  0.7964 -0.5744
11527TIP3    H256073   3.847   0.860   2.684  2.2022 -1.9712 -1.2923
11528TIP3   OH256074   2.614   4.429   2.824  0.0237 -0.2518 -0.2122
11528TIP3    H156075   2.555   4.441   2.898 -0.1683  0.4178 -0.4698
11528TIP3    H256076   2.577   4.482   2.753  0.5748 -0.3351 -0.5758
11529TIP3   OH256077   6.595   6.671   2.375 -0.0224 -0.3645  0.2477
11529TIP3    H156078   6.586   6.576   2.376  0.9728 -0.6185 -2.9513
11529TIP3    H256079   6.521   6.702   2.322  2.2644  0.0080 -3.0848
11530TIP3   OH256080   2.295   1.879   2.007 -0.0235 -0.1557 -0.1016
11530TIP3    H156081   2.307   1.966   1.969 -1.4000  0.5926  1.0617
11530TIP3    H256082   2.372   1.829   1.978  1.4990  1.8223  0.3143
11531TIP3   OH256083   1.508   2.610  11.471  0.4483 -0.1410  0.1060
11531TIP3    H156084   1.587   2.577  11.429  1.5275  0.2617  1.7046
11531TIP3    H256085   1.538   2.638  11.558 -1.7030 -1.1428  1.2291
11532TIP3   OH256086   1.512   3.465  14.327 -0.2281  0.7832  0.3046
11532TIP3    H156087   1.511   3.438  14.235 -0.7603  0.8015  0.2963
11532TIP3    H256088   1.419   3.465  14.352  0.0069 -0.8482  1.3224
11533TIP3   OH256089   6.498   3.752   1.812  0.9527  0.3463 -0.3520
11533TIP3    H156090   6.463   3.746   1.902  0.4250 -0.8688 -0.6086
11533TIP3    H256091   6.443   3.691   1.762  1.6702  0.5210 -1.3673
11534TIP3   OH256092   1.684   6.585   2.632 -0.6295 -0.2265 -0.0135
11534TIP3    H156093   1.749   6.579   2.702 -1.4231 -1.0501  0.6813
11534TIP3    H256094   1.736   6.596   2.552  0.2759  1.3685  0.7495
11535TIP3   OH256095   1.071   2.872   4.320  0.5519  0.1587 -0.3298
11535TIP3    H156096   1.115   2.907   4.243  0.5401  0.5517 -0.1600
11535TIP3    H256097   1.130   2.805   4.353  2.2750  2.3968  1.3789
11536TIP3   OH256098   6.326   3.697   1.386  0.2528  0.4570  0.0882
11536TIP3    H156099   6.413   3.657   1.387  0.2255  0.3480  1.8532
11536TIP3    H256100   6.341   3.787   1.357  1.2133  0.8749  1.7262
11537TIP3   OH256101   0.639   1.669  13.275  0.5741 -0.3727  0.5736
11537TIP3    H156102   0.633   1.751  13.323 -0.3782  0.3499 -0.7101
11537TIP3    H256103   0.607   1.603  13.336  0.1592  0.4001  1.2088
11538TIP3   OH256104   5.733   2.648  14.992  0.1509  0.1528  0.8088
11538TIP3    H156105   5.670   2.691  14.934  0.5363  0.5921  0.7045
11538TIP3    H256106   5.683   2.579  15.036 -0.3124  0.2685  0.4683
11539TIP3   OH256107   6.294   0.755   1.042  0.1851  0.1989  0.2502
11539TIP3    H156108   6.262   0.731   0.955  2.4929 -0.1838 -0.5453
11539TIP3    H256109   6.372   0.808   1.026 -0.0570  1.1926  2.0952
11540TIP3   OH256110   4.143   5.382   1.356  0.6564  0.5591 -0.1355
11540TIP3    H156111   4.086   5.364   1.281 -0.9605  0.4958  1.0723
11540TIP3    H256112   4.121   5.471   1.382  1.7294  0.8419 -0.1391
11541TIP3   OH256113   6.104   4.871   5.876 -0.5338 -0.0863 -0.2664
11541TIP3    H156114   6.049   4.793   5.871  0.0176 -0.4204 -1.3842
11541TIP3    H256115   6.083   4.921   5.797 -1.6469  1.4448  0.9407
11542TIP3   OH256116   1.966   2.890  11.562 -0.1206 -0.1002 -0.1365
11542TIP3    H156117   1.908   2.816  11.547  1.1809 -1.2389  0.2854
11542TIP3    H256118   2.033   2.857  11.621  1.1133  1.0905 -0.8039
11543TIP3   OH256119   3.272   4.459  14.379 -0.0270  0.2217  0.5018
11543TIP3    H156120   3.293   4.528  14.443 -0.1561  0.1961  0.5722
11543TIP3    H256121   3.343   4.463  14.315  0.7998 -0.6111  1.3433
11544TIP3   OH256122   3.155   0.731   3.296 -0.2389  0.1385 -0.9762
11544TIP3    H156123   3.127   0.807   3.347 -1.1340 -1.5826  1.2553
11544TIP3    H256124   3.229   0.696   3.345  1.1650  0.3920 -2.8239
11545TIP3   OH256125   2.836   2.934  12.677  0.0497  0.4547  0.2042
11545TIP3    H156126   2.747   2.899  12.670  0.2160 -0.5706  2.3501
11545TIP3    H256127   2.829   3.023  12.645 -1.6720  0.2657 -0.0481
11546TIP3   OH256128   4.247   0.354   6.211  0.0102 -0.5459  0.1659
11546TIP3    H156129   4.164   0.382   6.173  0.6786  0.0187 -0.9140
11546TIP3    H256130   4.310   0.422   6.186  0.7679 -0.8448  1.1553
11547TIP3   OH256131   6.216   3.090  16.669 -0.5922  0.2302  0.4752
11547TIP3    H156132   6.236   3.015  16.724  0.5587 -1.0484 -1.5621
11547TIP3    H256133   6.129   3.074  16.635  0.6929 -1.7672 -2.2095
11548TIP3   OH256134   5.777   2.437   2.111 -0.4007 -0.0567 -0.0204
11548TIP3    H156135   5.755   2.411   2.201  2.2682 -1.4808  0.3306
11548TIP3    H256136   5.807   2.528   2.120  0.1991 -0.3060  0.6154
11549TIP3   OH256137   1.650   5.042   2.984  0.3810  0.3502  0.1539
11549TIP3    H156138   1.701   4.977   2.937  1.4355  0.7355  0.7322
11549TIP3    H256139   1.585   5.073   2.921  0.2168 -0.8617 -0.2883
11550TIP3   OH256140   1.738   1.960   0.410 -1.1198 -0.0056 -0.5714
11550TIP3    H156141   1.813   1.966   0.351 -0.1376 -0.9173  0.5142
11550TIP3    H256142   1.674   1.906   0.363 -0.5618 -0.2959 -1.0030
11551TIP3   OH256143   6.270   0.374  11.844  0.6319  0.0001  0.4479
11551TIP3    H156144   6.342   0.430  11.875  0.6020  0.8804 -0.9787
11551TIP3    H256145   6.292   0.356  11.753  1.2536 -3.3540  1.1184
11552TIP3   OH256146   4.586   1.740  12.069 -0.0157 -0.4076  0.4283
11552TIP3    H156147   4.594   1.809  12.002  0.0657 -0.5146  0.3285
11552TIP3    H256148   4.606   1.659  12.022 -1.5848 -0.6810  0.1817
11553TIP3   OH256149   3.865   6.604  16.268  0.5961 -0.0167 -0.0443
11553TIP3    H156150   3.929   6.607  16.339 -1.1129 -0.3424  1.5723
11553TIP3    H256151   3.841   6.696  16.253  0.9966  0.0570 -0.2477
11554TIP3   OH256152   5.886   0.673  15.028  0.3531  0.0551 -0.0719
11554TIP3    H156153   5.807   0.722  15.050  0.1616 -0.5814  0.7297
11554TIP3    H256154   5.879   0.656  14.934  1.3207  3.0993 -0.8064
11555TIP3   OH256155   4.849   1.664   4.277  0.0596 -0.7585 -0.0176
11555TIP3    H156156   4.810   1.602   4.216 -0.2336 -1.3327  0.7497
11555TIP3    H256157   4.877   1.737   4.221 -0.9717 -0.8892 -0.7317
11556TIP3   OH256158   3.315   6.766   4.903 -0.2012  0.2466 -0.1078
11556TIP3    H156159   3.264   6.743   4.980  1.1163  1.7997  1.3159
11556TIP3    H256160   3.292   6.857   4.885 -1.0926 -0.3099 -2.1075
11557TIP3   OH256161   0.949   0.103  12.542 -0.0583  0.4875 -0.7549
11557TIP3    H156162   0.967   0.134  12.453 -1.0930 -2.3258 -2.0557
11557TIP3    H256163   0.854   0.095  12.547  0.0828 -2.3518 -0.6173
11558TIP3   OH256164   5.800   2.782   5.066 -0.3599 -0.0849  0.2918
11558TIP3    H156165   5.798   2.689   5.089  1.7031 -0.2486 -0.0397
11558TIP3    H256166   5.882   2.793   5.019 -0.0519  2.1293  1.2512
11559TIP3   OH256167   6.671   0.785  15.394 -0.6919 -0.1410  0.3097
11559TIP3    H156168   6.618   0.865  15.384  0.1873  0.2354 -1.9309
11559TIP3    H256169   6.632   0.723  15.333 -0.4153 -0.9366  0.9255
11560TIP3   OH256170   1.482   1.855   5.283  0.2764 -0.5746 -0.1680
11560TIP3    H156171   1.576   1.846   5.266  0.7004  2.1090  0.3955
11560TIP3    H256172   1.456   1.934   5.237 -1.6703 -1.0825 -0.0333
11561TIP3   OH256173   4.667   2.187  16.585 -0.1555 -0.8927 -0.4427
11561TIP3    H156174   4.743   2.133  16.606  0.2544  0.7567  2.9955
11561TIP3    H256175   4.705   2.270  16.556 -0.6078 -0.2238  0.8300
11562TIP3   OH256176   6.800   5.664  12.050  0.6507 -0.2956  0.0453
11562TIP3    H156177   6.868   5.695  11.991 -1.1590  0.5549 -1.7273
11562TIP3    H256178   6.743   5.740  12.062  1.2013 -0.2718  3.3999
11563TIP3   OH256179   2.850   4.696  14.263  0.0762 -0.0563 -0.3551
11563TIP3    H156180   2.799   4.775  14.284  1.3133  0.4275  1.0414
11563TIP3    H256181   2.813   4.664  14.181 -0.5208  1.9250 -0.9010
11564TIP3   OH256182   4.255   4.649  13.332  0.3869  0.3833 -0.2742
11564TIP3    H156183   4.201   4.659  13.255 -1.6394  1.5507  1.2060
11564TIP3    H256184   4.238   4.727  13.385 -0.6829 -1.6690  2.7278
11565TIP3   OH256185   0.544   1.370  13.094 -0.0111  0.6963 -0.6027
11565TIP3    H156186   0.591   1.297  13.053  1.7755  1.3621  0.1727
11565TIP3    H256187   0.487   1.329  13.159  0.7281 -0.0426 -0.4119
11566TIP3   OH256188   5.173   3.589   4.196 -0.8486  0.1460  0.0373
11566TIP3    H156189   5.206   3.512   4.151 -1.4108 -0.6814  0.9810
11566TIP3    H256190   5.121   3.554   4.269  1.2101  1.3835  2.2400
11567TIP3   OH256191   0.051   0.930   1.424 -0.4421 -0.1825 -0.1844
11567TIP3    H156192  -0.014   0.999   1.443  0.4759  0.4502  0.7775
11567TIP3    H256193   0.040   0.868   1.495 -0.4705 -0.4320 -0.4076
11568TIP3   OH256194   2.751   3.574   3.701 -0.3045  0.2648  0.1369
11568TIP3    H156195   2.755   3.481   3.680  0.3777 -0.3790  2.7365
11568TIP3    H256196   2.842   3.603   3.702 -0.3551  0.4361  1.2468
11569TIP3   OH256197   1.315   1.403  16.707  0.0087  1.0141 -0.3372
11569TIP3    H156198   1.276   1.345  16.642  0.6585 -0.7567  0.7793
11569TIP3    H256199   1.391   1.441  16.664  1.0474 -0.9574 -0.3170
11570TIP3   OH256200   2.138   3.601   1.879  0.2617  0.1766 -0.4688
11570TIP3    H156201   2.143   3.520   1.929 -0.3121  0.4929  0.1230
11570TIP3    H256202   2.126   3.670   1.945 -0.8081  0.5704 -1.0330
11571TIP3   OH256203   3.748   3.503   2.827 -0.5880  0.5865  0.2295
11571TIP3    H156204   3.805   3.552   2.767 -0.3389 -0.6080 -0.5421
11571TIP3    H256205   3.674   3.562   2.844 -0.5216  1.0520 -1.0262
11572TIP3   OH256206   3.720   6.698   1.957  0.2975  0.0498  0.0250
11572TIP3    H156207   3.709   6.705   1.862  1.6816 -0.1849 -0.1840
11572TIP3    H256208   3.811   6.726   1.973 -0.0669  0.5674  1.3443
11573TIP3   OH256209   1.139   5.611  13.649  0.1158  0.5609 -0.1947
11573TIP3    H156210   1.119   5.670  13.722 -0.1974 -0.7420  0.8042
11573TIP3    H256211   1.211   5.655  13.603 -0.3321  1.8824  0.3073
11574TIP3   OH256212   2.012   0.409  10.909  0.2672  0.2409 -0.2673
11574TIP3    H156213   2.009   0.366  10.995  3.2012  0.9876  0.3126
11574TIP3    H256214   1.988   0.341  10.847  1.3077 -1.2632  0.9138
11575TIP3   OH256215   5.218   3.100  13.535  0.5081 -0.6528  0.3450
11575TIP3    H156216   5.187   3.010  13.525  0.0725 -0.4178 -0.4688
11575TIP3    H256217   5.244   3.126  13.447 -1.7436  0.8609  0.0478
11576TIP3   OH256218   5.046   5.971  14.693 -0.3191 -0.3083 -0.3814
11576TIP3    H156219   4.978   6.036  14.676  0.5559  0.7413 -0.0366
11576TIP3    H256220   5.104   6.013  14.757  1.6189 -0.4012 -1.9584
11577TIP3   OH256221   0.026   6.374  17.061 -0.1734  0.3541 -0.2503
11577TIP3    H156222   0.032   6.309  17.130  2.1125  1.1313  0.3773
11577TIP3    H256223   0.043   6.326  16.980  0.3070 -0.0313  0.0805
11578TIP3   OH256224   6.495   5.056  15.673 -0.9444  0.1063  0.2871
11578TIP3    H156225   6.511   5.035  15.765 -0.6592 -0.9004  0.0228
11578TIP3    H256226   6.538   5.140  15.660  2.6975 -1.6219  0.0713
11579TIP3   OH256227   4.636   0.106   0.775  0.0052  0.2873 -0.0391
11579TIP3    H156228   4.625   0.184   0.830 -1.3772 -1.1166  1.8140
11579TIP3    H256229   4.548   0.072   0.764  0.6414 -1.3439 -0.3184
11580TIP3   OH256230   3.593   6.017  16.323 -0.1054 -0.1307  0.0284
11580TIP3    H156231   3.541   5.996  16.245 -1.4039  0.7288  0.6144
11580TIP3    H256232   3.583   5.941  16.380 -0.3469 -0.1682 -0.0616
11581TIP3   OH256233   3.906   3.356  13.567 -0.2250  0.1453  0.2840
11581TIP3    H156234   3.880   3.293  13.500 -0.0783  0.5233 -0.1314
11581TIP3    H256235   3.997   3.376  13.548  0.2459 -0.7801  1.4280
11582TIP3   OH256236   2.908   3.593   6.708 -0.2523 -0.0323  0.3288
11582TIP3    H156237   2.948   3.511   6.738 -0.1617  0.0850  0.5347
11582TIP3    H256238   2.817   3.570   6.690 -0.2330 -0.1743  0.4112
11583TIP3   OH256239   6.311   1.129   1.231  0.0506  0.0666 -0.6001
11583TIP3    H156240   6.347   1.115   1.144  1.5715  0.2220 -0.0248
11583TIP3    H256241   6.383   1.109   1.291 -1.0650 -0.3811  0.6456
11584TIP3   OH256242   1.751   5.932  11.869  0.0469 -0.6330 -0.9687
11584TIP3    H156243   1.826   5.904  11.923 -0.6591 -0.8782 -0.0903
11584TIP3    H256244   1.711   6.003  11.920 -0.4272 -0.6301 -1.3472
11585TIP3   OH256245   4.007   2.706   4.076  0.3301 -0.2235  0.5065
11585TIP3    H156246   3.926   2.654   4.076  0.0656  0.1475 -0.7083
11585TIP3    H256247   4.077   2.641   4.081 -0.0192 -0.5907  0.7890
11586TIP3   OH256248   3.306   2.057   0.532 -0.0240  0.6349 -0.4221
11586TIP3    H156249   3.365   2.128   0.558  0.5672 -0.1391  0.4115
11586TIP3    H256250   3.221   2.083   0.567  0.2899  0.7062  0.2948
11587TIP3   OH256251   3.284   6.197   2.264  0.1360  0.2869  0.7713
11587TIP3    H156252   3.271   6.210   2.170 -1.7228  0.3638  1.0037
11587TIP3    H256253   3.291   6.102   2.273  2.1092  0.3536  0.3908
11588TIP3   OH256254   0.106   2.463   2.815  0.0832 -0.4444  0.2831
11588TIP3    H156255   0.093   2.393   2.879  1.4714 -0.2237  0.8501
11588TIP3    H256256   0.106   2.543   2.866 -0.7089 -0.0827 -0.2636
11589TIP3   OH256257   4.976   1.249   1.904  0.0865  0.2723 -0.5984
11589TIP3    H156258   4.945   1.158   1.908 -0.6059  0.5143 -0.3811
11589TIP3    H256259   4.943   1.289   1.985  0.8195  0.5866 -0.4471
11590TIP3   OH256260   4.040   3.781  14.004 -0.4088 -0.3676  0.4385
11590TIP3    H156261   4.078   3.747  13.923  0.1557  1.7716 -0.2707
11590TIP3    H256262   4.097   3.748  14.073  1.3734  0.7479 -0.4001
11591TIP3   OH256263   4.995   2.231   0.290  0.9796  0.1518  0.1003
11591TIP3    H156264   4.938   2.301   0.258  1.2149  0.3461  0.1050
11591TIP3    H256265   4.988   2.237   0.385  2.2037  1.1793  0.1469
11592TIP3   OH256266   5.122   3.360   3.007  0.4393 -0.4118  0.3275
11592TIP3    H156267   5.115   3.450   2.974 -3.5905  0.0289  1.8376
11592TIP3    H256268   5.169   3.369   3.090 -2.0214  0.8588  1.7079
11593TIP3   OH256269   2.333   2.630   2.953  0.3580  0.4811  0.2585
11593TIP3    H156270   2.254   2.621   3.007 -0.1118 -1.3135 -0.6490
11593TIP3    H256271   2.342   2.545   2.909  1.7089  1.2957 -1.1465
11594TIP3   OH256272   0.344   1.509   4.462  0.0929 -0.0890 -0.3519
11594TIP3    H156273   0.319   1.534   4.373  0.2112 -0.9908 -0.6434
11594TIP3    H256274   0.280   1.553   4.518  0.5880  1.2783 -0.8020
11595TIP3   OH256275   4.032   3.306  15.511  0.4628 -0.3242  0.1443
11595TIP3    H156276   4.104   3.288  15.451 -1.1221 -1.4958 -1.5106
11595TIP3    H256277   4.043   3.242  15.581  1.4345  0.0010  0.3008
11596TIP3   OH256278   5.753   6.120  10.949 -0.3468  0.0339 -0.1122
11596TIP3    H156279   5.817   6.105  10.878 -1.4476 -0.4431 -1.0286
11596TIP3    H256280   5.748   6.037  10.995  0.9705  0.5752  1.0653
11597TIP3   OH256281   0.317   4.684   3.227 -0.1919  0.3797  0.4469
11597TIP3    H156282   0.322   4.645   3.315  1.7483  0.8111  0.5751
11597TIP3    H256283   0.334   4.611   3.168 -0.4980  0.2734  0.4930
11598TIP3   OH256284   1.998   6.315   0.421  0.2769 -0.0631 -0.2057
11598TIP3    H156285   2.070   6.257   0.396  0.9584 -0.0334  1.5722
11598TIP3    H256286   1.997   6.313   0.517 -1.5504  0.6169 -0.1596
11599TIP3   OH256287   2.064   5.567  11.931 -0.3848  0.3528 -0.2743
11599TIP3    H156288   2.000   5.568  12.002 -0.2769  1.7690 -0.1712
11599TIP3    H256289   2.025   5.622  11.863  1.3859  2.6630  0.4435
11600TIP3   OH256290   1.079   0.933  15.643 -0.4506 -0.3043  0.7274
11600TIP3    H156291   1.010   0.901  15.702 -1.3120 -1.0754 -0.6445
11600TIP3    H256292   1.033   0.954  15.562  0.5948  1.4707  0.5529
11601TIP3   OH256293   3.048   6.315  11.022 -0.0661 -0.7160 -0.1031
11601TIP3    H156294   3.131   6.362  11.021 -0.5384  0.1644 -0.8886
11601TIP3    H256295   3.010   6.332  10.935  0.2408 -3.5445 -0.8699
11602TIP3   OH256296   4.464   2.137  16.397  0.6651 -0.4576 -0.1600
11602TIP3    H156297   4.515   2.194  16.455 -0.2252 -0.7247  0.9296
11602TIP3    H256298   4.461   2.053  16.443  0.3020 -0.8008 -0.8031
11603TIP3   OH256299   4.321   2.483   3.368 -0.8589 -0.0998 -0.0542
11603TIP3    H156300   4.366   2.531   3.298 -0.5247  0.8300  0.7922
11603TIP3    H256301   4.239   2.454   3.327 -1.5200  2.0002 -0.3311
11604TIP3   OH256302   6.419   0.908  16.469  0.0670 -0.2612  0.4322
11604TIP3    H156303   6.481   0.961  16.519  2.5979 -0.3310 -2.4138
11604TIP3    H256304   6.443   0.817  16.488 -0.9322 -0.3664  1.3182
11605TIP3   OH256305   3.783   0.951   4.424 -0.0069 -0.3082 -0.0238
11605TIP3    H156306   3.851   1.014   4.450 -0.1351  0.4422 -1.3888
11605TIP3    H256307   3.832   0.876   4.390  0.1462  0.1061 -0.7276
11606TIP3   OH256308   6.570   3.494   4.026 -0.2147  0.2155  0.9994
11606TIP3    H156309   6.565   3.544   3.945 -1.7689  0.6565  1.3449
11606TIP3    H256310   6.569   3.403   3.999 -0.7299  0.3621  0.5114
11607TIP3   OH256311   6.370   1.824   0.751 -0.3274 -0.1135 -0.1552
11607TIP3    H156312   6.434   1.798   0.817 -1.5603 -0.4220  0.9654
11607TIP3    H256313   6.417   1.885   0.694  0.7849  0.1226  0.9773
11608TIP3   OH256314   4.916   6.751  11.072 -0.2631  0.2856  0.0980
11608TIP3    H156315   4.865   6.751  11.153 -1.5521 -0.9101 -0.6674
11608TIP3    H256316   4.960   6.836  11.072 -2.1122  1.3173  0.9208
11609TIP3   OH256317   3.368   2.837   5.117 -0.3455  0.2448 -0.4260
11609TIP3    H156318   3.350   2.927   5.089  0.6783  0.8699  0.8381
11609TIP3    H256319   3.433   2.805   5.054  1.5314  1.4570  0.7935
11610TIP3   OH256320   3.503   3.033   4.237 -0.1261 -0.0839 -1.2335
11610TIP3    H156321   3.506   3.126   4.260 -1.9411 -0.8073  2.9524
11610TIP3    H256322   3.594   3.011   4.216  0.8601  2.1760  0.1812
11611TIP3   OH256323   4.650   3.643   2.356 -0.1545 -0.2628 -0.5552
11611TIP3    H156324   4.643   3.642   2.261  1.6674  1.4476 -0.7692
11611TIP3    H256325   4.626   3.733   2.381  1.0320 -0.1825  0.4022
11612TIP3   OH256326   4.813   0.826  15.514 -0.3258 -0.1150 -0.5435
11612TIP3    H156327   4.782   0.916  15.525 -0.5705 -0.2723  0.0567
11612TIP3    H256328   4.902   0.835  15.482  0.0391  0.3523  0.5798
11613TIP3   OH256329   1.283   0.676   4.265  0.0406 -0.2478  0.3860
11613TIP3    H156330   1.306   0.758   4.222  0.7107  0.7420  2.4992
11613TIP3    H256331   1.321   0.608   4.209  0.2722  0.9302 -0.9201
11614TIP3   OH256332   5.411   0.507  13.717  0.1007 -0.2831  0.2483
11614TIP3    H156333   5.388   0.428  13.669 -0.7688  0.1876 -0.1155
11614TIP3    H256334   5.383   0.579  13.662  0.8324  0.2945  0.6040
11615TIP3   OH256335   5.930   0.508  12.580 -0.0843 -0.0756 -0.4419
11615TIP3    H156336   6.019   0.529  12.550 -0.6907  1.0808 -1.5428
11615TIP3    H256337   5.893   0.593  12.604 -1.0832 -0.4643 -0.5700
11616TIP3   OH256338   3.216   6.224   2.837 -0.4775 -0.1105  0.2256
11616TIP3    H156339   3.230   6.140   2.881  3.3229 -0.5726 -1.4916
11616TIP3    H256340   3.235   6.290   2.904  1.0860 -0.7323  0.4214
11617TIP3   OH256341   1.763   5.401   1.894  0.0472  0.0239 -0.9200
11617TIP3    H156342   1.760   5.335   1.825  5.1421 -0.1653 -1.3238
11617TIP3    H256343   1.802   5.478   1.854 -0.3881  1.2851  0.9116
11618TIP3   OH256344   6.342   3.316  12.908 -0.1669 -0.2158 -0.3000
11618TIP3    H156345   6.294   3.295  12.828 -2.9959 -1.0362  1.4585
11618TIP3    H256346   6.401   3.241  12.921 -0.7597 -0.8001 -0.8830
11619TIP3   OH256347   2.997   2.565   1.788  0.4117  0.5484 -0.0535
11619TIP3    H156348   2.947   2.509   1.729  0.7958 -0.0473  0.1683
11619TIP3    H256349   3.088   2.542   1.771  0.5585  0.9135  0.2359
11620TIP3   OH256350   2.098   5.136   6.158  0.0611 -0.1912 -1.0515
11620TIP3    H156351   2.009   5.103   6.149 -1.0817  1.9426  1.3675
11620TIP3    H256352   2.109   5.153   6.251  1.9277  2.3852 -1.6245
11621TIP3   OH256353   3.830   1.955  12.439  0.1937  0.3775 -0.2434
11621TIP3    H156354   3.875   2.038  12.424 -0.7243  1.3557  2.0275
11621TIP3    H256355   3.738   1.979  12.450  0.3691 -0.2481  4.5289
11622TIP3   OH256356   1.184   3.275  15.890 -0.1752  0.4517  0.6732
11622TIP3    H156357   1.180   3.368  15.912 -0.4647  0.0943  2.2636
11622TIP3    H256358   1.098   3.256  15.851 -0.6990  0.5419  1.7400
11623TIP3   OH256359   1.106   0.089   6.131 -0.7195 -0.2645 -0.2449
11623TIP3    H156360   1.022   0.058   6.164 -1.5248  1.4211 -0.5588
11623TIP3    H256361   1.093   0.183   6.118  1.2055  0.0271 -0.3668
11624TIP3   OH256362   6.394   2.901  15.994  0.5403 -0.1732 -0.4530
11624TIP3    H156363   6.405   2.820  16.044  0.1163  1.1205  1.8660
11624TIP3    H256364   6.422   2.878  15.905 -0.6358 -3.1595 -0.1801
11625TIP3   OH256365   1.910   1.976  17.102  0.2423 -0.5591 -0.0450
11625TIP3    H156366   1.846   1.927  17.154  0.2758 -0.3938  0.1520
11625TIP3    H256367   1.883   1.961  17.011 -0.8806  0.5887  0.0700
11626TIP3   OH256368   4.548   4.649  15.322 -0.0699 -0.1646  0.0650
11626TIP3    H156369   4.557   4.724  15.263  0.1889 -0.1974  0.0624
11626TIP3    H256370   4.545   4.688  15.409 -1.2372 -0.0568 -0.0047
11627TIP3   OH256371   1.510   5.684   5.378 -0.3368  0.0852 -0.0740
11627TIP3    H156372   1.429   5.677   5.428 -0.0170 -1.6468  0.2409
11627TIP3    H256373   1.534   5.594   5.358  2.1559  0.4694  0.8570
11628TIP3   OH256374   1.588   6.213   3.787 -0.0151  0.0072 -0.5592
11628TIP3    H156375   1.628   6.160   3.717  0.7222  1.2707 -1.1372
11628TIP3    H256376   1.494   6.199   3.778  0.1362 -0.6819 -1.1227
11629TIP3   OH256377   5.466   5.063  11.345 -0.3186  0.1732 -0.4658
11629TIP3    H156378   5.376   5.058  11.314 -0.6118  1.2481  0.1418
11629TIP3    H256379   5.458   5.069  11.441  0.4965 -1.7582 -0.2188
11630TIP3   OH256380   3.894   3.133  15.152  0.2447  0.2888  0.6711
11630TIP3    H156381   3.932   3.161  15.069 -0.7091 -0.4219 -0.0289
11630TIP3    H256382   3.864   3.214  15.193 -1.0754  0.4781 -0.6038
11631TIP3   OH256383   4.491   4.948   5.735  0.1335  0.0372 -0.0490
11631TIP3    H156384   4.436   5.021   5.763  1.1590  0.9292 -0.2941
11631TIP3    H256385   4.540   4.982   5.660 -1.9606 -2.0240 -2.5521
11632TIP3   OH256386   0.254   1.823   5.533 -0.0906 -0.1441 -0.1564
11632TIP3    H156387   0.251   1.917   5.551 -0.1539 -0.0056 -0.8575
11632TIP3    H256388   0.284   1.783   5.615 -0.9232  0.4043  0.4222
11633TIP3   OH256389   3.134   5.662  13.644  0.5625 -0.1505  0.4858
11633TIP3    H156390   3.112   5.573  13.674  0.7724 -0.2296  0.4005
11633TIP3    H256391   3.188   5.698  13.714 -0.9315  0.5345  1.3561
11634TIP3   OH256392   5.571   3.028   0.275 -0.6257 -1.0973  0.2779
11634TIP3    H156393   5.597   3.036   0.366  0.7133  1.0031 -0.2263
11634TIP3    H256394   5.587   2.937   0.253 -0.0307 -1.3970  1.8573
11635TIP3   OH256395   4.079   5.349   4.352  0.2473 -0.3536  0.0762
11635TIP3    H156396   4.120   5.412   4.293 -0.2349 -1.2190 -1.2074
11635TIP3    H256397   4.009   5.308   4.301 -0.0261 -1.3129  1.1559
11636TIP3   OH256398   4.267   5.861   5.763 -0.1751 -1.0782 -0.7145
11636TIP3    H156399   4.281   5.773   5.798  3.9021 -1.0656 -1.8191
11636TIP3    H256400   4.319   5.918   5.821 -1.5736  0.4426 -0.8802
11637TIP3   OH256401   4.840   0.821   3.344  0.3123 -0.5513  0.3777
11637TIP3    H156402   4.907   0.883   3.316 -0.2680 -0.2442 -0.3773
11637TIP3    H256403   4.846   0.750   3.281  0.4958 -0.9247  0.8159
11638TIP3   OH256404   6.108   1.604   0.182 -0.5767 -0.2641 -0.4376
11638TIP3    H156405   6.128   1.695   0.204  1.2254 -0.6969 -0.1253
11638TIP3    H256406   6.126   1.597   0.088  2.0897 -0.9026  0.0225
11639TIP3   OH256407   6.140   2.759  13.505 -1.1040 -0.8513 -0.5615
11639TIP3    H156408   6.221   2.774  13.456 -0.3636  1.0436  1.0931
11639TIP3    H256409   6.071   2.790  13.447 -0.4076 -0.1844 -1.0540
11640TIP3   OH256410   5.863   5.631  12.437  0.3608 -0.2497  0.4292
11640TIP3    H156411   5.932   5.695  12.454 -0.3110 -0.0005  2.5374
11640TIP3    H256412   5.812   5.668  12.365  0.3349  1.3243  1.2299
11641TIP3   OH256413   2.508   0.223   3.151 -0.0095 -0.1739  0.3657
11641TIP3    H156414   2.451   0.222   3.075  0.6907  0.7156 -0.1919
11641TIP3    H256415   2.578   0.284   3.128 -0.0837  0.5693  1.9418
11642TIP3   OH256416   4.492   1.190  11.706 -0.2091 -0.1625 -0.5479
11642TIP3    H156417   4.448   1.173  11.622 -1.3436  1.9160 -0.4428
11642TIP3    H256418   4.582   1.209  11.682  0.1000 -2.0732 -1.0187
11643TIP3   OH256419   3.780   2.083   3.536 -0.3172  0.1984  0.5072
11643TIP3    H156420   3.718   2.050   3.471  0.6568  0.8541 -0.7928
11643TIP3    H256421   3.790   2.011   3.599  0.2590 -1.2547 -1.1782
11644TIP3   OH256422   5.292   4.464   1.016 -0.3432  0.2036  0.0747
11644TIP3    H156423   5.386   4.448   1.012 -0.6457 -1.6856 -0.9298
11644TIP3    H256424   5.263   4.461   0.925 -1.6493 -1.4514  0.4922
11645TIP3   OH256425   4.315   4.112  13.628  0.4238 -0.7391 -0.2207
11645TIP3    H156426   4.258   4.045  13.592 -0.3595 -1.5150  2.2391
11645TIP3    H256427   4.292   4.116  13.721  0.7730  2.6448 -0.1643
11646TIP3   OH256428   4.399   2.738  11.361  0.6845 -0.1386  0.2341
11646TIP3    H156429   4.326   2.704  11.308  1.3246 -3.0146  1.0076
11646TIP3    H256430   4.474   2.737  11.302  0.7765 -0.4423  0.3538
11647TIP3   OH256431   3.931   0.169   2.881 -0.0348 -0.0768 -0.5457
11647TIP3    H156432   3.974   0.108   2.822  0.0116  0.1207 -0.7180
11647TIP3    H256433   3.840   0.139   2.886 -0.2367  0.3834 -1.3562
11648TIP3   OH256434   1.036   5.990  14.764  0.6126  0.0978  0.1281
11648TIP3    H156435   1.121   6.020  14.732  1.1281 -1.5447 -0.0966
11648TIP3    H256436   1.003   6.064  14.815  0.9663  1.7839 -1.9323
11649TIP3   OH256437   5.800   1.801  14.711 -0.3132 -0.4702  0.1693
11649TIP3    H156438   5.787   1.825  14.803 -1.8006  0.9383 -0.3629
11649TIP3    H256439   5.753   1.868  14.662  0.7059 -1.0192 -1.6550
11650TIP3   OH256440   4.831   4.292   1.903 -0.0874 -0.2999 -0.2550
11650TIP3    H156441   4.780   4.235   1.960  0.3262 -0.7892 -0.3637
11650TIP3    H256442   4.880   4.348   1.963 -0.9718  0.3781 -0.1556
11651TIP3   OH256443   1.582   4.510   5.269 -0.0563 -0.4399  0.4866
11651TIP3    H156444   1.643   4.552   5.209 -0.1258 -0.2089  0.5799
11651TIP3    H256445   1.557   4.429   5.225 -0.8215  0.1623 -0.2013
11652TIP3   OH256446   1.882   0.538   2.943  0.0655 -0.4392 -0.1186
11652TIP3    H156447   1.792   0.558   2.917  0.1196  0.9329  0.6163
11652TIP3    H256448   1.873   0.501   3.031  0.2126 -0.1034  0.0423
11653TIP3   OH256449   4.654   6.191   5.606  0.4305 -0.1364  0.0651
11653TIP3    H156450   4.715   6.118   5.601  0.3905 -0.2666  1.3015
11653TIP3    H256451   4.710   6.269   5.612  0.4733 -0.0413 -1.2757
11654TIP3   OH256452   4.536   6.016  14.719 -0.1559  0.5082 -0.4072
11654TIP3    H156453   4.460   6.027  14.776  0.6037  0.5692  0.6241
11654TIP3    H256454   4.500   6.009  14.631 -1.2707  1.8313 -0.0782
11655TIP3   OH256455   5.997   1.854   1.293  0.1675  0.2471 -0.0957
11655TIP3    H156456   5.926   1.792   1.277  0.3983  0.2860 -1.4559
11655TIP3    H256457   5.977   1.928   1.235  0.9306  0.5746  0.0476
11656TIP3   OH256458   5.136   4.014  15.246  0.2320 -0.2230 -0.3867
11656TIP3    H156459   5.214   4.069  15.238  0.8945 -1.2688 -1.3913
11656TIP3    H256460   5.168   3.926  15.228 -0.7794 -0.9705  1.3656
11657TIP3   OH256461   5.124   6.531  16.832 -0.0426 -0.1533 -0.2163
11657TIP3    H156462   5.105   6.623  16.813 -2.3030 -0.2224  1.2657
11657TIP3    H256463   5.057   6.482  16.784  2.7963 -1.3722 -3.3194
11658TIP3   OH256464   6.770   5.317   0.975 -0.3298 -0.3867 -0.0792
11658TIP3    H156465   6.688   5.269   0.966  0.7374 -2.1366 -0.9915
11658TIP3    H256466   6.766   5.384   0.906 -1.2215 -0.0613  0.2761
11659TIP3   OH256467   3.950   2.567   3.026  0.0812 -0.1454  0.5734
11659TIP3    H156468   4.011   2.593   2.957 -1.3568 -0.4973 -0.8979
11659TIP3    H256469   4.006   2.542   3.099  1.7034 -0.7671 -0.8185
11660TIP3   OH256470   2.548   5.729  13.306 -0.4589 -0.5094 -0.1153
11660TIP3    H156471   2.621   5.751  13.363  0.8976 -2.8213 -0.7876
11660TIP3    H256472   2.470   5.734  13.362  0.7352 -2.0376  1.8008
11661TIP3   OH256473   6.173   2.794  16.518 -0.5185 -0.0027  0.2423
11661TIP3    H156474   6.127   2.712  16.536  0.4792 -0.7598 -0.6106
11661TIP3    H256475   6.131   2.829  16.440  0.8849 -1.1622 -1.0959
11662TIP3   OH256476   1.995   0.559   1.233  0.5768  0.0222  0.4323
11662TIP3    H156477   2.027   0.545   1.144  1.3659  1.3569  0.4765
11662TIP3    H256478   2.014   0.651   1.251  1.6584 -0.5434  2.4648
11663TIP3   OH256479   4.133   1.847   5.376  0.3824 -0.3581 -0.1608
11663TIP3    H156480   4.148   1.793   5.299 -1.1415 -1.3944  0.2393
11663TIP3    H256481   4.175   1.931   5.354 -0.8253 -0.2841 -2.5213
11664TIP3   OH256482   5.391   0.848  13.862 -0.1844 -0.3375  0.1065
11664TIP3    H156483   5.412   0.796  13.940 -0.2613 -0.6559 -0.0873
11664TIP3    H256484   5.379   0.784  13.792 -3.4261 -0.3645  0.5365
11665TIP3   OH256485   2.377   4.248   3.793  0.0402 -0.2643  0.5537
11665TIP3    H156486   2.292   4.220   3.759  1.3005 -1.1315 -2.1718
11665TIP3    H256487   2.415   4.168   3.831 -1.0231  0.5239  3.5492
11666TIP3   OH256488   2.643   5.261   5.529 -0.3094  0.6617 -0.4495
11666TIP3    H156489   2.677   5.254   5.618  0.7336  2.1727 -0.6871
11666TIP3    H256490   2.568   5.201   5.527 -0.5683  0.8540  1.5354
11667TIP3   OH256491   6.406   1.333   1.547 -0.0305 -0.6152  0.4498
11667TIP3    H156492   6.410   1.410   1.604  0.3863 -0.0452 -0.3277
11667TIP3    H256493   6.376   1.262   1.605 -0.9216  0.2289  1.0713
11668TIP3   OH256494   1.186   2.262  13.335 -0.4190 -0.4537 -0.0155
11668TIP3    H156495   1.139   2.219  13.263 -0.0004 -3.1854  1.2280
11668TIP3    H256496   1.129   2.250  13.411  0.9226 -1.1692  0.9085
11669TIP3   OH256497   1.654   2.606  14.620  0.1772 -0.1322  0.4857
11669TIP3    H156498   1.688   2.691  14.593  1.4156 -0.5966  0.4852
11669TIP3    H256499   1.577   2.626  14.673  0.5980  1.0023  0.6916
11670TIP3   OH256500   4.111   1.711   3.027 -0.8209  0.3124 -0.1328
11670TIP3    H156501   4.065   1.703   2.944  0.1659  0.7355 -0.7444
11670TIP3    H256502   4.063   1.777   3.077  0.2830  2.3158 -1.5944
11671TIP3   OH256503   0.639   4.992  13.849 -0.0237 -0.6657  0.4897
11671TIP3    H156504   0.609   5.074  13.811 -1.0872 -1.5334 -0.6264
11671TIP3    H256505   0.735   4.996  13.841 -0.1151  0.0700 -0.4103
11672TIP3   OH256506   1.875   3.304  13.252  0.7815 -0.1681  0.8658
11672TIP3    H156507   1.884   3.379  13.310  0.2659  0.2185  0.4527
11672TIP3    H256508   1.960   3.296  13.209  0.5070  0.8930  0.0703
11673TIP3   OH256509   0.291   3.122   0.976 -0.4270  0.3726 -0.0729
11673TIP3    H156510   0.287   3.097   0.884  0.1454 -0.7980  0.1996
11673TIP3    H256511   0.217   3.077   1.016 -0.1080  0.0929  0.2077
11674TIP3   OH256512   1.393   1.191   4.300  0.6129  0.2092  0.2158
11674TIP3    H156513   1.340   1.111   4.294  0.7061  0.2220 -1.0219
11674TIP3    H256514   1.391   1.228   4.212 -0.5475  2.3307  1.0657
11675TIP3   OH256515   1.195   4.497   0.034 -0.4719  0.0253  0.1261
11675TIP3    H156516   1.289   4.509   0.019 -0.6463  2.3622  0.4612
11675TIP3    H256517   1.170   4.425  -0.024  1.3039  0.1538 -0.8674
11676TIP3   OH256518   3.536   1.248  15.868 -0.2618  0.1999  0.0165
11676TIP3    H156519   3.596   1.305  15.916  0.8002 -0.5670 -0.3718
11676TIP3    H256520   3.561   1.259  15.776 -1.1672  0.3772 -0.2172
11677TIP3   OH256521   2.886   0.500   0.803 -0.1646  0.3237 -0.0209
11677TIP3    H156522   2.982   0.496   0.808 -0.0636 -0.0660 -1.6503
11677TIP3    H256523   2.862   0.428   0.745 -1.5576 -0.2720  1.2169
11678TIP3   OH256524   0.295   0.064  13.402  0.0855  0.7465 -0.2778
11678TIP3    H156525   0.351   0.009  13.456 -0.0989  0.9712  0.1538
11678TIP3    H256526   0.355   0.121  13.354  0.3535 -0.6997 -1.7410
11679TIP3   OH256527   1.985   5.715  14.182 -0.4172  0.2237 -0.7580
11679TIP3    H156528   2.060   5.656  14.180 -0.0242  0.7190 -0.7537
11679TIP3    H256529   1.924   5.680  14.117 -0.0838 -0.0481 -0.9217
11680TIP3   OH256530   6.543   6.454   3.630  0.0326  0.3069  0.0258
11680TIP3    H156531   6.505   6.540   3.649  0.0350 -0.0372  1.6793
11680TIP3    H256532   6.467   6.396   3.626  0.0830  0.2731 -0.5099
11681TIP3   OH256533   3.905   5.101  15.285  0.6700  0.8157 -0.0992
11681TIP3    H156534   3.810   5.085  15.283  0.6445  1.0257 -0.6158
11681TIP3    H256535   3.932   5.095  15.194  0.9995  1.6800 -0.0688
11682TIP3   OH256536   3.753   4.234  15.839 -0.5691  0.1010 -0.0137
11682TIP3    H156537   3.740   4.261  15.748 -0.3243 -1.3514 -0.4958
11682TIP3    H256538   3.665   4.213  15.870 -0.4344 -1.3903 -0.5784
11683TIP3   OH256539   6.490   1.265  17.015  0.7497  0.2258  0.4762
11683TIP3    H156540   6.516   1.286  16.926  1.3379 -1.7055  0.1375
11683TIP3    H256541   6.398   1.239  17.007  0.4171  1.3064  0.6696
11684TIP3   OH256542   3.173   3.929   3.204 -0.1496  0.4783 -0.3000
11684TIP3    H156543   3.079   3.948   3.208 -0.3953 -0.8151  2.4581
11684TIP3    H256544   3.178   3.834   3.202  1.1476  0.5397 -2.2235
11685TIP3   OH256545   5.663   3.462  11.851 -0.0525  1.1217 -0.1784
11685TIP3    H156546   5.721   3.448  11.776 -0.5627  2.0250 -0.7608
11685TIP3    H256547   5.663   3.378  11.897 -0.5800  0.1735 -1.8035
11686TIP3   OH256548   4.075   3.632   3.737  0.2393 -0.4499 -0.0544
11686TIP3    H156549   4.109   3.576   3.806  0.8052 -1.0468 -0.7888
11686TIP3    H256550   4.026   3.700   3.782  0.2627 -1.0535  0.9026
11687TIP3   OH256551   0.938   0.039   1.513 -0.0071 -0.4044  0.5897
11687TIP3    H156552   1.023  -0.005   1.515 -0.7252 -1.9304 -0.5887
11687TIP3    H256553   0.895   0.012   1.595 -0.0989 -1.2095  0.2837
11688TIP3   OH256554   5.828   0.920   5.960  0.4562  0.1866 -0.1672
11688TIP3    H156555   5.796   0.983   5.895  2.0732  2.3191  0.9843
11688TIP3    H256556   5.775   0.936   6.038 -1.0051 -1.8834 -0.6573
11689TIP3   OH256557   1.875   3.699   1.104  0.5203  0.6258  0.1120
11689TIP3    H156558   1.821   3.776   1.124  0.9697  1.3894 -1.4725
11689TIP3    H256559   1.841   3.630   1.161  1.1794  2.3964  2.8209
11690TIP3   OH256560   5.760   3.652   0.571  0.1934  0.0938  0.4424
11690TIP3    H156561   5.755   3.746   0.551 -0.0802 -0.0124 -0.0141
11690TIP3    H256562   5.688   3.613   0.520  1.5386 -0.6320 -0.9998
11691TIP3   OH256563   5.427   0.977   0.137  0.5605 -0.8184 -0.5089
11691TIP3    H156564   5.409   0.968   0.230 -1.2412  0.8984 -0.6219
11691TIP3    H256565   5.415   0.889   0.101  0.0832 -1.2528  0.6937
11692TIP3   OH256566   6.519   4.539  13.102  0.5798 -0.8901 -0.1094
11692TIP3    H156567   6.507   4.626  13.140 -0.6387 -0.4953 -1.2873
11692TIP3    H256568   6.576   4.494  13.163 -0.0853  0.1917  1.3926
11693TIP3   OH256569   6.769   4.371  12.577 -0.1567 -0.4002 -0.7692
11693TIP3    H156570   6.718   4.305  12.623  0.3012  0.4940  1.1389
11693TIP3    H256571   6.706   4.438  12.552 -0.7189 -1.7238 -3.2136
11694TIP3   OH256572   1.677   1.505   2.924 -0.0629  0.0397  0.2059
11694TIP3    H156573   1.766   1.475   2.903 -0.1877 -0.1737 -0.0223
11694TIP3    H256574   1.689   1.594   2.958  0.1244  0.5226 -1.0550
11695TIP3   OH256575   0.114   2.031  12.876  0.5897 -0.7696  0.1944
11695TIP3    H156576   0.067   2.021  12.793  0.8273  0.4557 -0.1023
11695TIP3    H256577   0.147   1.943  12.895  0.5086 -1.0730 -0.9892
11696TIP3   OH256578   0.037   5.335   5.630 -0.1218  0.7123 -0.4059
11696TIP3    H156579   0.074   5.247   5.630  0.7094  1.0347  1.0517
11696TIP3    H256580   0.112   5.393   5.615 -0.0570  1.3385  1.9616
11697TIP3   OH256581   5.706   2.670  11.433  0.2102  0.4730  0.0893
11697TIP3    H156582   5.778   2.666  11.369 -0.6116  0.2771 -0.8490
11697TIP3    H256583   5.639   2.723  11.390  0.1260  1.4147  1.3178
11698TIP3   OH256584   1.830   1.973  16.816  0.0209 -0.4145  0.0187
11698TIP3    H156585   1.756   1.992  16.759 -0.5877 -1.0855  0.5800
11698TIP3    H256586   1.813   1.885  16.851  1.7975 -1.2227 -0.9901
11699TIP3   OH256587   2.731   3.925  17.109 -0.1861  0.4102  0.2307
11699TIP3    H156588   2.807   3.978  17.132  0.2267 -0.1523  0.1698
11699TIP3    H256589   2.691   3.972  17.035  0.5823  0.2614 -0.2897
11700TIP3   OH256590   4.741   4.775  11.972  0.2645 -0.0336 -0.6644
11700TIP3    H156591   4.826   4.772  12.016  0.3149  2.3201 -0.4924
11700TIP3    H256592   4.691   4.703  12.012  0.9119  0.8743  2.0308
11701TIP3   OH256593   5.031   0.769  13.104 -0.2456 -0.3018  0.3965
11701TIP3    H156594   5.041   0.824  13.182  0.8199 -0.9216  0.7143
11701TIP3    H256595   5.019   0.832  13.033 -1.0635  0.2797  1.0233
11702TIP3   OH256596   4.810   5.506  15.853 -0.0880  0.4064 -0.0063
11702TIP3    H156597   4.785   5.414  15.849  1.4106 -0.0171 -0.4432
11702TIP3    H256598   4.826   5.523  15.946  0.0166  0.1061  0.0296
11703TIP3   OH256599   4.699   5.696  15.274 -0.3558 -0.8983  0.8624
11703TIP3    H156600   4.630   5.635  15.250 -2.0106  1.3800 -0.6352
11703TIP3    H256601   4.669   5.734  15.357  0.0136 -1.2041  1.1351
11704TIP3   OH256602   5.716   0.004  13.297  0.7333  0.1958  0.5360
11704TIP3    H156603   5.739   0.097  13.303 -0.8371  0.5758  1.1666
11704TIP3    H256604   5.772  -0.030  13.227  0.4952  1.8815 -0.5345
11705TIP3   OH256605   1.229   5.236  14.159  0.0682  0.2690 -0.0006
11705TIP3    H156606   1.161   5.253  14.224  0.1709 -0.5127  0.3236
11705TIP3    H256607   1.194   5.163  14.107  0.8466 -0.4616  0.4716
11706TIP3   OH256608   3.152   4.046  11.870  0.3556  0.3999  0.2899
11706TIP3    H156609   3.101   4.107  11.924  2.2553  2.6263 -0.2736
11706TIP3    H256610   3.173   3.974  11.929 -1.4532  0.5205  1.1560
11707TIP3   OH256611   6.665   6.353   2.857 -0.2835 -0.4242  0.0746
11707TIP3    H156612   6.699   6.304   2.782  0.3736 -0.7446  0.5703
11707TIP3    H256613   6.604   6.416   2.819  0.9428  0.2444 -0.8646
11708TIP3   OH256614   1.041   0.797  13.891 -0.0636  0.0703  0.0798
11708TIP3    H156615   1.130   0.787  13.927 -1.1070 -1.2216  2.6031
11708TIP3    H256616   1.014   0.884  13.918  0.5334  0.6301 -1.0494
11709TIP3   OH256617   6.261   6.709  15.755  0.2337  0.2271 -0.3495
11709TIP3    H156618   6.245   6.803  15.745  0.6669  0.2465 -0.8595
11709TIP3    H256619   6.281   6.699  15.848 -1.2315  0.4200  0.0266
11710TIP3   OH256620   0.242   4.096   3.927 -0.3961 -0.2243  0.7881
11710TIP3    H156621   0.219   4.012   3.888 -1.0008  0.1029  0.4127
11710TIP3    H256622   0.292   4.074   4.006 -1.1717 -0.9470  1.0917
11711TIP3   OH256623   0.702   4.540  10.659 -0.1807 -0.3418  0.6444
11711TIP3    H156624   0.736   4.474  10.598  0.5935 -1.3116  2.0733
11711TIP3    H256625   0.750   4.620  10.638 -1.0665 -0.2144 -1.0576
11712TIP3   OH256626   0.341   5.536   5.267  0.0176 -0.3609 -0.2403
11712TIP3    H156627   0.322   5.629   5.282  0.3630 -0.3547  0.1676
11712TIP3    H256628   0.375   5.533   5.177 -0.1363 -0.1182 -0.3101
11713TIP3   OH256629   1.811   1.407   1.527 -0.1290 -0.2291 -0.1467
11713TIP3    H156630   1.789   1.314   1.521 -0.2037 -0.1346 -1.5614
11713TIP3    H256631   1.732   1.452   1.496  0.4619  0.2583 -0.9511
11714TIP3   OH256632   4.576   5.954  13.610  0.8182 -0.5865  0.5514
11714TIP3    H156633   4.607   6.000  13.532  0.9598 -0.5649  0.6179
11714TIP3    H256634   4.574   6.022  13.678 -4.8609  0.9417 -0.6531
11715TIP3   OH256635   2.089   4.921  15.778  0.3673 -0.2799 -0.4876
11715TIP3    H156636   2.153   4.877  15.834 -1.0522 -1.5557  0.1999
11715TIP3    H256637   2.016   4.942  15.837 -0.0772  0.7067 -1.3493
11716TIP3   OH256638   5.731   3.590   4.223  0.7075  0.1419 -0.8412
11716TIP3    H156639   5.636   3.598   4.208  0.8235 -1.1476 -2.5721
11716TIP3    H256640   5.759   3.521   4.163  2.7574  0.4645 -0.3314
11717TIP3   OH256641   6.540   3.814  10.234  0.4971  0.1147  0.2014
11717TIP3    H156642   6.612   3.834  10.294 -0.4211 -0.4667  1.5525
11717TIP3    H256643   6.463   3.852  10.275  0.1223  1.6252 -1.7252
11718TIP3   OH256644   3.405   2.260  11.721  0.0785  0.2720 -0.0896
11718TIP3    H156645   3.466   2.332  11.738  1.1011 -0.4617 -0.5256
11718TIP3    H256646   3.318   2.301  11.725  0.6228  1.5047 -0.2266
11719TIP3   OH256647   4.580   0.968  15.004  0.3518  0.1354  0.8051
11719TIP3    H156648   4.654   1.028  14.994 -0.2012  0.8582  1.0440
11719TIP3    H256649   4.528   1.006  15.074 -1.0526  0.4346 -0.3721
11720TIP3   OH256650   3.261   3.063   3.077 -0.4234 -0.0148  0.1347
11720TIP3    H156651   3.299   3.051   2.990  1.4569 -1.8311  1.1112
11720TIP3    H256652   3.317   3.128   3.119 -1.9411  1.6495 -0.2770
11721TIP3   OH256653   6.023   1.037   1.160  0.1429  0.2786  0.4282
11721TIP3    H156654   6.052   0.966   1.217 -0.5977 -1.5546 -1.3687
11721TIP3    H256655   6.105   1.077   1.129  0.5948 -0.2151  0.9561
11722TIP3   OH256656   1.952   1.248  15.176  0.0188  0.3668  0.5600
11722TIP3    H156657   2.037   1.218  15.209  0.1608 -0.3459 -0.4156
11722TIP3    H256658   1.927   1.319  15.235  1.6644  1.1253  0.3967
11723TIP3   OH256659   4.607   4.332   0.718  0.4418  0.1492  0.0688
11723TIP3    H156660   4.562   4.358   0.799  1.2192  0.9958  0.2447
11723TIP3    H256661   4.700   4.336   0.740  0.6481 -0.0671 -0.7349
11724TIP3   OH256662   2.114   0.293   0.346 -0.1325 -0.1539 -0.4371
11724TIP3    H156663   2.194   0.296   0.293  0.1332 -0.3576 -0.0585
11724TIP3    H256664   2.103   0.201   0.368  0.9739  0.1386  1.6373
11725TIP3   OH256665   6.139   5.857   4.536 -0.0185  0.5570 -0.1944
11725TIP3    H156666   6.152   5.930   4.597  0.2276  0.1075  0.3044
11725TIP3    H256667   6.152   5.779   4.590 -0.9733  0.1309 -0.5636
11726TIP3   OH256668   5.033   5.818  15.333  0.2984 -0.4982 -0.0657
11726TIP3    H156669   5.043   5.857  15.246 -0.7519 -0.2126 -0.0808
11726TIP3    H256670   5.080   5.877  15.392  0.1500 -0.1315 -0.3121
11727TIP3   OH256671   4.051   4.358   2.403  0.1500 -0.2092  0.2128
11727TIP3    H156672   4.133   4.394   2.438 -0.2973  0.1009  0.9689
11727TIP3    H256673   3.983   4.398   2.457 -0.5921  0.4830 -1.1870
11728TIP3   OH256674   4.258   6.792  13.370  0.0020 -0.3554 -0.5284
11728TIP3    H156675   4.298   6.879  13.374 -0.6954 -0.0084 -0.9035
11728TIP3    H256676   4.326   6.733  13.401  0.5824  0.2935 -0.5451
11729TIP3   OH256677   2.831   1.665   4.874  0.1797  0.9934 -0.4250
11729TIP3    H156678   2.913   1.713   4.879  0.2006  0.8555  0.9070
11729TIP3    H256679   2.768   1.727   4.836  0.6127  1.4803 -0.3470
11730TIP3   OH256680   3.924   5.356  12.433 -0.5249 -0.7637  0.0927
11730TIP3    H156681   3.874   5.355  12.351 -2.1902 -0.6101  1.0680
11730TIP3    H256682   3.943   5.263  12.450  1.3382 -0.6953 -1.3025
11731TIP3   OH256683   1.508   5.925  13.843 -0.0587 -0.0968  0.5147
11731TIP3    H156684   1.501   6.016  13.814 -0.9819 -0.1421  0.5634
11731TIP3    H256685   1.535   5.877  13.765 -0.2227  0.1255  0.3197
11732TIP3   OH256686   4.880   4.879  15.362 -0.3283  0.6262  0.1754
11732TIP3    H156687   4.882   4.785  15.348 -2.4765  0.1185  2.5724
11732TIP3    H256688   4.967   4.901  15.394  0.1606 -0.5599 -0.3139
11733TIP3   OH256689   1.187   4.608   4.499 -0.4431  0.1280  0.0988
11733TIP3    H156690   1.165   4.669   4.569 -2.1769  1.5654 -1.5776
11733TIP3    H256691   1.271   4.639   4.465 -2.1561  2.9494 -1.9645
11734TIP3   OH256692   1.336   4.352  15.835  0.0406 -0.6789 -0.2221
11734TIP3    H156693   1.270   4.385  15.774  1.4588  0.6198 -1.1363
11734TIP3    H256694   1.342   4.258  15.814 -0.1399 -0.4319 -1.4703
11735TIP3   OH256695   1.731   6.444   1.275 -0.6742  0.0557 -0.0818
11735TIP3    H156696   1.789   6.398   1.214  0.1335  1.6664 -0.5649
11735TIP3    H256697   1.669   6.491   1.220 -1.6508 -0.6048  0.4145
11736TIP3   OH256698   0.226   4.594  12.930  0.3698 -0.3246  0.4067
11736TIP3    H156699   0.269   4.547  12.859  0.6643  0.9772 -0.3162
11736TIP3    H256700   0.268   4.680  12.931  1.4477 -0.7945  3.1845
11737TIP3   OH256701   5.499   1.526  13.899 -0.1873  0.2237  0.0965
11737TIP3    H156702   5.478   1.535  13.805 -1.1207  0.3091  0.2987
11737TIP3    H256703   5.491   1.432  13.916 -1.2235  0.3408  0.3400
11738TIP3   OH256704   1.614   2.585  15.401  0.1822 -0.0534 -0.7526
11738TIP3    H156705   1.639   2.563  15.491  0.9267 -0.4598 -1.0512
11738TIP3    H256706   1.549   2.655  15.411  0.5908  0.2217  0.0875
11739TIP3   OH256707   6.422   1.462  16.177 -0.3933 -0.1739 -0.9136
11739TIP3    H156708   6.506   1.499  16.150  0.2648  0.5458  1.8039
11739TIP3    H256709   6.364   1.476  16.103  1.1549  1.8724 -1.8240
11740TIP3   OH256710   4.459   6.650   4.161  0.0884 -0.1610 -0.6990
11740TIP3    H156711   4.416   6.725   4.201 -2.6024 -2.7835  1.8444
11740TIP3    H256712   4.411   6.635   4.080 -0.9299 -0.4582 -0.0535
11741TIP3   OH256713   2.964   4.843   5.107 -0.1359  0.2225  0.1440
11741TIP3    H156714   2.913   4.868   5.029  0.5706  0.2068 -0.3360
11741TIP3    H256715   2.898   4.820   5.172 -0.7420 -0.6872 -0.7598
11742TIP3   OH256716   6.630   3.014  14.028 -0.1183  0.2783 -0.2629
11742TIP3    H156717   6.553   2.975  13.987 -0.5306  0.3277  0.4529
11742TIP3    H256718   6.695   2.944  14.029 -0.2152  0.1784 -0.6878
11743TIP3   OH256719   4.388   4.992  15.439  0.5834 -0.2075 -0.2282
11743TIP3    H156720   4.427   5.073  15.472  0.4905 -0.4338  0.4324
11743TIP3    H256721   4.429   4.922  15.489 -0.0653 -0.5041 -0.0899
11744TIP3   OH256722   2.203   2.440   5.797 -0.6665 -0.5427  0.4133
11744TIP3    H156723   2.297   2.435   5.780 -0.9716 -0.8389 -1.4817
11744TIP3    H256724   2.196   2.467   5.888  1.2711  1.5639  0.0315
11745TIP3   OH256725   5.827   4.755  13.351  0.0213 -0.5562  0.0159
11745TIP3    H156726   5.791   4.667  13.359  0.3825 -0.6298  0.9572
11745TIP3    H256727   5.758   4.812  13.386  0.0557 -0.5314  0.0439
11746TIP3   OH256728   3.019   3.226  16.630 -0.2179 -0.0409 -0.2130
11746TIP3    H156729   2.968   3.153  16.597  1.8144 -1.8571  0.3986
11746TIP3    H256730   3.050   3.271  16.551 -0.0422 -0.9385 -0.6697
11747TIP3   OH256731   1.522   1.946   2.838  0.0054 -0.6467 -0.3792
11747TIP3    H156732   1.564   1.900   2.911  1.4631  1.2998  0.0720
11747TIP3    H256733   1.589   1.949   2.769 -0.1375  0.5898 -0.4792
11748TIP3   OH256734   4.529   2.117   0.900  0.5307 -0.0779 -0.2812
11748TIP3    H156735   4.612   2.070   0.889  0.5549  0.0980 -0.8533
11748TIP3    H256736   4.461   2.052   0.883  0.5154 -0.5570  1.4394
11749TIP3   OH256737   0.930   5.333   1.866 -0.0069 -0.2592 -0.2962
11749TIP3    H156738   0.989   5.377   1.805 -0.7579  0.5497 -0.4526
11749TIP3    H256739   0.844   5.335   1.823 -0.5513  0.3438  0.7660
11750TIP3   OH256740   6.660   2.824   0.918 -0.3436  0.2978 -0.0098
11750TIP3    H156741   6.593   2.757   0.929  0.7134 -0.5552  1.5622
11750TIP3    H256742   6.741   2.775   0.902 -0.0121  1.2990 -1.7865
11751TIP3   OH256743   0.129   4.933   5.283  0.1666  0.0712 -0.1417
11751TIP3    H156744   0.152   5.024   5.264 -0.9801  0.2851 -0.5774
11751TIP3    H256745   0.144   4.888   5.200  2.7258 -0.5928  0.5919
11752TIP3   OH256746   5.530   2.620   3.156 -0.0921 -0.4177  0.0957
11752TIP3    H156747   5.490   2.535   3.173 -1.3594 -0.0758 -1.0133
11752TIP3    H256748   5.493   2.648   3.072  1.2209  0.6901 -0.1575
11753TIP3   OH256749   0.906   4.796  15.816  0.0872  0.3036  0.3173
11753TIP3    H156750   0.866   4.812  15.901  1.4642  0.0747  1.0373
11753TIP3    H256751   0.844   4.831  15.753 -0.8602  0.6707  1.4269
11754TIP3   OH256752   6.734   5.790  10.684 -0.3085  0.0094 -0.6882
11754TIP3    H156753   6.675   5.758  10.752  0.3007  0.1000 -0.1050
11754TIP3    H256754   6.682   5.855  10.636 -1.0604 -0.7643 -0.9397
11755TIP3   OH256755   1.608   2.966  15.637  0.3324  0.6838 -0.2064
11755TIP3    H156756   1.591   2.894  15.576 -1.3761 -0.7556  1.8156
11755TIP3    H256757   1.560   3.040  15.600  1.0810  0.4852 -1.6681
11756TIP3   OH256758   0.905   4.131   3.324 -0.2831  0.4313  0.5596
11756TIP3    H156759   0.823   4.166   3.360 -1.2277 -1.5800  0.4809
11756TIP3    H256760   0.907   4.040   3.354  0.9608 -0.0996 -1.0469
11757TIP3   OH256761   2.021   6.497  14.385 -0.4070 -0.5647  0.2344
11757TIP3    H156762   2.034   6.540  14.300 -1.9156 -0.3842  0.0701
11757TIP3    H256763   2.109   6.482  14.418  0.2012 -0.2207 -1.1607
11758TIP3   OH256764   6.360   3.900   0.888 -0.2133 -0.0288  0.2914
11758TIP3    H156765   6.441   3.949   0.896  0.7932 -1.5947  0.1957
11758TIP3    H256766   6.351   3.855   0.973 -0.8442 -0.0693  0.2097
11759TIP3   OH256767   5.034   1.995   3.019 -0.0758  0.1877 -0.4983
11759TIP3    H156768   5.017   2.087   3.041 -2.2778 -0.1749 -0.4927
11759TIP3    H256769   4.952   1.951   3.036  1.3009 -2.0734  0.7693
11760TIP3   OH256770   3.535   4.001   2.202  0.2188  0.1613 -0.0216
11760TIP3    H156771   3.528   3.950   2.121 -1.9861  1.5759 -0.8094
11760TIP3    H256772   3.444   4.014   2.230  0.8813  0.5907  2.1513
11761TIP3   OH256773   6.610   3.087  11.209  0.4403  0.6912 -0.1702
11761TIP3    H156774   6.625   3.171  11.251  2.6410 -0.7277  2.1496
11761TIP3    H256775   6.655   3.093  11.125 -1.6900  2.6395 -1.2787
11762TIP3   OH256776   4.620   3.603  17.040  0.1457 -0.6895  0.0574
11762TIP3    H156777   4.573   3.647  17.111 -0.4886 -2.7381  0.9859
11762TIP3    H256778   4.562   3.611  16.965  0.4911  0.8728 -0.0726
11763TIP3   OH256779   4.096   4.869  12.784  0.5794 -0.0152 -0.1286
11763TIP3    H156780   4.067   4.931  12.851  1.4285  3.0502 -2.3436
11763TIP3    H256781   4.029   4.800  12.784 -0.6374  1.0550  2.2662
11764TIP3   OH256782   4.139   1.185   3.972  0.1768  0.0085  0.0942
11764TIP3    H156783   4.138   1.259   3.911  0.4512  0.1018  0.2008
11764TIP3    H256784   4.072   1.207   4.037 -1.2926 -0.8626 -1.0721
11765TIP3   OH256785   4.914   5.601   1.087 -0.0023 -0.1793 -0.2925
11765TIP3    H156786   4.923   5.509   1.112 -1.0658 -0.5654 -1.2685
11765TIP3    H256787   4.824   5.610   1.057 -0.3990  1.5471  1.1801
11766TIP3   OH256788   3.201   1.471  11.814 -0.1420 -0.1062  0.3510
11766TIP3    H156789   3.234   1.404  11.755  2.5660  0.5896  0.9459
11766TIP3    H256790   3.221   1.438  11.902 -0.6643  0.5799  0.7437
11767TIP3   OH256791   2.811   3.451  13.888 -0.6133  0.7525  0.9049
11767TIP3    H156792   2.807   3.544  13.866 -2.4469  0.4956 -0.0400
11767TIP3    H256793   2.819   3.407  13.803  0.3500  0.0322  1.3482
11768TIP3   OH256794   3.273   4.547   0.755  0.4037 -0.3552 -0.1857
11768TIP3    H156795   3.320   4.629   0.743  1.4124 -1.1373 -2.0911
11768TIP3    H256796   3.184   4.565   0.724 -0.3900  0.8460  2.4715
11769TIP3   OH256797   6.137   3.153   0.962  0.1327  0.5714  0.0896
11769TIP3    H156798   6.192   3.151   1.040  0.9205 -0.2154 -0.4633
11769TIP3    H256799   6.171   3.226   0.910  0.1122  0.6079  0.1275
11770TIP3   OH256800   4.089   3.948  11.464 -0.3261  0.7278  0.1586
11770TIP3    H156801   4.069   4.035  11.499 -0.3366  1.9161 -2.6037
11770TIP3    H256802   4.182   3.935  11.483 -0.6628  0.6406  1.9088
11771TIP3   OH256803   2.540   1.521  15.689  0.3505 -0.2866 -0.6609
11771TIP3    H156804   2.541   1.610  15.652  3.7324  0.2908  0.4922
11771TIP3    H256805   2.521   1.534  15.782 -0.4692 -0.9478 -0.7278
11772TIP3   OH256806   3.341   3.341  15.264 -0.2807 -0.2814 -0.2810
11772TIP3    H156807   3.432   3.311  15.271  0.0374  0.1209 -2.0249
11772TIP3    H256808   3.344   3.432  15.295 -0.4097 -0.7289  1.0866
11773TIP3   OH256809   5.356   3.241   5.724  0.2260 -0.5862 -0.6677
11773TIP3    H156810   5.385   3.165   5.774  0.8906 -0.0756 -0.2568
11773TIP3    H256811   5.380   3.316   5.778 -1.0761 -0.0960 -0.7285
11774TIP3   OH256812   6.635   4.545   3.415 -0.0230  0.0221 -0.1620
11774TIP3    H156813   6.641   4.495   3.333 -1.3696 -0.7120  0.1557
11774TIP3    H256814   6.706   4.511   3.469 -0.3025 -0.8703 -0.3323
11775TIP3   OH256815   3.849   2.964  12.103 -0.0296  0.3767 -0.2652
11775TIP3    H156816   3.769   3.016  12.089  0.3540  1.1093  0.1901
11775TIP3    H256817   3.916   3.011  12.054  0.6855  1.2955  1.4851
11776TIP3   OH256818   1.116   2.178   1.635 -0.8756 -0.3766 -0.0112
11776TIP3    H156819   1.037   2.142   1.676 -0.9169 -0.5182 -0.2117
11776TIP3    H256820   1.181   2.181   1.705 -0.8326 -0.9621 -0.0205
11777TIP3   OH256821   5.791   0.387  10.622  0.2339 -0.1520  0.5746
11777TIP3    H156822   5.772   0.347  10.707  0.3457 -0.4962  0.4410
11777TIP3    H256823   5.716   0.364  10.568  1.3532 -2.2574 -0.2122
11778TIP3   OH256824   2.661   3.489   6.636 -0.3713 -0.4321  0.6471
11778TIP3    H156825   2.614   3.491   6.553  0.8053 -0.6705 -0.0476
11778TIP3    H256826   2.631   3.409   6.679 -1.2775 -0.1075  0.6453
11779TIP3   OH256827   1.553   3.778  12.968  0.3507 -0.1441  0.3040
11779TIP3    H156828   1.565   3.845  13.035 -0.1391  1.5115 -1.1849
11779TIP3    H256829   1.637   3.776  12.922  0.0625  0.1419 -0.2454
11780TIP3   OH256830   4.966   3.389   0.553 -0.0541  0.7410  0.1419
11780TIP3    H156831   5.030   3.342   0.606  0.3513  1.3871  0.2364
11780TIP3    H256832   4.991   3.370   0.463 -0.4602  0.0195  0.1790
11781TIP3   OH256833   3.218   2.052  14.454 -0.4770  0.0661 -0.1694
11781TIP3    H156834   3.182   2.129  14.497  0.3051 -0.1293  0.8906
11781TIP3    H256835   3.149   2.022  14.395 -1.6810  0.2271  1.1159
11782TIP3   OH256836   5.387   2.339  14.706  0.5295 -0.7146  0.2219
11782TIP3    H156837   5.438   2.420  14.701 -1.0376  0.3524  0.7180
11782TIP3    H256838   5.390   2.303  14.617  2.7182 -1.1070  0.3902
11783TIP3   OH256839   5.178   1.689   1.802 -0.0528  0.2001  0.4564
11783TIP3    H156840   5.094   1.646   1.789 -0.5966  0.6974  2.1075
11783TIP3    H256841   5.156   1.776   1.835  1.1011  0.3589  0.8631
11784TIP3   OH256842   5.336   5.968  11.884 -0.3645  0.0851 -0.1048
11784TIP3    H156843   5.298   5.887  11.852 -2.3642 -0.4001  3.0229
11784TIP3    H256844   5.431   5.952  11.884 -0.7086 -2.3410  0.5609
11785TIP3   OH256845   2.167   0.028  15.833 -0.1284  0.2451  0.1997
11785TIP3    H156846   2.237   0.036  15.898 -0.5519 -1.6239  0.9653
11785TIP3    H256847   2.207   0.059  15.751  0.5993  2.0794  1.1948
11786TIP3   OH256848   0.786   5.065  15.452 -0.3155  0.1642 -0.8294
11786TIP3    H156849   0.863   5.009  15.451  1.2899  2.2603 -1.5945
11786TIP3    H256850   0.713   5.007  15.429  1.4416 -1.3550 -2.9598
11787TIP3   OH256851   3.819   0.735  15.570  0.1673  0.2340  0.3471
11787TIP3    H156852   3.787   0.812  15.618 -2.8214 -1.3287  1.1301
11787TIP3    H256853   3.895   0.705  15.620 -0.4103  0.9979  1.7486
11788TIP3   OH256854   1.350   5.691  14.223 -0.4291 -0.4544 -0.2309
11788TIP3    H156855   1.417   5.666  14.159  0.4964  0.2263  0.4279
11788TIP3    H256856   1.376   5.779  14.251 -1.6619 -0.1447 -0.0210
11789TIP3   OH256857   3.060   2.750   6.289  0.7584 -0.0077  0.2924
11789TIP3    H156858   3.108   2.678   6.330  1.8304  0.6687  0.2713
11789TIP3    H256859   3.110   2.828   6.312 -0.2337  0.7063  0.0891
11790TIP3   OH256860   3.841   5.052  17.086 -0.6556 -0.2045 -0.0670
11790TIP3    H156861   3.771   4.991  17.108 -0.8743 -0.6306 -1.7665
11790TIP3    H256862   3.825   5.128  17.142 -1.6913 -0.8172  0.5046
11791TIP3   OH256863   4.348   5.756  14.458 -0.4284  0.8313 -0.1600
11791TIP3    H156864   4.277   5.709  14.414 -0.8104  1.0880  0.1833
11791TIP3    H256865   4.335   5.738  14.551  1.2596 -0.9853 -0.1890
11792TIP3   OH256866   5.872   5.854   1.262  0.2847  0.3032 -0.0890
11792TIP3    H156867   5.831   5.812   1.187  0.1170 -0.7921  0.6037
11792TIP3    H256868   5.861   5.792   1.334 -1.7130  2.2984  1.4645
11793TIP3   OH256869   0.497   5.778  12.810 -0.3199  0.5077  0.2882
11793TIP3    H156870   0.503   5.799  12.903  1.8702 -1.7869  0.7916
11793TIP3    H256871   0.472   5.685  12.808 -1.8689  0.9062 -1.4843
11794TIP3   OH256872   3.211   1.958   0.214 -0.2056  0.3492 -0.3946
11794TIP3    H156873   3.125   1.973   0.174  0.3537  2.2939 -0.9778
11794TIP3    H256874   3.263   1.919   0.144 -1.2720 -3.5679  0.7314
11795TIP3   OH256875   2.841   2.980   4.328  1.1192  0.2396  0.3054
11795TIP3    H156876   2.845   2.885   4.316  2.3229  0.4322 -1.2639
11795TIP3    H256877   2.757   3.006   4.290  0.4407 -0.2597  1.4346
11796TIP3   OH256878   3.795   4.610  15.166 -0.0666  0.5170 -0.3796
11796TIP3    H156879   3.717   4.563  15.137 -0.0946 -0.0598  0.6047
11796TIP3    H256880   3.761   4.692  15.203 -0.2238  0.2251  0.1346
11797TIP3   OH256881   6.815   2.540   5.301 -0.3294  0.4812  0.0723
11797TIP3    H156882   6.762   2.464   5.276  0.1688  0.2142 -0.2081
11797TIP3    H256883   6.755   2.598   5.347 -0.9075  0.2785 -0.4188
11798TIP3   OH256884   0.572   1.176  14.611 -0.4086  0.2501  0.1212
11798TIP3    H156885   0.650   1.228  14.587 -1.2955  0.7143 -1.9393
11798TIP3    H256886   0.607   1.090  14.635  0.8855  1.0284  1.1977
11799TIP3   OH256887   5.267   4.277  16.712 -0.3812 -0.5240  0.4527
11799TIP3    H156888   5.352   4.238  16.689 -0.1064 -0.3204  1.1033
11799TIP3    H256889   5.213   4.202  16.736 -0.3353 -0.6408  0.1967
11800TIP3   OH256890   3.577   1.660   6.216 -0.6054 -0.3657  0.3021
11800TIP3    H156891   3.663   1.628   6.188 -0.8511  0.3755 -1.4378
11800TIP3    H256892   3.548   1.596   6.281  1.3511 -0.4984  1.1411
11801TIP3   OH256893   4.884   2.372  16.527  0.3822 -0.3305 -0.4206
11801TIP3    H156894   4.911   2.324  16.605 -1.7571 -1.6767 -0.4208
11801TIP3    H256895   4.963   2.417  16.498  1.6654 -1.2116  1.4973
11802TIP3   OH256896   6.148   5.976  13.889  0.1655 -0.5038  0.2595
11802TIP3    H156897   6.133   6.067  13.914 -1.1104 -0.6648  0.1052
11802TIP3    H256898   6.239   5.975  13.858 -0.0956  0.9093 -0.6417
11803TIP3   OH256899   2.437   5.722  12.789  0.6635 -0.2619 -0.7451
11803TIP3    H156900   2.341   5.719  12.788  0.5875 -0.1414  1.4092
11803TIP3    H256901   2.459   5.758  12.874  2.6481  0.4993 -1.5187
11804TIP3   OH256902   6.013   1.686  12.770  0.3570 -0.3001 -0.3121
11804TIP3    H156903   6.077   1.747  12.733 -0.7636  0.7071 -0.6504
11804TIP3    H256904   5.996   1.624  12.699  0.3448 -0.0742 -0.5080
11805TIP3   OH256905   1.582   1.819   3.241 -0.3560  0.2204  0.6379
11805TIP3    H156906   1.571   1.809   3.335 -2.6147 -1.4860  0.2660
11805TIP3    H256907   1.499   1.858   3.211  0.5141  1.2096 -0.5945
11806TIP3   OH256908   2.074   0.199   3.296  0.1459  0.5333  0.2243
11806TIP3    H156909   2.115   0.138   3.357  1.8757 -0.5284 -1.8697
11806TIP3    H256910   2.129   0.277   3.299  0.2744  0.4527 -0.0368
11807TIP3   OH256911   6.763   0.316  12.982  0.5150 -0.0063 -0.6262
11807TIP3    H156912   6.722   0.401  12.997  1.4472  0.6903 -1.8927
11807TIP3    H256913   6.856   0.335  12.972  0.6939 -1.1229 -1.2854
11808TIP3   OH256914   1.302   6.072   4.983  0.0846 -0.5366  0.2716
11808TIP3    H156915   1.301   6.025   5.067  2.6024 -0.3100  0.5192
11808TIP3    H256916   1.358   6.018   4.926  1.5953  1.1906  0.0208
11809TIP3   OH256917   5.058   4.554  13.528  0.6823 -0.0253  0.0293
11809TIP3    H156918   5.127   4.489  13.511  0.5213  0.2661 -2.0391
11809TIP3    H256919   5.093   4.636  13.491 -0.8589  0.0572 -1.3530
11810TIP3   OH256920   0.477   2.895  11.369  0.2906  0.1280  0.1061
11810TIP3    H156921   0.384   2.878  11.357  0.3344 -1.4269  1.5406
11810TIP3    H256922   0.514   2.892  11.281 -0.7274 -1.1965 -0.3056
11811TIP3   OH256923   0.326   0.152  13.725 -0.2831 -0.0861  0.2789
11811TIP3    H156924   0.315   0.178  13.816  0.4935 -0.7538  0.5792
11811TIP3    H256925   0.345   0.233  13.678  2.7170 -0.0710  1.2900
11812TIP3   OH256926   1.046   5.913   4.278 -0.0088 -0.1030 -0.0092
11812TIP3    H156927   1.041   5.975   4.351  0.1737  1.2367 -1.1060
11812TIP3    H256928   1.049   5.827   4.320  1.8024  0.6922  1.6286
11813TIP3   OH256929   0.784   1.715   1.570 -0.3657  0.5889  0.8202
11813TIP3    H156930   0.807   1.759   1.652  0.3955  0.5814  0.6160
11813TIP3    H256931   0.866   1.712   1.521 -0.5128 -0.6268  0.6209
11814TIP3   OH256932   3.246   2.085   2.418  0.3186  0.0065  0.9282
11814TIP3    H156933   3.173   2.136   2.454 -0.1977 -0.6586  0.8265
11814TIP3    H256934   3.322   2.143   2.427 -0.2718  0.8196  0.7634
11815TIP3   OH256935   5.103   3.896  16.469 -0.2589  0.1515 -0.0671
11815TIP3    H156936   5.081   3.882  16.561  0.9707  0.2448  0.2665
11815TIP3    H256937   5.044   3.965  16.440 -1.2663 -0.4915  0.3894
11816TIP3   OH256938   0.099   2.687  14.472 -0.6844  0.5362 -0.4380
11816TIP3    H156939   0.031   2.753  14.480  1.4493  2.9667 -0.8557
11816TIP3    H256940   0.177   2.728  14.509  0.8365 -1.7005 -0.9200
11817TIP3   OH256941   5.105   1.781  10.402 -0.0579  0.8319  0.5609
11817TIP3    H156942   5.176   1.736  10.356 -0.6235 -1.6419  1.9382
11817TIP3    H256943   5.092   1.862  10.353  1.0586 -0.4741 -2.0654
11818TIP3   OH256944   3.855   5.811  14.961 -0.1374 -0.1356  0.0545
11818TIP3    H156945   3.845   5.781  15.051 -0.2351 -0.6961 -0.1363
11818TIP3    H256946   3.807   5.746  14.909 -1.1633  0.8663 -0.2937
11819TIP3   OH256947   0.318   5.125  13.844  0.6548 -0.0374 -0.4268
11819TIP3    H156948   0.404   5.155  13.815  0.4070 -0.4208 -1.6452
11819TIP3    H256949   0.279   5.201  13.886  1.7805 -0.0099  0.6190
11820TIP3   OH256950   2.373   0.910   0.752  0.0662  0.4429 -0.2577
11820TIP3    H156951   2.441   0.968   0.717  1.5863 -1.2245 -0.2256
11820TIP3    H256952   2.400   0.823   0.724 -1.3502 -0.4140  0.9291
11821TIP3   OH256953   6.137   4.520   2.885  0.3910 -0.1556 -0.4774
11821TIP3    H156954   6.160   4.475   2.966 -0.1834  1.2864  0.5407
11821TIP3    H256955   6.190   4.477   2.818 -1.2288 -3.3302  0.0919
11822TIP3   OH256956   6.015   0.238   4.834 -0.0499 -0.4437  0.4773
11822TIP3    H156957   6.104   0.222   4.867  0.2868  0.6951  0.1616
11822TIP3    H256958   5.973   0.290   4.902  0.4885  1.4947 -0.5938
11823TIP3   OH256959   2.050   4.653  12.364 -0.3432  0.0823 -0.3092
11823TIP3    H156960   2.094   4.623  12.443 -0.2611 -2.4688 -1.2336
11823TIP3    H256961   1.994   4.726  12.393 -0.4515 -0.8982  2.1059
11824TIP3   OH256962   0.657   6.073  12.189 -0.1120  0.2836  0.5962
11824TIP3    H156963   0.595   6.080  12.117 -1.0002 -0.6049  1.2466
11824TIP3    H256964   0.626   6.138  12.253  0.7874  1.2083  0.1186
11825TIP3   OH256965   1.786   2.239  15.365  0.1518  0.1100 -0.1538
11825TIP3    H156966   1.872   2.197  15.378 -0.5447 -1.3661 -0.0973
11825TIP3    H256967   1.782   2.306  15.432  0.8053 -0.5782  0.5974
11826TIP3   OH256968   2.334   0.057  14.403  0.2268 -0.1122 -0.0715
11826TIP3    H156969   2.416   0.037  14.357 -0.0963  0.3391 -0.8724
11826TIP3    H256970   2.321   0.151  14.389 -1.0313 -0.3860 -0.9983
11827TIP3   OH256971   3.176   1.794   2.136 -0.4404 -0.4455 -0.4673
11827TIP3    H156972   3.241   1.758   2.076  0.3977 -0.6861  0.5810
11827TIP3    H256973   3.225   1.822   2.212 -1.2399  1.6057 -0.6319
11828TIP3   OH256974   5.753   5.558   2.849 -0.5022  0.1915 -0.7548
11828TIP3    H156975   5.739   5.602   2.765  0.1328 -0.7966 -1.4053
11828TIP3    H256976   5.671   5.513   2.868 -1.2111  1.7344 -0.0063
11829TIP3   OH256977   3.700   6.633   2.429  0.0436  0.2715 -0.1497
11829TIP3    H156978   3.769   6.649   2.365  0.1827  0.6532  0.0898
11829TIP3    H256979   3.747   6.603   2.507 -0.2353 -1.8476 -0.7301
11830TIP3   OH256980   1.703   4.149  15.132 -0.5485  0.1236 -0.1170
11830TIP3    H156981   1.670   4.085  15.195 -1.2827  1.4976  0.9362
11830TIP3    H256982   1.682   4.111  15.047 -0.9001 -1.0752  0.4803
11831TIP3   OH256983   0.282   3.685  16.740  0.7265  0.0496  0.0153
11831TIP3    H156984   0.188   3.700  16.732  0.8668  0.7201 -0.4640
11831TIP3    H256985   0.297   3.673  16.834 -0.1361 -2.2314 -0.0774
11832TIP3   OH256986   2.486   1.492  12.185  0.5532 -0.1912  0.3570
11832TIP3    H156987   2.518   1.449  12.105 -0.4433 -1.0706  0.4026
11832TIP3    H256988   2.416   1.434  12.216 -0.9732  1.5656  0.3385
11833TIP3   OH256989   4.201   1.947  15.025  0.7391 -0.2018  0.0449
11833TIP3    H156990   4.169   1.911  14.942  0.2456  0.7612 -0.1908
11833TIP3    H256991   4.137   2.014  15.049  0.3813 -1.0890  1.6858
11834TIP3   OH256992   1.910   6.704  11.047 -0.3458  0.3272  0.6875
11834TIP3    H156993   1.890   6.623  11.094  0.6953  0.0456  0.6870
11834TIP3    H256994   1.874   6.691  10.960  1.9213 -1.1984 -0.1090
11835TIP3   OH256995   2.394   4.497   5.494  0.0255  0.1094  0.6248
11835TIP3    H156996   2.488   4.482   5.492  0.2371  1.3463 -0.7443
11835TIP3    H256997   2.366   4.488   5.403 -1.7384 -3.1370  1.3403
11836TIP3   OH256998   6.438   3.678   3.578 -0.0076 -0.0120 -0.2615
11836TIP3    H156999   6.392   3.629   3.509  1.2177 -0.4589 -0.7933
11836TIP3    H257000   6.463   3.611   3.642 -0.5052  0.2957  0.2566
11837TIP3   OH257001   0.313   4.543   3.761  0.1825 -0.1446  0.3887
11837TIP3    H157002   0.218   4.553   3.759 -0.2575 -3.3283  0.0539
11837TIP3    H257003   0.330   4.477   3.828  2.2403  0.7217  0.8111
11838TIP3   OH257004   3.693   0.415   4.491 -0.5578  0.4784 -0.0208
11838TIP3    H157005   3.642   0.458   4.559 -1.2252  0.0272 -0.2199
11838TIP3    H257006   3.682   0.472   4.414 -3.4284 -1.1344 -0.9899
11839TIP3   OH257007   2.998   3.344   2.728 -0.4830  0.0196 -0.1525
11839TIP3    H157008   2.999   3.288   2.806  0.3429 -0.8185 -0.7366
11839TIP3    H257009   3.023   3.430   2.761 -0.8845 -0.1469  0.6254
11840TIP3   OH257010   4.909   4.958   0.057  0.7417  0.3857  0.2077
11840TIP3    H157011   4.943   4.916   0.137  0.4620 -0.8479 -0.2972
11840TIP3    H257012   4.854   5.029   0.089  0.6424 -0.0820  1.1178
11841TIP3   OH257013   1.493   1.042  11.300  0.2050  0.1037 -0.4504
11841TIP3    H157014   1.421   1.085  11.254  0.3307  0.2031 -0.5544
11841TIP3    H257015   1.496   0.954  11.263  0.0488  0.0560 -0.3491
11842TIP3   OH257016   5.891   2.709  15.657 -0.6234  0.0106  0.6248
11842TIP3    H157017   5.947   2.660  15.717 -0.6261  1.1235  1.5708
11842TIP3    H257018   5.859   2.644  15.595  1.2196 -0.7606  0.4327
11843TIP3   OH257019   0.055   2.524   0.656 -0.4748  0.6673 -0.3442
11843TIP3    H157020  -0.006   2.459   0.691  1.2504  0.1172  1.8897
11843TIP3    H257021   0.131   2.473   0.629  0.0790  1.5600 -0.5131
11844TIP3   OH257022   3.992   5.235  11.421 -0.4338  0.0965  0.0143
11844TIP3    H157023   4.081   5.247  11.456  0.4820 -1.1391 -1.7170
11844TIP3    H257024   3.946   5.316  11.444  1.1192  0.7479  1.0071
11845TIP3   OH257025   3.414   6.388   6.784 -0.2340 -0.2955  0.2265
11845TIP3    H157026   3.391   6.412   6.694  0.2218 -1.1819 -0.1382
11845TIP3    H257027   3.377   6.301   6.796 -1.0158  0.1470  1.1937
11846TIP3   OH257028   3.413   3.389   2.895 -0.2680 -0.4920  0.0985
11846TIP3    H157029   3.351   3.395   2.822  1.6793 -1.8256 -1.8250
11846TIP3    H257030   3.472   3.464   2.883 -0.1950 -0.4788  0.5435
11847TIP3   OH257031   5.102   5.384  11.555  0.0555  0.1006 -0.1345
11847TIP3    H157032   5.042   5.379  11.481 -0.7225  2.0209  0.3212
11847TIP3    H257033   5.056   5.436  11.621  1.9300  1.0809  0.4852
11848TIP3   OH257034   0.984   6.180   3.368  0.1602 -0.3937  0.0156
11848TIP3    H157035   1.006   6.271   3.387  1.2699 -0.6333 -0.0386
11848TIP3    H257036   0.888   6.176   3.372  0.1747  0.4213  1.6186
11849TIP3   OH257037   0.140   5.811  12.541 -0.7614 -0.0192 -0.4703
11849TIP3    H157038   0.092   5.844  12.617  1.3028  0.6508  0.6088
11849TIP3    H257039   0.076   5.757  12.494 -2.4710  0.6214  1.0071
11850TIP3   OH257040   2.000   3.873  13.976  0.2380 -0.2892  0.4471
11850TIP3    H157041   2.018   3.788  14.016  1.4213 -0.5194 -0.5122
11850TIP3    H257042   1.931   3.855  13.911 -0.1204 -0.3361  0.8345
11851TIP3   OH257043   1.275   3.254  13.480  0.8628  0.8841 -0.1678
11851TIP3    H157044   1.310   3.206  13.404  1.7145 -0.2219  0.8830
11851TIP3    H257045   1.334   3.328  13.490  1.1268  0.6796 -0.2002
11852TIP3   OH257046   4.614   0.414  16.031  0.0932 -0.0760 -0.2805
11852TIP3    H157047   4.648   0.490  15.982  0.8931 -0.2182  0.0364
11852TIP3    H257048   4.530   0.394  15.989 -1.0183  2.0721  0.7410
11853TIP3   OH257049   5.487   5.919  11.048 -0.0601 -0.7690 -0.3385
11853TIP3    H157050   5.510   5.944  11.137 -1.7969  1.0685 -0.3496
11853TIP3    H257051   5.427   5.846  11.058  0.0793 -0.8438 -0.0288
11854TIP3   OH257052   1.559   4.917   3.439  0.0859 -0.1356 -0.0299
11854TIP3    H157053   1.545   4.883   3.528 -0.5832  1.6794  0.6067
11854TIP3    H257054   1.631   4.979   3.448  0.1755 -0.1212 -0.8165
11855TIP3   OH257055   0.125   6.403   4.034 -0.0609 -0.2645 -0.3735
11855TIP3    H157056   0.156   6.480   3.986 -1.0253  1.4882  1.6439
11855TIP3    H257057   0.091   6.345   3.966  0.3645  1.2381 -1.9539
11856TIP3   OH257058   0.838   6.449  17.107 -0.0929 -0.6775  0.0184
11856TIP3    H157059   0.817   6.454  17.014 -0.0406 -0.7793 -0.0001
11856TIP3    H257060   0.888   6.529  17.125  1.0364 -1.2689 -0.3410
11857TIP3   OH257061   5.565   3.464   0.437  0.4540  0.2273 -0.7205
11857TIP3    H157062   5.529   3.375   0.433  0.3568  0.0015  2.4458
11857TIP3    H257063   5.497   3.519   0.397 -0.2045 -0.9600 -1.2680
11858TIP3   OH257064   0.248   1.360   0.064 -0.5605 -0.2310 -0.4443
11858TIP3    H157065   0.326   1.414   0.077  0.3586 -1.0218 -2.3658
11858TIP3    H257066   0.186   1.393   0.129  0.9558  1.1938  0.3692
11859TIP3   OH257067   1.447   2.882   1.218  0.0364 -0.1494 -0.1857
11859TIP3    H157068   1.489   2.907   1.300 -1.2878 -0.6963  0.7014
11859TIP3    H257069   1.458   2.787   1.214  0.9257 -0.0266 -1.1464
11860TIP3   OH257070   2.296   3.796  12.836  0.2180 -0.3179  0.3626
11860TIP3    H157071   2.335   3.756  12.915  2.3053  1.0059  0.0898
11860TIP3    H257072   2.348   3.760  12.764 -0.9508 -0.6565 -0.3341
11861TIP3   OH257073   6.610   0.561   0.829 -0.5032 -0.1108  0.0009
11861TIP3    H157074   6.586   0.609   0.750 -0.6076 -1.3717 -0.7658
11861TIP3    H257075   6.625   0.629   0.896 -2.4242  0.8787 -0.5281
11862TIP3   OH257076   5.449   2.331   5.552 -0.2779 -0.1476 -0.2329
11862TIP3    H157077   5.425   2.373   5.634  1.0151 -0.6280  0.4217
11862TIP3    H257078   5.419   2.391   5.484 -1.2594  0.3123  0.5806
11863TIP3   OH257079   4.917   0.137  16.602 -0.4730  0.9639 -0.0799
11863TIP3    H157080   4.899   0.126  16.508  2.8232 -1.9102 -0.5935
11863TIP3    H257081   4.951   0.226  16.610 -0.3183  1.0895 -1.7247
11864TIP3   OH257082   0.231   6.002  12.153  0.3993  0.6264  0.0653
11864TIP3    H157083   0.291   5.941  12.197  1.7399  0.6203 -1.6226
11864TIP3    H257084   0.195   6.056  12.223  0.4512 -1.0338  1.4197
11865TIP3   OH257085   0.637   2.322  14.411  1.1047 -0.1255 -0.0129
11865TIP3    H157086   0.666   2.412  14.419  2.1159 -0.5691  1.9993
11865TIP3    H257087   0.634   2.305  14.317  0.5830  2.0692 -0.4281
11866TIP3   OH257088   6.389   2.466   3.416  0.0080  0.1748  0.3803
11866TIP3    H157089   6.295   2.457   3.407 -0.0473  2.3729 -2.9270
11866TIP3    H257090   6.402   2.557   3.445  1.0956  0.2926 -0.4088
11867TIP3   OH257091   4.960   0.876  12.841 -0.2499 -0.6182  0.1813
11867TIP3    H157092   5.011   0.795  12.840 -1.1456 -1.1890  0.3954
11867TIP3    H257093   4.898   0.867  12.769 -1.1120 -0.6141  0.9129
11868TIP3   OH257094   4.986   5.514  11.323 -0.1414  0.0579  0.2113
11868TIP3    H157095   4.926   5.445  11.295  1.1407 -0.3891 -1.6459
11868TIP3    H257096   4.966   5.589  11.266 -0.0420  0.4648  0.6994
11869TIP3   OH257097   0.425   6.257  15.516 -0.0802 -0.1379 -0.1466
11869TIP3    H157098   0.371   6.293  15.586 -0.0894 -0.3277 -0.0558
11869TIP3    H257099   0.498   6.214  15.561 -0.6448 -1.1884 -0.2032
11870TIP3   OH257100   3.431   5.417  15.250  0.6191 -0.0855  1.0203
11870TIP3    H157101   3.369   5.347  15.229  0.6117  0.1491  0.2191
11870TIP3    H257102   3.395   5.494  15.206  0.6716  0.4096  1.8211
11871TIP3   OH257103   2.990   0.442  14.141 -0.0249  0.2002  0.4299
11871TIP3    H157104   3.084   0.437  14.157 -0.0498  0.3490  0.6212
11871TIP3    H257105   2.954   0.480  14.221  0.0592  2.7114 -0.6207
11872TIP3   OH257106   5.977   0.985  16.262  0.1696 -0.5000  0.3758
11872TIP3    H157107   5.948   0.996  16.353  1.9836 -1.4048  1.1057
11872TIP3    H257108   5.925   1.048  16.213 -1.0490 -0.1663  1.9929
11873TIP3   OH257109   4.987   0.305  14.884 -0.1846 -0.4184  0.0625
11873TIP3    H157110   4.943   0.349  14.811  1.0108 -1.3669 -1.2867
11873TIP3    H257111   5.068   0.272  14.846  0.6884 -0.5691  1.9478
11874TIP3   OH257112   0.603   6.413   2.099 -0.0031  0.1175 -0.5454
11874TIP3    H157113   0.689   6.371   2.091 -0.9345 -1.8783 -0.7335
11874TIP3    H257114   0.558   6.390   2.018 -0.5850  1.4890 -0.6280
11875TIP3   OH257115   1.054   1.254  14.558  0.2049  0.3450  0.1317
11875TIP3    H157116   1.042   1.214  14.644 -0.5104 -2.6226 -1.1935
11875TIP3    H257117   1.125   1.203  14.518 -0.6468  0.4504 -1.6346
11876TIP3   OH257118   5.854   0.702  14.480  0.1516  0.1494 -0.5979
11876TIP3    H157119   5.927   0.737  14.430  0.1397  1.0111 -0.0219
11876TIP3    H257120   5.776   0.726  14.429  0.3144 -2.8092 -2.4795
11877TIP3   OH257121   5.498   4.822  14.238  0.4378 -0.0713 -0.3610
11877TIP3    H157122   5.577   4.790  14.281 -0.1156 -0.3913  0.4519
11877TIP3    H257123   5.494   4.775  14.155  1.7814  0.9086 -1.0025
11878TIP3   OH257124   2.245   6.710   5.580  0.9745  0.4307 -0.2461
11878TIP3    H157125   2.229   6.683   5.671  0.3096  0.5138 -0.3327
11878TIP3    H257126   2.276   6.800   5.587  2.0981  0.0389 -0.0286
11879TIP3   OH257127   1.559   4.873  13.559  0.6047 -0.7913  0.2535
11879TIP3    H157128   1.500   4.911  13.493  1.2885  0.2117  0.1970
11879TIP3    H257129   1.533   4.781  13.564 -1.6239 -0.1847  0.9333
11880TIP3   OH257130   0.306   1.894   4.573 -0.7932  0.6531 -0.5341
11880TIP3    H157131   0.263   1.919   4.655 -0.0414 -0.4099  0.2086
11880TIP3    H257132   0.397   1.878   4.598 -0.9652 -1.6912 -1.1332
11881TIP3   OH257133   0.014   5.655   0.930  0.1691 -0.8353  0.2103
11881TIP3    H157134   0.001   5.653   0.836 -2.2743  2.1931  0.3221
11881TIP3    H257135   0.107   5.672   0.942  0.1677  0.8646 -1.7624
11882TIP3   OH257136   5.192   2.935   6.677 -0.3019  0.5301 -0.3184
11882TIP3    H157137   5.179   3.020   6.719 -3.5092  0.3132 -0.6338
11882TIP3    H257138   5.124   2.879   6.715  0.4729 -1.3599 -1.5623
11883TIP3   OH257139   1.070   1.644   5.648  0.0254  1.0364 -0.0159
11883TIP3    H157140   1.023   1.567   5.617  1.7587  0.1238 -0.5161
11883TIP3    H257141   1.029   1.717   5.602 -0.7355  0.2680 -0.5986
11884TIP3   OH257142   6.150   0.300   1.535  0.0968 -0.2776 -1.0198
11884TIP3    H157143   6.218   0.347   1.487  0.4993 -0.5989 -0.7764
11884TIP3    H257144   6.191   0.279   1.619 -0.2037 -0.7410 -0.9867
11885TIP3   OH257145   5.580   6.153  16.252 -0.6729  0.3495  0.1085
11885TIP3    H157146   5.510   6.171  16.315  0.7802  0.2882  1.8283
11885TIP3    H257147   5.536   6.107  16.181 -2.0315 -1.8299  2.1866
11886TIP3   OH257148   5.188   3.862  16.094  0.1044  0.1139  0.8020
11886TIP3    H157149   5.260   3.924  16.101  1.6308 -1.4701 -0.0500
11886TIP3    H257150   5.109   3.915  16.103  1.3647  1.9028  1.8097
11887TIP3   OH257151   1.105   6.684   3.853  0.1571  0.0783 -0.0380
11887TIP3    H157152   1.179   6.740   3.826  1.8321 -2.5155 -1.2179
11887TIP3    H257153   1.134   6.645   3.935 -0.3667 -0.1780  0.0268
11888TIP3   OH257154   0.317   1.295   2.421 -0.0857 -0.0730 -0.1359
11888TIP3    H157155   0.276   1.381   2.407 -2.2294 -0.9128  0.5184
11888TIP3    H257156   0.379   1.309   2.492 -2.0555  0.5245  1.5729
11889TIP3   OH257157   0.672   2.786  16.141 -0.4350 -0.6663  0.3925
11889TIP3    H157158   0.605   2.819  16.200 -1.8971  1.8285 -2.3824
11889TIP3    H257159   0.625   2.730  16.079  0.4306 -0.6991 -0.2634
11890TIP3   OH257160   4.557   5.383  14.816 -0.3316 -0.0480  0.5990
11890TIP3    H157161   4.585   5.474  14.821  3.0316 -0.8261 -1.2624
11890TIP3    H257162   4.488   5.382  14.749 -0.1292  1.0508  0.3686
11891TIP3   OH257163   1.414   2.091   5.112 -0.2539  0.0275  0.2853
11891TIP3    H157164   1.464   2.165   5.147 -1.2370  0.2449  1.3144
11891TIP3    H257165   1.448   2.077   5.024  1.0746  0.6470  0.6867
11892TIP3   OH257166   2.405   5.546   4.478 -0.2101 -0.1267  0.2534
11892TIP3    H157167   2.375   5.499   4.400 -0.4447 -1.0517  0.8812
11892TIP3    H257168   2.453   5.481   4.529  2.0032  1.0421 -0.2012
11893TIP3   OH257169   1.707   4.204  10.819  0.4714  0.0661  0.6315
11893TIP3    H157170   1.794   4.193  10.856  0.6179  0.7593  0.5012
11893TIP3    H257171   1.689   4.298  10.826 -0.0242  0.0173  0.1197
11894TIP3   OH257172   5.821   1.166  14.845  0.1917  0.1559 -0.2821
11894TIP3    H157173   5.748   1.203  14.795  0.0654  0.8603  0.4229
11894TIP3    H257174   5.812   1.071  14.832 -1.3870  0.1606  0.5085
11895TIP3   OH257175   3.039   4.640   2.255 -0.0287 -0.0867 -0.0638
11895TIP3    H157176   2.981   4.706   2.293  1.1106  0.3292  1.0183
11895TIP3    H257177   3.111   4.691   2.217 -0.1736 -0.6111 -1.0798
11896TIP3   OH257178   5.435   3.579  11.779  0.4689  0.4708 -0.2012
11896TIP3    H157179   5.513   3.524  11.771 -0.0755 -0.1692 -1.6246
11896TIP3    H257180   5.365   3.517  11.802  0.4955  1.1539  1.8358
11897TIP3   OH257181   0.678   3.522  11.120 -0.2039  0.2623 -0.0718
11897TIP3    H157182   0.773   3.531  11.121 -0.1905  0.3899 -1.1821
11897TIP3    H257183   0.649   3.583  11.052 -0.9572 -0.8767 -0.7895
11898TIP3   OH257184   2.597   4.022  11.864  0.5847  0.1699 -0.1925
11898TIP3    H157185   2.611   3.937  11.823  0.9045  0.8080 -1.4305
11898TIP3    H257186   2.677   4.071  11.848  1.8541 -0.3918  3.4568
11899TIP3   OH257187   1.688   0.745  13.583  0.0063  0.0598  0.0970
11899TIP3    H157188   1.597   0.769  13.567  0.0936  2.0031  2.0276
11899TIP3    H257189   1.739   0.811  13.536  0.3433  0.4943  1.0432
11900TIP3   OH257190   2.531   6.615  15.557 -0.1630 -0.0091  0.6549
11900TIP3    H157191   2.475   6.626  15.633 -0.0084  0.0340  0.7632
11900TIP3    H257192   2.619   6.600  15.594  0.0968  0.9945  0.4761
11901TIP3   OH257193   6.121   0.057  12.804  0.2629 -0.4112  0.2381
11901TIP3    H157194   6.119   0.132  12.864 -1.2797 -1.2652  1.3270
11901TIP3    H257195   6.039   0.011  12.821  0.6559 -1.7250 -1.2265
11902TIP3   OH257196   1.240   2.769  11.615  0.3417 -0.1677 -0.7975
11902TIP3    H157197   1.334   2.752  11.612  0.1869 -0.9742 -2.8999
11902TIP3    H257198   1.232   2.862  11.598  0.8163  0.4514  1.9451
11903TIP3   OH257199   4.279   4.968   1.795  0.0774 -0.0625  0.2432
11903TIP3    H157200   4.307   5.030   1.862 -0.4249 -0.2401  0.6276
11903TIP3    H257201   4.268   4.885   1.841 -0.3923 -0.1593 -0.0267
11904TIP3   OH257202   0.111   2.955  16.850 -0.7507  0.1076  0.1788
11904TIP3    H157203   0.071   2.939  16.935 -0.9609 -1.2424 -0.1440
11904TIP3    H257204   0.097   3.048  16.833 -2.9200 -0.1097  0.5013
11905TIP3   OH257205   5.402   1.242  13.555  0.0128 -0.0978  0.5080
11905TIP3    H157206   5.333   1.281  13.502 -1.3861 -1.9308  0.8926
11905TIP3    H257207   5.483   1.262  13.507 -0.6867  2.3780  0.2314
11906TIP3   OH257208   2.484   0.278  12.206  0.8849  0.0763 -0.3670
11906TIP3    H157209   2.499   0.188  12.179 -0.6527  0.1221 -1.5028
11906TIP3    H257210   2.480   0.274  12.301 -3.7108 -1.9517 -0.3874
11907TIP3   OH257211   5.466   0.991   2.091  0.4143  0.4388  0.2566
11907TIP3    H157212   5.534   0.949   2.038  0.1602 -1.1845  1.1449
11907TIP3    H257213   5.512   1.060   2.139  1.1149  0.3771 -0.3091
11908TIP3   OH257214   5.045   3.018   6.412 -0.2344  0.6732 -0.3759
11908TIP3    H157215   5.030   3.106   6.447 -1.0598  0.6334 -0.6043
11908TIP3    H257216   4.966   2.969   6.436  0.4875 -0.1966  0.3157
11909TIP3   OH257217   6.036   5.354  15.603  0.5735 -0.4631  0.3826
11909TIP3    H157218   5.950   5.388  15.624  0.4693  0.1177 -0.9195
11909TIP3    H257219   6.097   5.416  15.644  0.3713  0.1072 -0.1630
11910TIP3   OH257220   1.754   4.037   2.415  0.5972  0.1246  0.4456
11910TIP3    H157221   1.678   4.062   2.468  0.6160  0.9931  0.0729
11910TIP3    H257222   1.717   3.997   2.337  0.5117  0.8641  0.1052
11911TIP3   OH257223   0.639   6.304   6.135 -0.2118 -0.1997 -0.3625
11911TIP3    H157224   0.619   6.339   6.221  0.3106 -1.0762  0.1337
11911TIP3    H257225   0.568   6.243   6.117  0.4897 -1.2068  0.1661
11912TIP3   OH257226   0.589   0.163   1.120  0.5863 -0.6919 -0.6073
11912TIP3    H157227   0.570   0.113   1.199  1.6063 -1.2876 -0.7287
11912TIP3    H257228   0.503   0.186   1.085  0.1156 -1.7832 -0.1907
11913TIP3   OH257229   1.802   6.207   3.966 -0.5079 -0.2918 -0.0471
11913TIP3    H157230   1.766   6.178   4.050 -0.9548  0.7029  0.1144
11913TIP3    H257231   1.730   6.198   3.904 -0.6699  0.4871  0.0153
11914TIP3   OH257232   3.402   2.753  13.671  0.3463  0.4220  0.0069
11914TIP3    H157233   3.463   2.815  13.710  0.5745  0.5311 -0.5104
11914TIP3    H257234   3.337   2.807  13.627 -0.1215  0.3062  0.5470
11915TIP3   OH257235   0.400   2.074   5.052  0.2433  0.1648  0.5102
11915TIP3    H157236   0.416   2.168   5.056  1.4595 -0.0067  0.2411
11915TIP3    H257237   0.331   2.058   5.116  1.1994  1.0161  1.8053
11916TIP3   OH257238   6.440   4.663   3.942  0.3093 -0.0824  0.2998
11916TIP3    H157239   6.520   4.664   3.994  0.6986 -1.7564 -0.2065
11916TIP3    H257240   6.460   4.605   3.868 -0.6444  1.2206 -1.0372
11917TIP3   OH257241   5.268   4.447   4.416 -0.2365  0.3288  0.0042
11917TIP3    H157242   5.343   4.502   4.438 -0.0956  0.5676 -1.0239
11917TIP3    H257243   5.282   4.421   4.325 -1.4469  0.4789 -0.2499
11918TIP3   OH257244   0.154   1.614  15.224  0.1821 -0.1489  0.4645
11918TIP3    H157245   0.200   1.661  15.294  1.2445 -1.1389  0.4605
11918TIP3    H257246   0.078   1.669  15.205  0.6442  0.8679  1.3981
11919TIP3   OH257247   4.181   6.163   0.754 -0.2487  0.5933 -0.2338
11919TIP3    H157248   4.112   6.197   0.811  0.6591  1.3208  0.4605
11919TIP3    H257249   4.255   6.222   0.768  0.4243 -0.0037 -1.1770
11920TIP3   OH257250   0.978   2.667   2.173  0.0307  0.1955  0.4388
11920TIP3    H157251   1.023   2.697   2.094  1.4354 -0.7317  0.8389
11920TIP3    H257252   1.029   2.703   2.245 -1.4255  1.3019  0.9565
11921TIP3   OH257253   1.356   6.347   4.571 -0.7664  0.2206  0.3070
11921TIP3    H157254   1.406   6.389   4.640  0.8383  0.7823 -1.1223
11921TIP3    H257255   1.380   6.394   4.491 -0.8969 -1.7412 -0.9760
11922TIP3   OH257256   3.766   3.423  17.153 -0.4065  0.2515 -0.8091
11922TIP3    H157257   3.721   3.434  17.070 -0.4924 -0.2580 -0.8350
11922TIP3    H257258   3.855   3.454  17.137  0.4856 -2.5230 -1.9717
11923TIP3   OH257259   6.724   6.495   3.411 -0.0834 -0.0330  0.1939
11923TIP3    H157260   6.816   6.490   3.436  0.1625  0.0748 -0.6606
11923TIP3    H257261   6.676   6.488   3.494  0.6319 -1.9420  0.4969
11924TIP3   OH257262   0.394   2.370  12.886 -0.3143 -0.1098  0.2539
11924TIP3    H157263   0.404   2.456  12.846  0.6116  1.3057  3.2461
11924TIP3    H257264   0.328   2.383  12.954  0.3545 -1.5553  1.2316
11925TIP3   OH257265   5.650   0.830   0.554 -0.1884 -0.0587  0.1574
11925TIP3    H157266   5.699   0.871   0.625 -0.3701  1.5360 -0.5807
11925TIP3    H257267   5.594   0.901   0.520  0.4306 -0.5577 -2.0487
11926TIP3   OH257268   0.826   2.061   0.340 -0.0069 -0.3250 -0.7313
11926TIP3    H157269   0.883   2.125   0.297  1.6257 -0.3463  1.2377
11926TIP3    H257270   0.885   1.989   0.364 -1.5881 -2.0624 -1.8477
11927TIP3   OH257271   2.323   0.218   2.954  0.2276  0.6385 -0.3053
11927TIP3    H157272   2.246   0.273   2.940 -2.2111 -2.3395  0.3228
11927TIP3    H257273   2.333   0.169   2.872  1.1613  0.6559 -0.2101
11928TIP3   OH257274   3.934   4.198   2.227 -0.2507 -0.1378  0.1456
11928TIP3    H157275   3.967   4.278   2.268 -1.2893  1.2595 -1.6066
11928TIP3    H257276   3.925   4.220   2.135  0.1292 -2.5414 -0.5510
11929TIP3   OH257277   0.057   0.780  16.874 -0.0105 -0.0858 -0.3735
11929TIP3    H157278   0.078   0.870  16.851 -0.5318  0.2868  0.5535
11929TIP3    H257279   0.132   0.751  16.927  0.2157 -0.2492 -0.7744
11930TIP3   OH257280   5.322   3.814   1.656 -0.1528 -0.2826 -0.2694
11930TIP3    H157281   5.305   3.761   1.578 -1.0303 -0.7286  0.2089
11930TIP3    H257282   5.412   3.794   1.680  0.0298 -0.3582 -1.0085
11931TIP3   OH257283   5.731   0.936   0.848 -0.1361 -0.7489 -0.3196
11931TIP3    H157284   5.667   0.980   0.904 -1.3148 -1.2732 -1.2356
11931TIP3    H257285   5.789   1.006   0.818  0.2915 -0.3935  1.2091
11932TIP3   OH257286   1.854   6.715   4.526 -0.1940 -0.2621 -0.7137
11932TIP3    H157287   1.768   6.683   4.553 -0.1488 -0.8554 -1.2640
11932TIP3    H257288   1.861   6.802   4.567  0.1413 -1.3417  1.7382
11933TIP3   OH257289   3.226   5.124  13.174  0.1399  0.0332  0.1579
11933TIP3    H157290   3.257   5.126  13.083 -0.1148  2.1793  0.0638
11933TIP3    H257291   3.140   5.167  13.170 -0.4071 -0.9057  1.2576
11934TIP3   OH257292   5.317   6.428   5.557  0.2857 -0.2280  0.7345
11934TIP3    H157293   5.380   6.413   5.627 -0.2512 -1.5805  0.9417
11934TIP3    H257294   5.357   6.388   5.480 -1.0191 -2.6903  1.2298
11935TIP3   OH257295   1.074   5.181  14.688 -0.0765 -0.2467 -0.6063
11935TIP3    H157296   1.055   5.269  14.721 -1.0171 -0.1596 -1.3213
11935TIP3    H257297   1.063   5.124  14.765 -0.4738  0.1480 -0.3623
11936TIP3   OH257298   6.344   0.048  13.608 -0.1529  0.6400 -0.8112
11936TIP3    H157299   6.378   0.121  13.557 -0.6343  1.9589  0.6920
11936TIP3    H257300   6.422  -0.003  13.631  0.1594  0.5207 -2.0493
11937TIP3   OH257301   1.831   4.640  15.900  0.2976 -0.0436  0.1581
11937TIP3    H157302   1.903   4.688  15.940 -0.1484  0.0793  0.8272
11937TIP3    H257303   1.868   4.553  15.881  0.8766  0.3019 -0.3375
11938TIP3   OH257304   1.485   3.737  12.701  0.5020  0.0020 -0.1897
11938TIP3    H157305   1.504   3.743  12.795 -0.3025  0.7700 -0.0574
11938TIP3    H257306   1.551   3.792  12.659  0.9539 -0.4607 -0.0841
11939TIP3   OH257307   1.399   5.502   5.018  0.4080  0.0944  0.0968
11939TIP3    H157308   1.315   5.498   4.971  1.7055  0.6632 -2.4413
11939TIP3    H257309   1.385   5.567   5.087 -1.5958 -0.7852  0.5827
11940TIP3   OH257310   6.259   4.802   2.079  0.8606 -0.0918 -0.1191
11940TIP3    H157311   6.294   4.764   2.159  0.9562 -0.5169 -0.3600
11940TIP3    H257312   6.329   4.858   2.045  0.3128  1.2562  0.8494
11941TIP3   OH257313   6.710   0.792   5.543  0.2037 -0.0559 -0.1554
11941TIP3    H157314   6.745   0.799   5.454 -0.5223 -0.7767 -0.5178
11941TIP3    H257315   6.622   0.756   5.531  0.4003 -0.9635  0.9021
11942TIP3   OH257316   3.997   6.370  11.435 -0.4653 -0.6042  0.3701
11942TIP3    H157317   4.028   6.367  11.345  0.9191  2.2385  0.6263
11942TIP3    H257318   3.960   6.458  11.445 -1.9513 -1.3647  2.1789
11943TIP3   OH257319   3.252   0.742  13.669 -0.1538  0.0877  0.0591
11943TIP3    H157320   3.337   0.720  13.631 -0.4117  2.0018 -1.8470
11943TIP3    H257321   3.270   0.817  13.726 -0.3358 -0.4804  0.8673
11944TIP3   OH257322   0.082   4.431  13.111 -0.3133  0.9753  0.8036
11944TIP3    H157323   0.152   4.478  13.064  0.0019  1.0822  1.3698
11944TIP3    H257324   0.017   4.499  13.131 -0.6476  0.8518  0.1634
11945TIP3   OH257325   1.816   6.394   0.801 -0.3415 -0.2569 -0.3823
11945TIP3    H157326   1.831   6.466   0.863  1.3005 -0.1242 -0.8726
11945TIP3    H257327   1.743   6.423   0.747 -1.9633 -0.4617  1.5854
11946TIP3   OH257328   2.149   5.298  13.237  0.2046 -0.4819 -0.3360
11946TIP3    H157329   2.219   5.347  13.194 -1.5150 -0.0533 -2.8776
11946TIP3    H257330   2.189   5.215  13.261  1.5835 -0.2969 -1.7960
11947TIP3   OH257331   0.047   6.231   4.901  0.9184 -0.4036  0.3768
11947TIP3    H157332   0.067   6.162   4.838 -0.9032 -0.7145  0.0756
11947TIP3    H257333  -0.016   6.287   4.857  2.2829  1.4416  0.6628
11948TIP3   OH257334   4.883   5.075   2.870 -0.1764 -0.1832  0.1440
11948TIP3    H157335   4.851   5.069   2.960 -0.8800 -1.1674 -0.1636
11948TIP3    H257336   4.896   4.984   2.843  1.9886  0.1263 -0.0792
11949TIP3   OH257337   1.603   6.398  13.806 -1.1861 -0.5260 -0.1056
11949TIP3    H157338   1.648   6.478  13.831  1.4824 -1.8458 -0.4001
11949TIP3    H257339   1.559   6.420  13.723 -2.4408  1.2216  0.9696
11950TIP3   OH257340   6.681   3.780   4.034  0.0181  0.2188 -0.5173
11950TIP3    H157341   6.599   3.805   3.993 -1.5847  0.6397  2.6446
11950TIP3    H257342   6.675   3.685   4.044  0.5199  0.0836 -1.4131
11951TIP3   OH257343   2.851   6.554  13.597  0.3360  0.2152 -0.6309
11951TIP3    H157344   2.802   6.489  13.546  0.4981 -1.9493  1.7731
11951TIP3    H257345   2.854   6.631  13.540 -0.6752 -1.5325 -3.2761
11952TIP3   OH257346   4.318   5.583   0.748 -0.3696 -0.3778 -0.6233
11952TIP3    H157347   4.336   5.569   0.655  0.9881 -0.2027 -0.4114
11952TIP3    H257348   4.388   5.641   0.777 -0.3569 -1.0052  0.6729
11953TIP3   OH257349   5.855   3.171   4.622  0.0904  0.0654  0.3394
11953TIP3    H157350   5.877   3.244   4.565  0.9666 -0.9956 -0.7375
11953TIP3    H257351   5.773   3.197   4.664 -0.2278  1.1643 -0.9099
11954TIP3   OH257352   0.211   3.031  15.235 -0.1167  0.3132 -0.0916
11954TIP3    H157353   0.211   2.963  15.302 -1.2119  0.8792  0.5089
11954TIP3    H257354   0.296   3.074  15.244 -0.9229  1.5864  2.2347
11955TIP3   OH257355   4.732   4.431  12.802 -0.3461  0.1065 -0.0266
11955TIP3    H157356   4.694   4.446  12.888  0.5964 -2.8033  1.0085
11955TIP3    H257357   4.661   4.450  12.740 -0.5569  3.9645  1.1189
11956TIP3   OH257358   1.294   1.544  13.491 -0.4386 -0.0354  0.0897
11956TIP3    H157359   1.213   1.526  13.443 -0.2944 -0.3232 -0.0510
11956TIP3    H257360   1.305   1.639  13.485  0.4731 -0.2153 -1.9628
11957TIP3   OH257361   4.757   0.281  13.057 -0.4596 -0.2074 -0.1425
11957TIP3    H157362   4.745   0.299  13.151  0.5687  1.3652 -0.2731
11957TIP3    H257363   4.716   0.196  13.044 -0.3577 -0.6175  1.8068
11958TIP3   OH257364   3.724   0.738   3.821 -0.0715  0.0237 -0.7635
11958TIP3    H157365   3.746   0.806   3.885  0.3972  0.6622 -1.5783
11958TIP3    H257366   3.695   0.664   3.874 -3.9476  1.9205  0.1251
11959TIP3   OH257367   3.838   4.407   2.123 -0.0155 -0.1289 -0.8138
11959TIP3    H157368   3.759   4.353   2.131 -1.0524  1.2609 -1.3339
11959TIP3    H257369   3.846   4.451   2.207  1.3117 -1.6790 -0.0885
11960TIP3   OH257370   1.271   2.913  12.450 -0.1083  0.5013 -0.1628
11960TIP3    H157371   1.245   2.951  12.366  0.1085  0.7170 -0.1323
11960TIP3    H257372   1.212   2.838  12.461 -0.3611  0.6692 -0.3474
11961TIP3   OH257373   2.604   4.864   0.063 -0.4025  0.4062 -0.2118
11961TIP3    H157374   2.537   4.853  -0.005 -0.8534  1.2586  0.0882
11961TIP3    H257375   2.643   4.949   0.045  2.2864 -1.0163 -1.8204
11962TIP3   OH257376   4.236   5.754   3.505 -0.2557  0.5299  0.4926
11962TIP3    H157377   4.305   5.794   3.559  0.0954  0.0931  0.3742
11962TIP3    H257378   4.279   5.678   3.465 -0.0153  1.7478 -1.7081
11963TIP3   OH257379   4.050   5.102  11.057  0.5409  0.2303  0.4306
11963TIP3    H157380   3.960   5.098  11.023 -0.0410  0.3501  1.9192
11963TIP3    H257381   4.063   5.018  11.100  0.0257  1.3294  2.8766
11964TIP3   OH257382   0.829   5.171  10.495 -0.1135  0.2748 -0.5284
11964TIP3    H157383   0.864   5.216  10.572 -0.0731  0.6053 -0.7391
11964TIP3    H257384   0.779   5.098  10.531 -0.5414  0.7360 -0.1614
11965TIP3   OH257385   4.031   2.420   1.709 -0.0123  0.5815  0.1195
11965TIP3    H157386   4.103   2.468   1.670 -0.8630  2.1423  0.4107
11965TIP3    H257387   4.046   2.329   1.683  0.5227  1.2664 -2.1754
11966TIP3   OH257388   3.554   2.643  16.766  0.4227 -0.0412 -0.0007
11966TIP3    H157389   3.552   2.582  16.692 -1.0265  0.8822 -0.7846
11966TIP3    H257390   3.552   2.730  16.725 -1.2552  0.4891  1.0987
11967TIP3   OH257391   2.767   0.833  11.558 -0.2716  0.2053  0.1016
11967TIP3    H157392   2.861   0.846  11.562 -0.0399 -0.3877 -2.1600
11967TIP3    H257393   2.755   0.760  11.497 -2.1829  0.1123  0.5112
11968TIP3   OH257394   5.571   0.557  13.981 -0.3928 -0.3200  0.1420
11968TIP3    H157395   5.511   0.493  13.944 -0.8957 -0.4950  1.2179
11968TIP3    H257396   5.598   0.611  13.907 -0.3151 -1.4857 -0.7016
11969TIP3   OH257397   1.666   5.326  14.996  0.4228 -0.2142  0.3864
11969TIP3    H157398   1.611   5.401  15.020  1.3542  0.6197 -0.0353
11969TIP3    H257399   1.637   5.302  14.908  0.1318 -0.3638  0.5186
11970TIP3   OH257400   5.692   4.945  11.892 -0.1328 -0.3400  0.0859
11970TIP3    H157401   5.636   4.981  11.961  4.1832  1.8619  2.8988
11970TIP3    H257402   5.689   5.010  11.822 -0.1861  0.4256  0.7763
11971TIP3   OH257403   2.728   2.500  16.270  0.6135  0.1849 -0.3455
11971TIP3    H157404   2.749   2.437  16.339 -0.3101 -1.0509 -1.1393
11971TIP3    H257405   2.810   2.513  16.224  0.8277 -0.4378 -0.1545
11972TIP3   OH257406   4.081   6.455   4.019 -0.1115  0.3599  0.5125
11972TIP3    H157407   4.053   6.525   4.079  0.6278 -1.4307  3.1274
11972TIP3    H257408   4.176   6.455   4.024 -0.0569 -0.1510 -0.3099
11973TIP3   OH257409   2.533   3.899   1.829  0.4503 -0.1782 -0.8596
11973TIP3    H157410   2.559   3.818   1.784  1.2665 -0.0531 -0.6368
11973TIP3    H257411   2.513   3.871   1.919  1.3500 -0.0563 -0.6068
11974TIP3   OH257412   5.148   5.234  10.899 -0.0244  0.3463  0.2652
11974TIP3    H157413   5.160   5.232  10.804  0.7664 -0.6168  0.3672
11974TIP3    H257414   5.237   5.239  10.933 -0.0897 -2.2037  0.9961
11975TIP3   OH257415   5.538   2.716   0.069  0.0324  0.2443 -0.3477
11975TIP3    H157416   5.530   2.789   0.008 -1.5589  0.4949  0.1178
11975TIP3    H257417   5.611   2.740   0.126 -1.2359  2.1016  0.5806
11976TIP3   OH257418   5.179   1.089   1.513 -0.1371 -0.3976  0.2796
11976TIP3    H157419   5.121   1.161   1.538 -1.7033 -1.8417  1.0441
11976TIP3    H257420   5.146   1.059   1.428 -1.3965 -2.0205  1.2794
11977TIP3   OH257421   5.535   6.046  16.982  0.0207 -0.1216 -0.2951
11977TIP3    H157422   5.557   6.135  17.010 -0.0887 -0.3662  0.6200
11977TIP3    H257423   5.595   6.027  16.911 -0.7693  1.1368 -1.3373
11978TIP3   OH257424   6.419   2.585   6.183 -0.2038  0.2519 -0.5677
11978TIP3    H157425   6.498   2.547   6.144  0.9342 -0.1832  1.9880
11978TIP3    H257426   6.378   2.513   6.231 -2.5883  0.3077 -2.2829
11979TIP3   OH257427   0.729   0.942   2.311 -0.1591 -0.2344 -0.0334
11979TIP3    H157428   0.769   0.888   2.243 -0.0524  0.5027 -0.5611
11979TIP3    H257429   0.653   0.982   2.269 -0.1016  0.2113  0.2782
11980TIP3   OH257430   3.761   5.827  12.684 -0.4855  0.1297 -0.2729
11980TIP3    H157431   3.799   5.769  12.751 -1.4419 -0.8333 -0.5368
11980TIP3    H257432   3.836   5.854  12.631 -0.0982 -1.6043 -0.6779
11981TIP3   OH257433   2.495   4.027  14.079  0.3087 -0.1114 -0.0654
11981TIP3    H157434   2.476   4.060  14.167 -0.5091  1.3565 -0.7506
11981TIP3    H257435   2.410   4.025  14.036  0.6533 -1.1764 -0.7180
11982TIP3   OH257436   0.819   6.300   2.290 -0.5973 -0.1114 -0.0222
11982TIP3    H157437   0.899   6.265   2.329 -0.3590  1.1563  0.6635
11982TIP3    H257438   0.754   6.230   2.302  1.0354 -2.4464 -3.2092
11983TIP3   OH257439   5.633   3.138  16.723  0.4795  0.0836  0.2169
11983TIP3    H157440   5.596   3.102  16.804  0.3054  0.5637  0.3566
11983TIP3    H257441   5.703   3.196  16.753 -0.6307  1.5316  0.1376
11984TIP3   OH257442   2.644   2.175  14.053 -0.3538  0.5708 -0.1529
11984TIP3    H157443   2.710   2.119  14.093 -0.3519 -0.4251 -1.4812
11984TIP3    H257444   2.580   2.191  14.122 -0.9137 -1.9490 -0.0215
11985TIP3   OH257445   6.314   3.825  14.989 -1.0792 -0.2406 -0.1903
11985TIP3    H157446   6.254   3.797  15.059 -2.8060  0.3655 -1.3741
11985TIP3    H257447   6.358   3.902  15.026 -2.5108  0.5252  0.0177
11986TIP3   OH257448   5.098   4.207  12.617 -0.4468 -0.1034 -0.3586
11986TIP3    H157449   5.063   4.194  12.529  0.4127 -3.1939 -0.3539
11986TIP3    H257450   5.023   4.194  12.675 -0.4437 -1.0782 -0.5557
11987TIP3   OH257451   4.683   3.423   3.912  0.0418 -0.1510 -0.3672
11987TIP3    H157452   4.614   3.450   3.851  1.3339  1.8346 -1.0582
11987TIP3    H257453   4.664   3.470   3.993  1.4469  1.8163 -1.0950
11988TIP3   OH257454   1.511   6.338   1.006 -0.2715 -0.1587 -0.3278
11988TIP3    H157455   1.536   6.430   1.009  1.4288 -0.6078  0.0710
11988TIP3    H257456   1.530   6.305   1.094  1.1105 -1.3667 -1.0357
11989TIP3   OH257457   2.601   3.287  15.116  0.0203  0.2471 -0.4511
11989TIP3    H157458   2.626   3.228  15.045 -0.0634  1.2935 -1.3781
11989TIP3    H257459   2.584   3.371  15.073  0.7565  1.1329  0.8971
11990TIP3   OH257460   1.037   5.945   2.595 -0.4254  0.1900  0.3208
11990TIP3    H157461   1.005   5.869   2.548 -1.1056  0.5103  0.2603
11990TIP3    H257462   1.109   5.911   2.649 -0.5865 -0.4493  0.1421
11991TIP3   OH257463   1.537   4.871   4.820  0.5223  0.2706  0.0735
11991TIP3    H157464   1.505   4.897   4.906 -0.2796 -2.1033  0.5834
11991TIP3    H257465   1.555   4.777   4.828  1.4948  0.2106 -2.0370
11992TIP3   OH257466   5.555   4.443   0.911 -0.3257  0.1474 -0.4496
11992TIP3    H157467   5.574   4.490   0.830 -0.1716  1.3064  0.2430
11992TIP3    H257468   5.566   4.351   0.888  2.0764  0.5446 -1.1653
11993TIP3   OH257469   5.864   0.063   1.360  0.4786 -0.4312  0.0426
11993TIP3    H157470   5.950   0.040   1.326  0.9742  1.5227 -0.1204
11993TIP3    H257471   5.808  -0.011   1.335  1.9219 -1.3720 -0.5320
11994TIP3   OH257472   4.004   3.021   4.066  0.3986  0.2638  0.4591
11994TIP3    H157473   4.041   3.085   4.005 -0.3058  0.8178  0.6026
11994TIP3    H257474   3.986   2.944   4.012  1.4411  0.0969  0.3265
11995TIP3   OH257475   0.295   6.273   0.193 -0.0845 -0.1924  0.3088
11995TIP3    H157476   0.341   6.357   0.192  1.2078 -0.8837 -0.0881
11995TIP3    H257477   0.205   6.295   0.217  0.5175  1.1564  1.4643
11996TIP3   OH257478   3.521   1.849   5.749  0.5504  0.0196 -0.7788
11996TIP3    H157479   3.483   1.781   5.805  0.6024  0.2643 -0.4394
11996TIP3    H257480   3.570   1.904   5.810  0.7305  0.2048 -1.0909
11997TIP3   OH257481   5.623   3.245  15.460 -0.0963  0.2194 -0.9608
11997TIP3    H157482   5.612   3.162  15.507 -0.9893  1.7834  1.8323
11997TIP3    H257483   5.543   3.254  15.408  0.2919 -0.9213 -1.7899
11998TIP3   OH257484   2.630   0.123  12.427 -0.4114  0.0959  0.1142
11998TIP3    H157485   2.664   0.188  12.488 -2.7479  0.1626  1.4303
11998TIP3    H257486   2.709   0.085  12.387  1.1471  1.1460  2.0011
11999TIP3   OH257487   2.213   6.527   2.530 -0.2595  0.2837  0.1649
11999TIP3    H157488   2.203   6.609   2.481  0.8499  0.6875  0.5786
11999TIP3    H257489   2.301   6.496   2.507 -0.4211 -0.4517  0.5216
12000TIP3   OH257490   1.226   2.359   4.046  0.0651 -0.0681 -0.1194
12000TIP3    H157491   1.200   2.332   3.958 -1.0635  0.1220  0.1370
12000TIP3    H257492   1.185   2.445   4.057  0.4883  0.0624  0.4596
12001TIP3   OH257493   2.472   2.838  12.058 -0.6648 -0.1308 -0.2604
12001TIP3    H157494   2.535   2.856  11.988 -1.2945  0.9365 -0.5645
12001TIP3    H257495   2.387   2.848  12.017 -1.0440  0.4505  0.6450
12002TIP3   OH257496   2.263   5.383   1.149 -0.2607  0.4044  0.2343
12002TIP3    H157497   2.190   5.321   1.149 -0.0213  0.0848 -1.7172
12002TIP3    H257498   2.325   5.346   1.212 -0.1148 -1.4035 -0.8897
12003TIP3   OH257499   5.262   1.603   2.050  0.3329 -0.2436 -0.4256
12003TIP3    H157500   5.248   1.623   1.958  1.2688 -0.6933 -0.6752
12003TIP3    H257501   5.357   1.611   2.063  0.2115 -0.1475  0.5024
12004TIP3   OH257502   1.982   1.552   2.878 -0.2011  0.5375 -0.5999
12004TIP3    H157503   1.975   1.567   2.784 -0.4722  1.5900 -0.4249
12004TIP3    H257504   2.060   1.601   2.905 -0.7775  1.1882 -0.0964
12005TIP3   OH257505   4.472   1.990   0.085  0.1525  0.2453  0.4186
12005TIP3    H157506   4.475   1.895   0.095  3.1288  0.3082  1.1449
12005TIP3    H257507   4.381   2.013   0.103 -0.6103 -2.4288  0.4088
12006TIP3   OH257508   4.749   5.734  13.358  0.5765 -0.0526 -0.5599
12006TIP3    H157509   4.720   5.825  13.349  0.3225 -0.1184 -0.4256
12006TIP3    H257510   4.835   5.731  13.315  1.0327  0.4776  0.2996
12007TIP3   OH257511   6.434   3.330   3.373  0.1203 -0.1294  0.0410
12007TIP3    H157512   6.406   3.347   3.462  0.3822 -0.1925  0.1368
12007TIP3    H257513   6.454   3.237   3.371 -1.1651 -0.4083 -0.4435
12008TIP3   OH257514   3.971   0.713  11.701  0.3008  0.4313  0.0578
12008TIP3    H157515   4.050   0.767  11.691 -2.1130  4.1963 -0.8870
12008TIP3    H257516   3.940   0.699  11.612 -0.5422 -0.3048  0.4531
12009TIP3   OH257517   0.728   4.951   6.609 -0.0511 -0.8157  0.1058
12009TIP3    H157518   0.762   4.875   6.657 -0.1912 -0.9465 -0.0010
12009TIP3    H257519   0.805   4.988   6.567 -0.2684 -2.0929 -1.5164
12010TIP3   OH257520   3.851   2.510  12.647 -0.6776  0.3246 -0.7870
12010TIP3    H157521   3.809   2.578  12.700  0.6222  0.4071  0.1912
12010TIP3    H257522   3.923   2.556  12.603 -0.8464 -0.0661 -1.4857
12011TIP3   OH257523   2.720   1.942  12.317 -0.4342 -0.4005  0.0632
12011TIP3    H157524   2.665   1.967  12.243  0.9043  1.1521 -0.4791
12011TIP3    H257525   2.809   1.954  12.285  0.2188 -1.6109  1.3222
12012TIP3   OH257526   5.151   1.473   3.531 -0.1616 -0.1462  0.5039
12012TIP3    H157527   5.190   1.397   3.573  3.5360  1.8805  1.1621
12012TIP3    H257528   5.164   1.544   3.593  0.4793  1.8579 -1.7540
12013TIP3   OH257529   1.428   4.353   4.356  0.2191  0.8948  0.5786
12013TIP3    H157530   1.377   4.276   4.332 -0.2099  1.1000  0.8091
12013TIP3    H257531   1.430   4.406   4.276  0.9238  0.4313  0.2793
12014TIP3   OH257532   4.422   4.881   6.563  0.1560  0.4651  0.1502
12014TIP3    H157533   4.416   4.788   6.539 -1.0805  1.2145 -2.8437
12014TIP3    H257534   4.466   4.880   6.649 -0.5713 -2.8952  0.6422
12015TIP3   OH257535   5.442   2.104  12.129  0.2435 -0.0026  0.6594
12015TIP3    H157536   5.357   2.122  12.090  0.9464 -0.3421 -1.1040
12015TIP3    H257537   5.457   2.177  12.189 -0.9268  0.4759  0.3866
12016TIP3   OH257538   2.743   5.774   0.391  0.4619  0.4552  0.2903
12016TIP3    H157539   2.737   5.743   0.301  3.2280 -0.1212  0.2147
12016TIP3    H257540   2.673   5.729   0.437 -1.9427  1.8403 -1.7790
12017TIP3   OH257541   3.306   2.226   6.537  0.0889 -0.3971  0.0584
12017TIP3    H157542   3.353   2.300   6.498 -0.4628 -0.4523 -0.7438
12017TIP3    H257543   3.319   2.155   6.474 -2.4727  0.0434 -1.1191
12018TIP3   OH257544   3.498   0.195  15.380  0.2382  0.3298 -0.4179
12018TIP3    H157545   3.513   0.254  15.453  1.5387  0.1998 -0.5429
12018TIP3    H257546   3.491   0.252  15.304  0.8997  0.3807 -0.4533
12019TIP3   OH257547   1.276   5.357   5.298  0.0087 -0.3621  0.1205
12019TIP3    H157548   1.354   5.400   5.261  0.4704 -0.8287  0.5265
12019TIP3    H257549   1.271   5.390   5.388  0.6110 -1.4466  0.5699
12020TIP3   OH257550   6.486   4.986   4.330 -0.4881  0.4466  0.0912
12020TIP3    H157551   6.484   5.005   4.237 -1.6071  3.3731  0.5942
12020TIP3    H257552   6.566   5.028   4.362  0.2805 -1.1567  0.4096
12021TIP3   OH257553   2.532   5.809  11.237  0.1155  0.0501 -0.2934
12021TIP3    H157554   2.621   5.782  11.215 -0.8568 -2.2299 -1.7619
12021TIP3    H257555   2.480   5.730  11.229 -2.1219  1.3898  0.1766
12022TIP3   OH257556   2.877   4.566   3.605  0.2858 -0.3519  0.0156
12022TIP3    H157557   2.970   4.555   3.628 -0.3123 -1.6316  2.1187
12022TIP3    H257558   2.853   4.650   3.644  0.8117  0.6314 -1.6550
12023TIP3   OH257559   6.666   1.386   1.422 -0.4263  0.4628 -0.2715
12023TIP3    H157560   6.691   1.442   1.495  1.9528 -1.1692  0.2895
12023TIP3    H257561   6.572   1.372   1.433 -0.1063 -0.0272  2.7578
12024TIP3   OH257562   5.637   4.502  15.163 -0.7873 -0.5615  0.1806
12024TIP3    H157563   5.683   4.579  15.196  0.3497  0.2277 -2.8861
12024TIP3    H257564   5.544   4.523  15.172 -0.5706 -0.2655  2.3017
12025TIP3   OH257565   1.840   6.631  15.916  0.4536 -0.0971 -0.7213
12025TIP3    H157566   1.874   6.572  15.848 -0.2025 -1.0564 -0.2369
12025TIP3    H257567   1.875   6.595  15.998  0.5061  0.5259 -0.4696
12026TIP3   OH257568   2.677   6.448   5.541 -0.6347 -0.5421 -0.5484
12026TIP3    H157569   2.633   6.501   5.473 -0.0906  1.3167  0.4700
12026TIP3    H257570   2.666   6.500   5.621 -0.5767 -2.3122  0.6432
12027TIP3   OH257571   5.610   0.865   1.885  0.3903 -0.6109 -0.3838
12027TIP3    H157572   5.519   0.859   1.857 -0.1008  1.1939  0.6841
12027TIP3    H257573   5.661   0.842   1.807 -0.9495 -2.8808 -0.6549
12028TIP3   OH257574   4.017   4.615  15.679  0.1503 -0.1727  0.0207
12028TIP3    H157575   4.002   4.550  15.747  0.2062  1.0572  1.2519
12028TIP3    H257576   4.085   4.577  15.623  1.5194 -0.3946  1.7849
12029TIP3   OH257577   1.102   5.881  15.010  0.2565 -0.1809  0.2343
12029TIP3    H157578   1.105   5.970  15.046  1.6209  0.1943 -0.7032
12029TIP3    H257579   1.096   5.894  14.916  0.8841 -1.0653  0.0575
12030TIP3   OH257580   4.147   4.515  17.030 -0.2136 -0.3813  0.0311
12030TIP3    H157581   4.198   4.592  17.006  0.2884 -0.6265  0.3067
12030TIP3    H257582   4.097   4.494  16.950 -0.4887  0.3248  0.0120
12031TIP3   OH257583   5.517   0.650   4.290 -0.3183  0.3661  0.3484
12031TIP3    H157584   5.544   0.586   4.356  2.1770  0.1898 -0.7277
12031TIP3    H257585   5.447   0.607   4.242  0.2829 -0.9675  0.6192
12032TIP3   OH257586   5.086   5.915  14.282 -0.6257 -0.1394 -0.0272
12032TIP3    H157587   5.011   5.932  14.224  0.4414  2.9622 -0.7049
12032TIP3    H257588   5.148   5.868  14.226 -1.2846 -1.0549 -0.0210
12033TIP3   OH257589   4.323   6.428   2.804  0.2156  0.3038 -0.1443
12033TIP3    H157590   4.366   6.372   2.868  0.0699 -0.4058 -0.6581
12033TIP3    H257591   4.240   6.451   2.845  0.6270  0.8272  0.4118
12034TIP3   OH257592   2.997   5.568   0.051  0.0433 -0.4316 -0.2840
12034TIP3    H157593   3.027   5.657   0.032  0.9223 -0.7042 -0.2041
12034TIP3    H257594   2.973   5.570   0.143 -0.3901 -0.1578 -0.4001
12035TIP3   OH257595   4.169   4.409  13.413  0.9952  0.7981  0.1240
12035TIP3    H157596   4.224   4.344  13.369  0.6733  0.5736  0.0505
12035TIP3    H257597   4.207   4.493  13.388 -0.4094  0.8026 -2.3234
12036TIP3   OH257598   5.155   5.139  14.494  0.0970  0.3087  0.0501
12036TIP3    H157599   5.118   5.186  14.569 -3.4567 -3.4481  0.9918
12036TIP3    H257600   5.113   5.179  14.418  0.0897  1.0827  0.4478
12037TIP3   OH257601   2.873   0.358   3.023 -0.1350 -0.7929 -0.1019
12037TIP3    H157602   2.936   0.294   2.988 -1.3348 -2.7052  1.0836
12037TIP3    H257603   2.922   0.408   3.087  0.4580 -1.5436  0.0396
12038TIP3   OH257604   6.544   0.835  13.293  0.0029 -0.1456  0.0684
12038TIP3    H157605   6.590   0.849  13.376 -0.2306 -1.1897  0.3852
12038TIP3    H257606   6.480   0.766  13.313  0.5554 -1.0521 -1.1959
12039TIP3   OH257607   0.320   0.508   2.352 -0.2526  0.0665 -0.3378
12039TIP3    H157608   0.388   0.519   2.286  0.6432 -1.0449  0.3578
12039TIP3    H257609   0.257   0.578   2.333 -0.2113 -0.4068 -2.5606
12040TIP3   OH257610   6.594   5.138   1.872 -0.0301  0.3916 -0.0077
12040TIP3    H157611   6.565   5.211   1.927  0.2965 -0.4082  1.2664
12040TIP3    H257612   6.677   5.111   1.910 -0.4053 -0.9857 -0.1147
12041TIP3   OH257613   5.868   5.342   4.134  0.1193  0.2680 -0.1028
12041TIP3    H157614   5.800   5.404   4.108  0.1921  0.2838 -0.2621
12041TIP3    H257615   5.860   5.335   4.229 -1.5497 -1.4245 -0.3063
12042TIP3   OH257616   1.096   3.305  16.493 -0.1921 -0.1585  0.5268
12042TIP3    H157617   1.143   3.264  16.420 -2.6106 -1.7255 -0.2477
12042TIP3    H257618   1.163   3.314  16.562  1.6132 -0.7211 -1.0580
12043TIP3   OH257619   5.816   0.187   1.881  0.3426 -0.3536 -0.0320
12043TIP3    H157620   5.782   0.248   1.815  0.4570  0.8471  0.9806
12043TIP3    H257621   5.866   0.123   1.831 -0.6533 -0.2390 -1.2325
12044TIP3   OH257622   1.042   5.038  11.719  0.1337 -0.4092 -0.6517
12044TIP3    H157623   1.015   4.949  11.741  1.1425 -0.1718  1.8654
12044TIP3    H257624   1.058   5.036  11.625 -0.0777 -2.8101 -0.6879
12045TIP3   OH257625   1.704   1.737   2.314  0.1224 -0.1859  0.5465
12045TIP3    H157626   1.784   1.689   2.335  0.6418 -0.0763 -1.0627
12045TIP3    H257627   1.735   1.824   2.288 -0.5974  0.1608  0.8331
12046TIP3   OH257628   6.032   0.423   3.675  0.0384  0.5204  0.3267
12046TIP3    H157629   6.079   0.350   3.636 -0.0409  0.6498 -0.0134
12046TIP3    H257630   6.033   0.491   3.608  0.7241  1.0916  0.8895
12047TIP3   OH257631   1.412   4.219  17.049  0.0083 -0.1102  0.4184
12047TIP3    H157632   1.380   4.131  17.068 -1.3506  0.5751  1.3602
12047TIP3    H257633   1.493   4.226  17.100 -0.2206 -0.5778  0.8558
12048TIP3   OH257634   0.582   6.057  13.236 -0.6182 -0.6629  0.4389
12048TIP3    H157635   0.548   5.992  13.175 -2.6104  0.1204  0.6455
12048TIP3    H257636   0.664   6.019  13.268 -0.5438 -1.9866 -1.1845
12049TIP3   OH257637   1.569   0.728  14.652  0.5269 -0.0603  0.4109
12049TIP3    H157638   1.596   0.651  14.702  0.3231  0.2330  0.9754
12049TIP3    H257639   1.480   0.709  14.624  0.7595 -0.3680 -0.1353
12050TIP3   OH257640   4.784   1.384  12.214  0.1571 -0.2223  0.5589
12050TIP3    H157641   4.738   1.382  12.130  0.9878  0.0051  0.0796
12050TIP3    H257642   4.825   1.298  12.221  0.5641 -0.0408  0.4495
12051TIP3   OH257643   3.927   4.553  14.886  0.1886  0.6162 -0.7526
12051TIP3    H157644   3.925   4.530  14.979  3.3623 -0.6136 -0.8585
12051TIP3    H257645   3.942   4.469  14.842 -3.2390  0.8259 -2.6934
12052TIP3   OH257646   4.989   6.496  15.135 -0.0991  1.0683 -0.0978
12052TIP3    H157647   5.027   6.506  15.047  1.7829  1.9786  0.7621
12052TIP3    H257648   4.897   6.479  15.119  0.4834 -0.4601 -2.2974
12053TIP3   OH257649   0.443   6.165  11.661  0.5646 -0.9711 -0.2156
12053TIP3    H157650   0.436   6.237  11.724  1.0882  0.5775 -1.8083
12053TIP3    H257651   0.537   6.161  11.640  0.5518 -2.2032 -0.0691
12054TIP3   OH257652   3.012   5.296   3.724  0.5662 -0.2657 -0.3914
12054TIP3    H157653   3.001   5.207   3.689 -0.7662 -0.4041  0.3100
12054TIP3    H257654   3.078   5.286   3.794 -1.3365 -1.2370  1.3747
12055TIP3   OH257655   1.179   3.640   1.354  0.1985  0.3286 -0.1924
12055TIP3    H157656   1.099   3.617   1.306 -0.1277 -1.7469  1.2009
12055TIP3    H257657   1.222   3.706   1.300 -1.1052 -0.4782 -2.3317
12056TIP3   OH257658   5.288   3.778   3.251  0.6046 -0.4966 -1.0076
12056TIP3    H157659   5.289   3.683   3.261 -0.2844 -0.3750  0.6469
12056TIP3    H257660   5.196   3.798   3.231  0.5602  0.0846 -0.2584
12057TIP3   OH257661   2.085   0.522  15.161 -0.0639  0.0986  0.2807
12057TIP3    H157662   2.066   0.532  15.068 -0.2135  0.7982  0.3789
12057TIP3    H257663   1.999   0.523  15.203  0.0813  2.5346  0.6609
12058TIP3   OH257664   0.857   2.096   5.759  0.1881  0.0144 -0.9978
12058TIP3    H157665   0.875   2.017   5.809 -0.9789 -0.5317 -1.3899
12058TIP3    H257666   0.799   2.066   5.688 -0.8800  1.3244 -0.7231
12059TIP3   OH257667   1.296   3.766  13.519  0.2184  0.0471 -0.0810
12059TIP3    H157668   1.291   3.754  13.614 -0.0027  1.3181  0.0856
12059TIP3    H257669   1.207   3.790  13.493  0.6576  1.4509 -0.3355
12060TIP3   OH257670   0.146   4.206  14.988 -0.1651 -0.1660  0.0833
12060TIP3    H157671   0.055   4.229  15.008 -0.4545 -0.3433 -1.0035
12060TIP3    H257672   0.145   4.182  14.896  0.9772 -0.2479  0.0855
12061TIP3   OH257673   5.325   2.330  15.479 -0.3410  0.7246 -0.4153
12061TIP3    H157674   5.363   2.379  15.552 -0.1188  0.4231 -0.3269
12061TIP3    H257675   5.382   2.350  15.404  2.4473 -2.7567  0.5168
12062TIP3   OH257676   0.725   0.831  16.616 -0.0666  0.0942  0.0880
12062TIP3    H157677   0.685   0.796  16.696 -0.0539  1.6864  0.8270
12062TIP3    H257678   0.817   0.807  16.623 -0.1503 -0.1715  0.3166
12063TIP3   OH257679   5.383   2.888   5.578  0.0992  0.1909  0.0864
12063TIP3    H157680   5.472   2.914   5.600 -0.4910  1.7574  0.7107
12063TIP3    H257681   5.394   2.822   5.509  1.7294  0.4634  0.0521
12064TIP3   OH257682   5.820   2.089   4.914  0.4558  0.1361 -0.6207
12064TIP3    H157683   5.817   2.062   5.006 -1.0637 -1.2706 -1.0507
12064TIP3    H257684   5.912   2.112   4.900  0.9654 -0.7571  0.9452
12065TIP3   OH257685   2.015   5.123  12.055 -0.0616 -0.2492 -0.2742
12065TIP3    H157686   2.086   5.063  12.033  0.6672  0.4273  0.1879
12065TIP3    H257687   2.000   5.174  11.975  0.3893  0.0134 -0.1947
12066TIP3   OH257688   1.627   6.800  11.143  0.2056 -0.4485  0.3148
12066TIP3    H157689   1.603   6.875  11.089  0.3982 -0.6561 -0.0578
12066TIP3    H257690   1.648   6.730  11.081 -0.7179 -1.0543  0.6490
12067TIP3   OH257691   2.877   2.019  13.622  0.0553  0.2254  0.7489
12067TIP3    H157692   2.885   2.106  13.582 -0.9059 -0.5887 -1.3320
12067TIP3    H257693   2.787   1.992  13.604  0.7778 -1.8222 -0.0075
12068TIP3   OH257694   6.474   1.935   3.295  0.4877 -0.1922 -0.1558
12068TIP3    H157695   6.412   1.950   3.366 -1.2791  0.0808 -1.6824
12068TIP3    H257696   6.529   1.864   3.327  1.0671  1.2169  2.2598
12069TIP3   OH257697   4.171   4.807  13.073 -0.1464  0.0555 -0.0815
12069TIP3    H157698   4.076   4.807  13.060  0.0905  0.9882 -2.2072
12069TIP3    H257699   4.195   4.900  13.069  0.8574 -0.1559  0.6347
12070TIP3   OH257700   2.398   0.809   3.621  0.2924 -0.4247  0.3612
12070TIP3    H157701   2.308   0.775   3.624 -0.6337  1.7032 -0.5936
12070TIP3    H257702   2.452   0.738   3.655 -1.4531 -2.8050 -1.4543
12071TIP3   OH257703   4.477   6.232  13.153  0.2882  0.1181  0.2715
12071TIP3    H157704   4.422   6.275  13.087 -3.2868  0.7116  3.3362
12071TIP3    H257705   4.451   6.140  13.149 -0.4215  0.2674  1.2244
12072TIP3   OH257706   3.101   2.348   4.055 -0.1615  0.0428  0.3469
12072TIP3    H157707   3.194   2.329   4.060  0.1893  1.4584 -0.1312
12072TIP3    H257708   3.088   2.379   3.965 -0.5784  2.1055  1.0476
12073TIP3   OH257709   3.962   6.788  14.698 -0.7865  0.0570 -0.6160
12073TIP3    H157710   3.924   6.847  14.764 -2.3072  1.0338 -2.2542
12073TIP3    H257711   3.928   6.822  14.615  2.2372 -0.1965 -2.0670
12074TIP3   OH257712   6.376   6.291  11.723  0.4005  0.1584 -0.2589
12074TIP3    H157713   6.291   6.260  11.690  0.9660  0.0730 -1.7035
12074TIP3    H257714   6.415   6.337  11.649  0.8122  1.8949  0.9811
12075TIP3   OH257715   2.732   3.730  10.745  0.4057  0.3061  0.4493
12075TIP3    H157716   2.776   3.813  10.760  0.2744  0.1909  1.5698
12075TIP3    H257717   2.717   3.694  10.832  1.3017 -1.3323 -0.0136
12076TIP3   OH257718   2.170   5.316   0.661 -0.2999  0.1883 -0.1091
12076TIP3    H157719   2.105   5.311   0.590 -1.4183  1.5316  0.7803
12076TIP3    H257720   2.195   5.408   0.664  0.9430 -0.1384  0.2295
12077TIP3   OH257721   6.626   1.796   0.143  0.3707 -0.2425  0.1295
12077TIP3    H157722   6.611   1.888   0.164  0.7937  0.0637 -0.8836
12077TIP3    H257723   6.706   1.795   0.092 -0.4203 -0.9987 -1.1486
12078TIP3   OH257724   0.165   0.351  13.444  0.0315  0.1460 -0.1711
12078TIP3    H157725   0.115   0.348  13.526 -0.7836 -1.1508 -0.6892
12078TIP3    H257726   0.252   0.318  13.468 -0.5001 -1.1894 -0.0127
12079TIP3   OH257727   1.133   1.897   4.784  0.4208 -0.8342  0.1938
12079TIP3    H157728   1.137   1.942   4.869 -0.3707 -1.1230  0.3906
12079TIP3    H257729   1.197   1.826   4.793  0.7664 -0.5089  0.3337
12080TIP3   OH257730   0.860   5.249  11.062 -0.0021 -0.2301 -0.1401
12080TIP3    H157731   0.911   5.317  11.018  0.9612 -1.0716 -0.3686
12080TIP3    H257732   0.909   5.231  11.143 -1.5314  1.0107  1.1382
12081TIP3   OH257733   2.748   5.832   1.146  0.0626 -0.1931 -0.7969
12081TIP3    H157734   2.835   5.809   1.113  1.1427  2.8320 -0.3849
12081TIP3    H257735   2.729   5.917   1.106 -2.0293 -0.0518  0.3524
12082TIP3   OH257736   5.041   3.639   4.800  0.3042  0.3232 -0.2752
12082TIP3    H157737   5.022   3.711   4.740  2.3414  0.4271 -0.8714
12082TIP3    H257738   5.052   3.562   4.744  2.0352  0.3829 -0.0825
12083TIP3   OH257739   0.830   1.251  10.968 -0.0730 -0.0167  0.0153
12083TIP3    H157740   0.794   1.252  11.057  1.9709 -1.4904  0.9453
12083TIP3    H257741   0.756   1.274  10.912 -2.3335 -2.2914  1.8095
12084TIP3   OH257742   6.261   5.082   1.240 -0.0088 -0.2955 -0.5690
12084TIP3    H157743   6.342   5.133   1.236 -0.1520 -0.1309 -1.4338
12084TIP3    H257744   6.278   5.007   1.182 -0.8688  0.3097 -1.6300
12085TIP3   OH257745   0.032   0.777  11.766  0.1739  0.1810  0.0168
12085TIP3    H157746   0.030   0.715  11.839 -0.8153  0.1751  0.0065
12085TIP3    H257747   0.111   0.829  11.780  0.9608 -1.0142  0.0777
12086TIP3   OH257748   4.562   2.103   5.476 -0.0678  0.3298 -0.9212
12086TIP3    H157749   4.480   2.119   5.523 -0.8880 -1.1772 -1.7547
12086TIP3    H257750   4.614   2.049   5.536 -1.4256 -2.2561 -1.9140
12087TIP3   OH257751   1.740   1.047   1.969 -0.7410  0.1862 -0.3501
12087TIP3    H157752   1.835   1.059   1.969 -0.6826 -0.1880  0.2508
12087TIP3    H257753   1.727   0.952   1.963 -0.9739 -0.0506  2.4849
12088TIP3   OH257754   4.769   1.250   0.999  0.3030 -0.0234 -0.0541
12088TIP3    H157755   4.736   1.175   0.949  1.5765 -1.1809  0.7682
12088TIP3    H257756   4.769   1.220   1.090 -0.3700  1.4445  0.4547
12089TIP3   OH257757   4.305   6.092   4.238  0.7103  0.3743 -0.0561
12089TIP3    H157758   4.362   6.128   4.306  0.0247  1.5881 -0.0865
12089TIP3    H257759   4.274   6.169   4.190 -0.9751 -0.2467 -0.0277
12090TIP3   OH257760   2.780   0.156  11.844 -0.2566  0.1792  0.0157
12090TIP3    H157761   2.726   0.108  11.906  0.5358 -1.8202 -0.7554
12090TIP3    H257762   2.859   0.180  11.894 -0.3531  0.0726  0.2175
12091TIP3   OH257763   0.022   6.163   0.339 -0.1448  0.1887  0.5773
12091TIP3    H157764  -0.041   6.174   0.409 -0.4041  0.3688  0.3151
12091TIP3    H257765   0.036   6.068   0.334  1.1214  0.2657  1.9670
12092TIP3   OH257766   2.788   6.203   4.158 -0.3885  0.4584 -0.1213
12092TIP3    H157767   2.736   6.269   4.202  1.6554  0.9771  1.6735
12092TIP3    H257768   2.801   6.237   4.069 -0.7429  1.6480  0.2715
12093TIP3   OH257769   4.374   4.978  16.353  0.5997  0.5492  0.4523
12093TIP3    H157770   4.447   4.956  16.295 -0.5031 -1.2316 -0.3631
12093TIP3    H257771   4.334   4.893  16.375 -1.2188  1.4555  0.8462
12094TIP3   OH257772   3.677   0.408   0.739 -0.7365  0.4225 -0.2871
12094TIP3    H157773   3.715   0.449   0.817  1.3274 -0.1193 -0.9603
12094TIP3    H257774   3.737   0.337   0.717 -0.9647  0.8832 -2.6806
12095TIP3   OH257775   4.791   1.531   1.524  0.0706 -0.2250 -0.5318
12095TIP3    H157776   4.837   1.525   1.608 -0.9806  0.5492  0.1395
12095TIP3    H257777   4.759   1.443   1.508 -0.1236 -0.2876  0.1408
12096TIP3   OH257778   2.638   6.816   0.608 -0.3175 -0.0186 -0.5490
12096TIP3    H157779   2.597   6.807   0.694 -0.3538  3.3845 -0.0851
12096TIP3    H257780   2.566   6.815   0.546 -0.3168 -2.1552 -0.5843
12097TIP3   OH257781   6.109   0.302   5.396  0.7678  0.3541  0.5212
12097TIP3    H157782   6.108   0.395   5.373  2.8573  1.1016  3.0402
12097TIP3    H257783   6.201   0.282   5.412  0.0595 -1.3174  2.9728
12098TIP3   OH257784   5.167   5.322   1.005 -0.1322 -0.0540  0.2564
12098TIP3    H157785   5.191   5.230   0.993 -2.4116 -0.8010  0.8498
12098TIP3    H257786   5.136   5.327   1.096 -0.7678  1.1038 -0.0009
12099TIP3   OH257787   0.596   6.625  13.792  0.4382  0.0131 -0.0818
12099TIP3    H157788   0.602   6.720  13.779  2.9240 -0.3217 -2.3676
12099TIP3    H257789   0.557   6.615  13.879  0.5305  3.1154  0.4390
12100TIP3   OH257790   6.305   3.093  13.720  0.3008  0.1814 -0.3854
12100TIP3    H157791   6.226   3.093  13.665  1.5238  1.3901 -2.2684
12100TIP3    H257792   6.370   3.047  13.667  1.4998  1.2693  0.1153
12101TIP3   OH257793   5.443   6.415   3.100  0.6296  0.3288  0.5908
12101TIP3    H157794   5.430   6.343   3.039 -2.1346  0.9936  0.2606
12101TIP3    H257795   5.507   6.382   3.163 -0.1541 -2.2199  0.1496
12102TIP3   OH257796   2.588   6.366   4.020  0.2816 -1.0277 -0.2072
12102TIP3    H157797   2.523   6.309   3.980 -1.9667  0.4921  1.0506
12102TIP3    H257798   2.540   6.413   4.089  1.4726  3.4727 -2.0694
12103TIP3   OH257799   5.019   2.997  13.901 -0.3913  0.4386 -0.4103
12103TIP3    H157800   5.079   2.959  13.964  0.5492  0.1459 -1.4452
12103TIP3    H257801   4.967   3.060  13.951  0.8277  0.7483  0.4986
12104TIP3   OH257802   0.234   5.834  15.167 -0.6323 -0.2194  0.1087
12104TIP3    H157803   0.214   5.785  15.087 -2.1849 -1.9405  1.4580
12104TIP3    H257804   0.308   5.787  15.206  0.3972  0.8659 -0.4819
12105TIP3   OH257805   2.247   6.730   0.205 -0.5656  0.1348 -0.4507
12105TIP3    H157806   2.293   6.655   0.167 -1.1846 -0.8244  0.6316
12105TIP3    H257807   2.154   6.712   0.189 -0.6931  0.8955 -0.5858
12106TIP3   OH257808   5.525   4.491   2.396 -0.2459  0.5789  0.1617
12106TIP3    H157809   5.536   4.557   2.463 -0.3873  0.9001 -0.1300
12106TIP3    H257810   5.489   4.415   2.442  1.9123 -0.0490  0.9027
12107TIP3   OH257811   2.735   0.951   0.694  0.2777  0.2607  0.1910
12107TIP3    H157812   2.822   0.976   0.662 -0.6231  0.0440 -2.7508
12107TIP3    H257813   2.741   0.856   0.705  0.0556  0.0092 -1.5213
12108TIP3   OH257814   2.297   1.505   0.914 -1.0795 -0.2115  0.2391
12108TIP3    H157815   2.342   1.424   0.938 -1.9559 -2.0078 -3.4847
12108TIP3    H257816   2.366   1.561   0.878 -0.6828  0.2029  1.6053
12109TIP3   OH257817   5.514   1.210   6.460 -0.0656 -0.4073  0.0077
12109TIP3    H157818   5.455   1.285   6.449 -1.0656 -1.3340 -1.2466
12109TIP3    H257819   5.487   1.148   6.392  0.8581 -1.8291  0.8816
12110TIP3   OH257820   3.055   5.968  16.939 -0.0315  0.3614 -0.2575
12110TIP3    H157821   3.116   5.896  16.931  0.0096  0.3353  0.2829
12110TIP3    H257822   2.986   5.949  16.875 -0.3967 -0.5377  0.3791
12111TIP3   OH257823   2.891   1.861   4.121 -0.3496  0.1522  0.2105
12111TIP3    H157824   2.814   1.886   4.172 -1.6406  2.8751 -2.7240
12111TIP3    H257825   2.955   1.930   4.138 -0.6522  0.8792 -1.4431
12112TIP3   OH257826   5.694   5.524   2.345 -0.2738 -0.3435 -0.1008
12112TIP3    H157827   5.743   5.543   2.424  0.8194 -1.0695 -0.5799
12112TIP3    H257828   5.614   5.481   2.376  0.1478 -0.6358  0.6000
12113TIP3   OH257829   2.097   4.277   1.895  0.1920 -0.8901 -0.1981
12113TIP3    H157830   2.040   4.278   1.818  0.0452 -2.4070 -0.1506
12113TIP3    H257831   2.153   4.200   1.882  2.6930  0.8499 -0.5514
12114TIP3   OH257832   3.737   2.504  15.675  0.1644  0.4463 -0.3556
12114TIP3    H157833   3.684   2.566  15.725  0.4847 -0.1986  0.8310
12114TIP3    H257834   3.749   2.545  15.590 -0.6254  1.4639  0.0088
12115TIP3   OH257835   5.883   4.504   5.118  0.9124  0.5298  0.4425
12115TIP3    H157836   5.893   4.588   5.073  1.5644 -0.7907 -2.0470
12115TIP3    H257837   5.801   4.468   5.085  0.0838  0.5809  2.2887
12116TIP3   OH257838   0.292   0.220   2.347 -0.3310 -0.0209 -0.5058
12116TIP3    H157839   0.362   0.157   2.333 -0.3378 -0.0342 -0.4800
12116TIP3    H257840   0.336   0.305   2.352 -0.4252  0.1155 -1.6967
12117TIP3   OH257841   4.836   1.997  11.769  0.3745  0.2203  0.0677
12117TIP3    H157842   4.843   1.904  11.749  0.0781  0.3313 -0.5930
12117TIP3    H257843   4.927   2.026  11.779  0.5175  0.0378 -0.6080
12118TIP3   OH257844   6.509   6.612  14.330 -0.3111 -0.3196  0.3424
12118TIP3    H157845   6.472   6.699  14.346  0.1398 -0.2198  0.8723
12118TIP3    H257846   6.566   6.596  14.405  0.9733 -0.3345 -0.6045
12119TIP3   OH257847   5.716   3.093  12.313  0.4025 -0.1650  0.2435
12119TIP3    H157848   5.785   3.086  12.379 -0.4736  0.3494  1.2481
12119TIP3    H257849   5.635   3.079  12.361 -0.3291  1.1766 -0.5407
12120TIP3   OH257850   2.708   0.385   2.425  0.0602  0.3437 -0.0299
12120TIP3    H157851   2.664   0.458   2.382  1.4834  0.8321 -0.7232
12120TIP3    H257852   2.770   0.427   2.485  0.2455 -0.3030  0.2388
12121TIP3   OH257853   0.211   0.386   0.286 -0.6045 -0.2610 -0.4236
12121TIP3    H157854   0.147   0.452   0.312  0.4437  0.5184  0.2624
12121TIP3    H257855   0.207   0.385   0.190 -1.7976 -0.4096 -0.3829
12122TIP3   OH257856   5.292   3.027   0.082 -0.0300 -0.4157 -0.0902
12122TIP3    H157857   5.343   3.018   0.001 -1.0296  0.1005 -0.7926
12122TIP3    H257858   5.249   3.112   0.074 -1.3645 -1.0341  0.2737
12123TIP3   OH257859   3.951   2.283  15.330  0.1257  0.1804  0.1458
12123TIP3    H157860   3.902   2.228  15.392  0.9634 -0.7001  0.0439
12123TIP3    H257861   4.019   2.323  15.384  0.3358  0.0693 -0.0356
12124TIP3   OH257862   3.443   3.437  12.608 -0.1596  0.6297 -0.1548
12124TIP3    H157863   3.520   3.387  12.636 -0.1013 -0.2912 -1.8562
12124TIP3    H257864   3.478   3.517  12.569 -0.0195  0.0864 -1.1780
12125TIP3   OH257865   4.173   3.196   0.921  0.0103  0.1774 -0.4490
12125TIP3    H157866   4.134   3.253   0.855  0.4667  0.7772 -0.2091
12125TIP3    H257867   4.264   3.185   0.893 -0.2714 -1.1232 -0.9419
12126TIP3   OH257868   4.469   5.236  13.563 -0.2301  0.2139 -0.4604
12126TIP3    H157869   4.375   5.223  13.554 -0.0016 -0.6730 -1.7790
12126TIP3    H257870   4.499   5.259  13.475  0.8795 -0.2184 -0.2138
12127TIP3   OH257871   2.103   4.303   1.414 -0.3094  0.3846  0.5971
12127TIP3    H157872   2.039   4.355   1.366 -0.6462 -0.0626  0.5502
12127TIP3    H257873   2.087   4.213   1.385 -1.2929 -0.0625  2.3598
12128TIP3   OH257874   2.392   2.274   0.404 -0.0257  0.0769  0.0597
12128TIP3    H157875   2.393   2.231   0.318  0.6616 -0.0725  0.1365
12128TIP3    H257876   2.302   2.305   0.414 -0.3439 -0.6971 -0.3221
12129TIP3   OH257877   6.524   0.301   1.402 -0.2647  0.4648  0.3147
12129TIP3    H157878   6.602   0.320   1.349 -0.9160  0.4985 -0.6556
12129TIP3    H257879   6.515   0.378   1.459  0.7387  0.2004  0.8576
12130TIP3   OH257880   2.678   5.186  16.623  0.3615 -0.5759  0.1627
12130TIP3    H157881   2.667   5.164  16.531 -0.8019 -0.9837  0.3815
12130TIP3    H257882   2.674   5.281  16.626  2.4614 -0.4222 -0.4370
12131TIP3   OH257883   4.752   5.087   3.633 -0.4471  0.0501  0.5251
12131TIP3    H157884   4.717   5.016   3.688  0.4314  0.3295  1.4900
12131TIP3    H257885   4.765   5.159   3.694  0.9717  0.2340  0.0445
12132TIP3   OH257886   2.778   2.614   2.523 -0.5356  0.0039 -0.1114
12132TIP3    H157887   2.742   2.697   2.554 -1.7063 -0.8534  0.8786
12132TIP3    H257888   2.752   2.550   2.588  1.8407 -0.8882  0.0676
12133TIP3   OH257889   6.138   1.594  14.788 -0.0462  1.0902 -0.0705
12133TIP3    H157890   6.146   1.546  14.871  0.2637 -0.7329 -1.1164
12133TIP3    H257891   6.219   1.575  14.741  0.8067  3.9422  0.0687
12134TIP3   OH257892   0.988   1.694  13.358  0.4191  0.1176 -0.0319
12134TIP3    H157893   0.918   1.703  13.293 -0.6338 -0.4999  0.9711
12134TIP3    H257894   1.011   1.601  13.355  0.1859  0.0345  0.6491
12135TIP3   OH257895   1.591   5.409   5.343  0.0580 -0.2516 -0.3086
12135TIP3    H157896   1.680   5.389   5.315  1.4462  0.1650  3.1926
12135TIP3    H257897   1.553   5.324   5.364  0.3752 -0.3210  0.0101
12136TIP3   OH257898   2.094   3.957  12.203  0.2080  0.1301 -0.9465
12136TIP3    H157899   2.127   3.911  12.126  1.3680 -0.4654 -0.1377
12136TIP3    H257900   2.049   4.034  12.169  0.6380 -0.1576 -2.2049
12137TIP3   OH257901   1.533   0.798   1.540  0.6922  0.9148 -0.5286
12137TIP3    H157902   1.616   0.764   1.507  0.8446  0.7570  0.0212
12137TIP3    H257903   1.557   0.855   1.612  0.2493 -0.2239  0.5535
12138TIP3   OH257904   6.364   2.163   4.079 -0.1408  0.6875 -0.2527
12138TIP3    H157905   6.295   2.229   4.085  1.5480  2.4804  0.8063
12138TIP3    H257906   6.432   2.204   4.027  0.6079 -0.5920 -0.3278
12139TIP3   OH257907   0.711   0.400   6.058  0.3473 -0.3593 -0.0708
12139TIP3    H157908   0.715   0.305   6.047 -1.4733 -0.5105  0.2953
12139TIP3    H257909   0.671   0.432   5.978 -0.1163 -0.0214  0.2941
12140TIP3   OH257910   1.634   3.612   5.232 -0.2814  0.5278 -0.1169
12140TIP3    H157911   1.696   3.578   5.296  0.9961  0.6402 -1.2436
12140TIP3    H257912   1.658   3.703   5.221 -0.6903  0.5925 -0.5199
12141TIP3   OH257913   5.483   2.247  10.822 -0.2237 -0.1493  0.1078
12141TIP3    H157914   5.426   2.230  10.748 -0.3215  1.0476 -0.1233
12141TIP3    H257915   5.505   2.340  10.814 -1.8331  0.5487  2.6677
12142TIP3   OH257916   2.854   3.280   6.346 -0.0153  0.2625 -0.0276
12142TIP3    H157917   2.947   3.262   6.365  0.4250 -0.7692 -2.6629
12142TIP3    H257918   2.822   3.198   6.308 -0.8904  1.7515 -2.7729
12143TIP3   OH257919   3.509   0.885   2.040 -0.2391  0.3131  0.3411
12143TIP3    H157920   3.431   0.838   2.070 -0.7485  1.2712  0.5666
12143TIP3    H257921   3.560   0.819   1.992 -1.3509 -0.2351 -0.1218
12144TIP3   OH257922   3.698   2.706  12.782 -0.8866  0.7021  0.4112
12144TIP3    H157923   3.621   2.761  12.767 -2.6549 -1.1335  2.0971
12144TIP3    H257924   3.684   2.669  12.869  0.6890 -1.5953 -0.2208
12145TIP3   OH257925   6.359   1.663   5.546  0.6619  0.0313  0.1673
12145TIP3    H157926   6.294   1.718   5.503  0.4742  0.4331  0.9426
12145TIP3    H257927   6.323   1.647   5.633  1.1475 -0.5518  0.2671
12146TIP3   OH257928   2.992   4.419   4.240 -0.0548 -0.5088 -0.2743
12146TIP3    H157929   3.039   4.372   4.309  0.8003  2.0916  1.0676
12146TIP3    H257930   2.902   4.424   4.271  0.3370  0.6995  0.7635
12147TIP3   OH257931   1.866   0.897  16.407  1.3557 -0.4391 -0.0092
12147TIP3    H157932   1.948   0.848  16.415  1.9931  0.4383 -0.9301
12147TIP3    H257933   1.893   0.988  16.399  0.4123 -0.2788 -2.1920
12148TIP3   OH257934   6.440   1.856  16.738 -0.0150  0.2026  0.0082
12148TIP3    H157935   6.473   1.923  16.679 -0.6685 -1.0659 -1.8753
12148TIP3    H257936   6.399   1.905  16.809  2.4069  1.7833  0.4326
12149TIP3   OH257937   3.172   5.325   2.508  0.0334 -0.0050  0.8073
12149TIP3    H157938   3.085   5.365   2.509  0.7151  1.5179  1.3406
12149TIP3    H257939   3.206   5.344   2.421  0.2907  0.4232  1.0011
12150TIP3   OH257940   4.955   5.263   5.093  0.3103  0.2753  0.0799
12150TIP3    H157941   4.883   5.305   5.141  0.7674  0.6396  0.4613
12150TIP3    H257942   5.005   5.218   5.161  0.8138  0.5738 -0.0911
12151TIP3   OH257943   2.674   5.845   3.610  0.5384 -0.0534  0.2172
12151TIP3    H157944   2.684   5.935   3.578  2.8767 -0.8281 -1.5464
12151TIP3    H257945   2.691   5.850   3.704  1.6283  1.2168 -0.0252
12152TIP3   OH257946   2.017   0.672  13.461  0.2761 -0.0859 -0.3319
12152TIP3    H157947   2.001   0.760  13.494  0.9608  0.2219 -0.8108
12152TIP3    H257948   2.092   0.640  13.511 -0.5058 -0.7436  0.4584
12153TIP3   OH257949   0.455   0.775  15.578 -0.1373  0.5434  0.1130
12153TIP3    H157950   0.367   0.813  15.577  0.1019  1.1379  0.7421
12153TIP3    H257951   0.507   0.833  15.521 -0.2371 -0.0410 -0.5877
12154TIP3   OH257952   4.332   4.787   6.161 -0.3378  0.1953  0.1938
12154TIP3    H157953   4.396   4.857   6.174  0.6312 -0.2493 -1.7860
12154TIP3    H257954   4.299   4.769   6.248 -0.8834  3.3194  0.7542
12155TIP3   OH257955   4.804   0.064   3.217  0.1726  0.2690 -0.3522
12155TIP3    H157956   4.720   0.024   3.240 -0.6033  1.9344 -0.1173
12155TIP3    H257957   4.859  -0.009   3.190 -1.0372 -0.9781  0.4272
12156TIP3   OH257958   3.604   0.341  14.928 -0.4861 -0.3229  0.4525
12156TIP3    H157959   3.632   0.337  14.836 -1.0627  0.5985  0.2342
12156TIP3    H257960   3.682   0.315  14.977 -0.4558 -1.8405 -0.3223
12157TIP3   OH257961   3.207   0.988   5.915  0.3124 -0.2467 -0.2109
12157TIP3    H157962   3.184   1.080   5.898  1.1613  0.3060  1.4059
12157TIP3    H257963   3.163   0.939   5.845  0.8307  1.4864 -1.8578
12158TIP3   OH257964   4.200   4.982   4.416  0.0634 -0.4642 -0.3734
12158TIP3    H157965   4.224   5.061   4.368  0.7641 -1.0827 -1.0782
12158TIP3    H257966   4.144   5.013   4.487 -0.5809  0.5375 -1.2820
12159TIP3   OH257967   0.712   6.391   0.150  0.2565 -0.3632 -0.8973
12159TIP3    H157968   0.741   6.417   0.063  1.2793  0.2196 -0.3975
12159TIP3    H257969   0.717   6.471   0.202  1.8205 -1.1546  0.2430
12160TIP3   OH257970   5.975   3.692   0.009 -0.0812  0.7005  0.4184
12160TIP3    H157971   5.899   3.657  -0.038 -0.2024 -0.3405  1.3465
12160TIP3    H257972   5.956   3.785   0.017 -2.1191  0.2398  2.0711
12161TIP3   OH257973   2.177   2.554  12.077  0.0415 -0.6769  0.2810
12161TIP3    H157974   2.168   2.635  12.027  1.1125 -1.2188 -0.8593
12161TIP3    H257975   2.088   2.532  12.105 -0.4486  0.1392 -0.6016
12162TIP3   OH257976   5.177   3.560  14.853 -0.5094  0.4333  0.4657
12162TIP3    H157977   5.166   3.649  14.819 -0.5173  0.3270  0.1885
12162TIP3    H257978   5.164   3.504  14.777  1.9705  0.2894  0.0609
12163TIP3   OH257979   5.040   1.630  16.846  0.1774 -0.5970 -0.5303
12163TIP3    H157980   5.126   1.603  16.878  1.8512  3.0480 -1.4602
12163TIP3    H257981   5.051   1.721  16.818 -3.6083 -0.4340 -2.2322
12164TIP3   OH257982   0.623   4.817   5.369 -0.2030 -0.1680  0.0287
12164TIP3    H157983   0.596   4.888   5.427 -0.7447 -0.9870  0.8016
12164TIP3    H257984   0.546   4.801   5.313 -0.0252 -0.0413 -0.2547
12165TIP3   OH257985   2.441   5.545   1.548  0.0068  0.2357 -0.3140
12165TIP3    H157986   2.461   5.524   1.457 -1.2547 -0.5740 -0.4321
12165TIP3    H257987   2.508   5.500   1.599 -0.8309 -1.5488 -0.7279
12166TIP3   OH257988   2.741   3.386  14.409 -0.1714  0.2735  0.1234
12166TIP3    H157989   2.723   3.463  14.463 -2.0751  0.3061 -0.4846
12166TIP3    H257990   2.831   3.363  14.429 -0.1328  1.6044  1.6393
12167TIP3   OH257991   0.253   0.017  10.480  0.2442  0.1325  0.3897
12167TIP3    H157992   0.326  -0.045  10.481  0.9417  0.8501 -1.3601
12167TIP3    H257993   0.294   0.103  10.468 -0.8030  0.7499  1.0160
12168TIP3   OH257994   4.590   4.077   3.316  0.4719 -0.8518  0.4775
12168TIP3    H157995   4.533   4.077   3.240 -1.1948  0.4979  1.6643
12168TIP3    H257996   4.600   3.984   3.338  1.5661 -1.3202 -1.7261
12169TIP3   OH257997   1.606   4.424  15.613  0.5035 -0.1181  0.0843
12169TIP3    H157998   1.510   4.428  15.617  0.4401 -1.1855 -0.1868
12169TIP3    H257999   1.635   4.508  15.649 -0.5591  0.7978 -1.0789
12170TIP3   OH258000   2.626   4.301  14.973 -0.3366 -0.0158 -0.5470
12170TIP3    H158001   2.552   4.323  15.030 -1.5187 -0.1909 -1.9621
12170TIP3    H258002   2.685   4.250  15.029 -1.7839 -0.7715  0.3615
12171TIP3   OH258003   5.130   1.655  12.309 -0.8366 -0.2763  0.3344
12171TIP3    H158004   5.099   1.676  12.221 -1.0172  0.9803  0.6826
12171TIP3    H258005   5.159   1.564  12.303 -0.0881  0.0324 -1.2217
12172TIP3   OH258006   5.588   2.118  11.359 -0.5106 -0.5726  0.0076
12172TIP3    H158007   5.672   2.076  11.377 -0.4470 -0.0961  0.8968
12172TIP3    H258008   5.602   2.168  11.279 -0.0199 -0.6948  0.0154
12173TIP3   OH258009   3.260   3.642  11.200 -0.6180 -0.2838  0.4361
12173TIP3    H158010   3.267   3.735  11.221 -1.7660 -0.0382 -0.1915
12173TIP3    H258011   3.350   3.615  11.181 -0.3499  0.8600 -0.0355
12174TIP3   OH258012   0.196   1.600   4.675  0.8589 -1.0788 -0.6514
12174TIP3    H158013   0.132   1.667   4.651  1.1837  0.0547  1.4458
12174TIP3    H258014   0.144   1.528   4.710  0.6897  0.0447  1.5299
12175TIP3   OH258015   4.369   3.936  15.225  0.2743 -0.5436 -0.1018
12175TIP3    H158016   4.407   4.012  15.181 -0.0202  0.7015  1.6618
12175TIP3    H258017   4.443   3.877  15.238  0.8236  0.0945 -0.2464
12176TIP3   OH258018   2.508   1.429  15.286 -0.1207  0.0562  0.2874
12176TIP3    H158019   2.531   1.502  15.227  1.1757  0.7531  1.5847
12176TIP3    H258020   2.590   1.407  15.329 -0.5934 -1.9125  0.2706
12177TIP3   OH258021   0.668   1.621  13.825 -0.2255  0.3741  0.0138
12177TIP3    H158022   0.717   1.540  13.809 -1.9532 -0.6052 -0.5996
12177TIP3    H258023   0.733   1.691  13.815  1.3759 -0.9246  0.8080
12178TIP3   OH258024   6.452   1.891  14.765  0.2656 -0.0708  0.5848
12178TIP3    H158025   6.458   1.808  14.812 -3.6956 -0.9239 -0.1260
12178TIP3    H258026   6.453   1.866  14.672  0.1996  0.8227  0.3385
12179TIP3   OH258027   4.072   0.489   3.236 -0.0225 -0.3626 -0.9676
12179TIP3    H158028   4.078   0.576   3.276  0.4749 -0.5275 -0.6819
12179TIP3    H258029   4.047   0.431   3.308  0.4841 -0.5946 -0.9764
12180TIP3   OH258030   1.141   1.105  16.915 -0.2768  0.3318  0.3008
12180TIP3    H158031   1.230   1.140  16.913 -0.4254  0.6874 -1.0196
12180TIP3    H258032   1.153   1.013  16.936  0.4510  0.2730 -0.3027
12181TIP3   OH258033   4.729   0.666  13.842 -0.4972 -0.4181 -0.5216
12181TIP3    H158034   4.711   0.585  13.794  0.0776 -1.0465  0.2888
12181TIP3    H258035   4.721   0.736  13.777 -0.3536 -1.1879 -1.3765
12182TIP3   OH258036   2.976   5.244  11.026  0.0632  0.0086  0.2831
12182TIP3    H158037   3.034   5.208  11.093  1.1732 -0.7837 -1.0428
12182TIP3    H258038   2.968   5.336  11.049 -0.5781 -0.4648  2.1752
12183TIP3   OH258039   6.500   1.429   3.431 -0.6485  0.7109 -0.1216
12183TIP3    H158040   6.454   1.346   3.443  0.6601  0.1847  1.7511
12183TIP3    H258041   6.592   1.405   3.418 -0.2841  1.8441  0.2309
12184TIP3   OH258042   0.997   3.206   0.486  0.0653  0.1225  0.5432
12184TIP3    H158043   1.028   3.174   0.570  1.5657  0.9785  0.3384
12184TIP3    H258044   0.970   3.297   0.503  0.3273  0.2833  0.1175
12185TIP3   OH258045   1.119   4.988  10.557 -0.1045  0.3113  0.2811
12185TIP3    H158046   1.153   5.020  10.474 -4.1782  1.4208 -1.1760
12185TIP3    H258047   1.118   4.893  10.547  1.4982  0.2748  0.0674
12186TIP3   OH258048   2.567   3.198   3.937  0.4056 -0.1866  0.0003
12186TIP3    H158049   2.561   3.215   3.843  1.8535 -1.1932 -0.3153
12186TIP3    H258050   2.508   3.124   3.952 -0.9242  0.8715  0.1797
12187TIP3   OH258051   5.039   5.656  14.405  0.3867 -0.0687  0.0351
12187TIP3    H158052   5.015   5.739  14.445  1.7775  0.6670 -0.6228
12187TIP3    H258053   5.134   5.656  14.401  0.3775 -1.1127 -1.1661
12188TIP3   OH258054   0.276   0.132  14.833  0.4293  0.3965 -0.5023
12188TIP3    H158055   0.305   0.041  14.832 -1.4044 -0.2185 -1.7212
12188TIP3    H258056   0.290   0.161  14.923  0.0862 -1.4119  0.1618
12189TIP3   OH258057   0.202   6.459  13.879 -0.1486 -0.1756 -0.0239
12189TIP3    H158058   0.240   6.540  13.845  2.2278 -0.0160  2.6239
12189TIP3    H258059   0.172   6.482  13.967 -1.8282 -1.6102 -0.1559
12190TIP3   OH258060   3.746   5.426   5.103  0.4807  0.5704 -0.2245
12190TIP3    H158061   3.816   5.412   5.040  1.5294 -1.3624  1.2296
12190TIP3    H258062   3.763   5.513   5.139  1.2110  0.7624 -0.9964
12191TIP3   OH258063   2.475   6.680  14.228  0.2214 -0.4249  0.0377
12191TIP3    H158064   2.432   6.602  14.264 -0.5850  0.7008  1.6226
12191TIP3    H258065   2.546   6.699  14.289  0.3715  0.1287 -0.2990
12192TIP3   OH258066   1.359   6.806  15.753  0.4579 -0.1504 -0.0493
12192TIP3    H158067   1.283   6.751  15.774  0.0292 -0.1546 -1.4964
12192TIP3    H258068   1.321   6.890  15.727  0.9374 -0.1364 -0.7437
12193TIP3   OH258069   5.637   1.928  13.081 -0.8679 -0.1839  0.0450
12193TIP3    H158070   5.684   1.891  13.156  0.3458 -1.0246 -1.0825
12193TIP3    H258071   5.697   1.915  13.007 -1.9408  0.8245 -1.0314
12194TIP3   OH258072   0.973   2.635   1.490  0.3084 -0.0525 -0.1227
12194TIP3    H158073   0.909   2.688   1.442 -1.6082 -1.5617  0.6319
12194TIP3    H258074   1.024   2.591   1.422 -1.6805 -1.3704 -0.8403
12195TIP3   OH258075   4.602   1.247   3.113 -0.4451 -0.3618  0.3802
12195TIP3    H158076   4.508   1.254   3.133 -0.4945  0.5478 -0.0951
12195TIP3    H258077   4.638   1.196   3.185 -0.6961  2.2962  2.5693
12196TIP3   OH258078   3.374   1.358  12.001 -0.3333  0.4698 -0.0932
12196TIP3    H158079   3.389   1.264  11.992  1.6253  0.7096  0.4194
12196TIP3    H258080   3.461   1.398  11.999 -1.0436  2.1867  0.7827
12197TIP3   OH258081   6.073   2.651  16.876  0.5320 -0.8176 -0.9115
12197TIP3    H158082   6.084   2.615  16.964  0.2866  1.8290  0.3261
12197TIP3    H258083   6.152   2.627  16.829  2.2089  0.3703  1.1237
12198TIP3   OH258084   6.745   2.513  16.838  0.7469  0.0077 -0.4334
12198TIP3    H158085   6.728   2.458  16.761 -0.3950 -1.8513  1.0487
12198TIP3    H258086   6.835   2.492  16.863  0.9416  0.2259 -0.9353
12199TIP3   OH258087   2.741   0.781   0.921 -0.3979 -0.2761  0.6115
12199TIP3    H158088   2.751   0.686   0.916  1.0379 -0.1377  0.5172
12199TIP3    H258089   2.663   0.793   0.975  1.0769 -1.5183  3.2787
12200TIP3   OH258090   0.402   4.033  11.963 -0.3797 -0.5509 -0.1639
12200TIP3    H158091   0.311   4.010  11.942 -0.2144 -0.2038 -1.3726
12200TIP3    H258092   0.445   3.948  11.977 -0.8032 -0.7368  0.0297
12201TIP3   OH258093   0.259   6.043   5.392 -0.3502 -0.2591 -0.1196
12201TIP3    H158094   0.174   6.010   5.420 -0.5139  0.6268  0.4406
12201TIP3    H258095   0.267   6.129   5.432 -0.7513  1.2886 -3.1312
12202TIP3   OH258096   2.812   3.699  15.291 -0.2371  0.2226 -0.3881
12202TIP3    H158097   2.737   3.644  15.314  1.3285 -1.8588  0.0884
12202TIP3    H258098   2.864   3.645  15.231  0.3396  2.0549 -1.6211
12203TIP3   OH258099   4.246   3.646   2.187 -0.0027 -0.4691 -0.0284
12203TIP3    H158100   4.266   3.609   2.273  2.2230  1.4703  0.3952
12203TIP3    H258101   4.283   3.583   2.125 -0.7832 -1.4123  0.4272
12204TIP3   OH258102   3.098   5.988  15.033  0.1728  0.0412  0.2908
12204TIP3    H158103   3.088   5.972  15.126  1.1882  0.3067  0.4530
12204TIP3    H258104   3.186   5.956  15.012 -1.6288 -4.5457 -1.5697
12205TIP3   OH258105   2.027   1.104  13.789  0.2355 -0.0556  0.4905
12205TIP3    H158106   2.053   1.076  13.877  0.6135 -0.9242  0.1086
12205TIP3    H258107   2.102   1.082  13.734  0.4324  1.4572  0.1160
12206TIP3   OH258108   2.807   1.602  14.466  0.3454  0.2080  0.2016
12206TIP3    H158109   2.724   1.643  14.493 -0.0721 -0.6272  0.2190
12206TIP3    H258110   2.792   1.508  14.477  1.5913  0.0861  1.0184
12207TIP3   OH258111   2.927   2.999  12.948  0.0405 -0.6632  0.2630
12207TIP3    H158112   2.842   2.991  12.992 -0.8095 -0.8551 -1.3121
12207TIP3    H258113   2.909   3.057  12.873  1.1821 -1.0920 -0.3661
12208TIP3   OH258114   4.797   0.919  14.110  0.0905 -0.4361 -0.5973
12208TIP3    H158115   4.856   0.843  14.111  1.0248  0.2610  0.8862
12208TIP3    H258116   4.839   0.980  14.050  0.9391  0.0661  0.4711
12209TIP3   OH258117   6.100   6.440  13.452  0.3385  0.2474  0.1724
12209TIP3    H158118   6.040   6.515  13.448 -0.0836 -0.1012 -0.1132
12209TIP3    H258119   6.053   6.370  13.407 -0.1802 -0.8317  2.2741
12210TIP3   OH258120   3.218   2.600  15.269 -0.2683 -0.3137  0.0818
12210TIP3    H158121   3.166   2.589  15.190 -0.4221 -1.3861  0.3259
12210TIP3    H258122   3.306   2.622  15.237 -1.0451  2.6293 -0.3253
12211TIP3   OH258123   5.720   4.144   2.091  0.1151  1.0320 -0.2801
12211TIP3    H158124   5.693   4.231   2.120  0.7632  1.0350  0.3213
12211TIP3    H258125   5.639   4.103   2.060 -0.0046  2.2517 -1.6444
12212TIP3   OH258126   0.458   4.771   0.162  0.5604 -0.0825 -0.4797
12212TIP3    H158127   0.442   4.861   0.191  2.5071  0.0231  0.4448
12212TIP3    H258128   0.413   4.717   0.227  1.1923  0.2115  0.2112
12213TIP3   OH258129   1.311   4.220   3.000 -0.2670 -0.1627  0.5767
12213TIP3    H158130   1.401   4.213   3.030  0.2855  0.5816 -0.8273
12213TIP3    H258131   1.268   4.274   3.066  0.7038  0.7553  0.4695
12214TIP3   OH258132   1.904   3.345  15.694  0.3109  0.4854  0.9571
12214TIP3    H158133   1.917   3.439  15.679 -0.8537  0.6725  1.0261
12214TIP3    H258134   1.951   3.302  15.623 -1.9983  1.2402 -1.1566
12215TIP3   OH258135   2.963   5.719   6.637 -0.1463  0.1965  0.0488
12215TIP3    H158136   2.932   5.809   6.634  0.7320  0.4990 -0.1308
12215TIP3    H258137   2.948   5.685   6.549  0.0980  0.3678 -0.0604
12216TIP3   OH258138   4.801   6.196  16.036  0.3088  0.4387  0.5017
12216TIP3    H158139   4.726   6.216  16.093  0.6403  0.5407  0.9080
12216TIP3    H258140   4.761   6.171  15.952 -0.2358 -0.5954  1.0387
12217TIP3   OH258141   0.801   4.599  12.159  0.1266  0.1244  0.0081
12217TIP3    H158142   0.883   4.561  12.191  0.9507  0.8825 -1.0906
12217TIP3    H258143   0.788   4.677  12.212  0.3529  0.2279 -0.0852
12218TIP3   OH258144   2.277   2.652  15.452 -0.6534 -0.3711  0.5535
12218TIP3    H158145   2.261   2.746  15.458  1.6537  0.0537  0.9507
12218TIP3    H258146   2.232   2.626  15.372  0.4689  1.5539 -0.8183
12219TIP3   OH258147   5.336   6.564   3.774  0.1548 -0.3333 -0.2662
12219TIP3    H158148   5.410   6.541   3.718  1.1195  0.2395  0.7370
12219TIP3    H258149   5.321   6.485   3.826 -0.9841 -0.9984 -1.5364
12220TIP3   OH258150   5.851   1.982  11.356 -0.5286  0.0214 -0.1147
12220TIP3    H158151   5.886   2.030  11.281  0.0281 -0.8095 -0.3989
12220TIP3    H258152   5.893   1.896  11.352 -0.0038  0.1620  1.5082
12221TIP3   OH258153   1.508   3.779   3.364 -0.5069 -0.4874 -0.3367
12221TIP3    H158154   1.456   3.727   3.425 -1.2850  0.5402 -0.1062
12221TIP3    H258155   1.469   3.866   3.367 -0.3409 -0.3300 -2.0450
12222TIP3   OH258156   0.236   4.155   0.538  0.1665  0.4169 -0.0512
12222TIP3    H158157   0.323   4.193   0.533  0.2199  0.1588 -3.7071
12222TIP3    H258158   0.247   4.066   0.505 -1.3163 -0.0096  0.5222
12223TIP3   OH258159   4.873   3.866   6.260  0.6778 -0.2090  0.0525
12223TIP3    H158160   4.889   3.960   6.261  1.3386 -0.3172 -0.1783
12223TIP3    H258161   4.893   3.837   6.349  2.6489 -0.4757 -0.4364
12224TIP3   OH258162   5.859   1.767  15.860 -0.1563  0.1872  0.7600
12224TIP3    H158163   5.810   1.826  15.917 -0.8766  1.2639 -0.8936
12224TIP3    H258164   5.814   1.772  15.776 -0.0940 -2.5981  0.4883
12225TIP3   OH258165   0.833   4.405   5.136 -0.1923  0.1217 -0.0975
12225TIP3    H158166   0.904   4.388   5.074  0.3307  0.7444  0.3202
12225TIP3    H258167   0.876   4.447   5.211 -0.6784 -1.3060  1.0383
12226TIP3   OH258168   0.213   0.020  16.521 -0.2344 -0.2219  0.5023
12226TIP3    H158169   0.276   0.069  16.574 -1.7578  2.1316  0.3130
12226TIP3    H258170   0.165  -0.034  16.583 -0.7277  1.0738  1.2917
12227TIP3   OH258171   2.496   4.743  12.419 -0.2903 -0.3270  0.9484
12227TIP3    H158172   2.518   4.705  12.334 -1.3577 -1.6421  1.2402
12227TIP3    H258173   2.478   4.835  12.400 -0.3037 -0.5580 -0.2093
12228TIP3   OH258174   2.973   4.912   3.352 -0.1451 -0.5265 -0.3397
12228TIP3    H158175   2.948   4.989   3.301  0.3282  0.8671  1.4276
12228TIP3    H258176   2.930   4.924   3.436  1.0963 -1.4650  0.4598
12229TIP3   OH258177   1.164   0.230   5.832 -0.5821 -0.0989  0.0154
12229TIP3    H158178   1.179   0.136   5.833 -2.1986 -0.4463 -1.7223
12229TIP3    H258179   1.114   0.248   5.912 -0.0219 -0.6471  0.4986
12230TIP3   OH258180   6.753   2.540  11.851  0.2904  0.1421  0.5041
12230TIP3    H158181   6.671   2.588  11.864  0.2575 -0.2926  2.1008
12230TIP3    H258182   6.740   2.457  11.897  1.4635 -0.1113  0.4095
12231TIP3   OH258183   4.612   1.471  14.901  0.6458  0.3980  0.1979
12231TIP3    H158184   4.615   1.426  14.986 -0.4283  0.8470  0.4881
12231TIP3    H258185   4.585   1.403  14.839 -2.2322  0.8381  0.8380
12232TIP3   OH258186   5.707   6.651  16.645  0.3695  0.2442 -0.3523
12232TIP3    H158187   5.624   6.678  16.684  1.1000  0.0405  1.4127
12232TIP3    H258188   5.697   6.673  16.552 -1.2398  1.2106  0.0001
12233TIP3   OH258189   1.601   1.688  11.254  0.0221  0.5857  0.3752
12233TIP3    H158190   1.686   1.703  11.296  0.4215  0.9758 -0.5640
12233TIP3    H258191   1.612   1.605  11.207  0.3152  1.2727 -0.8072
12234TIP3   OH258192   4.238   3.339   2.207 -0.0805  0.0235  0.5192
12234TIP3    H158193   4.219   3.350   2.300  1.2725 -1.3731  1.0082
12234TIP3    H258194   4.190   3.260   2.182  0.9213 -0.6052  0.4995
12235TIP3   OH258195   4.329   6.564  11.974  0.1406 -0.4085 -0.1583
12235TIP3    H158196   4.344   6.625  11.902 -0.6953 -0.3698 -0.3054
12235TIP3    H258197   4.311   6.619  12.050  0.1241 -0.4607 -0.1233
12236TIP3   OH258198   2.280   0.336   4.205 -0.0401 -0.0097 -0.0857
12236TIP3    H158199   2.328   0.373   4.279  0.5319  0.6420 -0.7616
12236TIP3    H258200   2.191   0.368   4.216  0.5019  1.9056 -0.8233
12237TIP3   OH258201   4.933   0.472   3.977 -0.1274 -0.0338  0.0258
12237TIP3    H158202   4.886   0.392   4.000  0.9155 -0.6728 -0.0114
12237TIP3    H258203   4.927   0.526   4.055 -1.9863  0.4390 -0.3909
12238TIP3   OH258204   0.310   0.501   2.651  0.4742  0.0742 -0.3286
12238TIP3    H158205   0.298   0.554   2.572  0.2495  2.4256  1.1882
12238TIP3    H258206   0.227   0.457   2.664 -0.9632  2.8496  0.7167
12239TIP3   OH258207   1.317   4.711   2.413  0.4518  0.4912 -0.0031
12239TIP3    H158208   1.393   4.712   2.356  1.5773 -1.0408  1.3804
12239TIP3    H258209   1.341   4.767   2.486 -0.2484  0.9869 -0.1461
12240TIP3   OH258210   1.639   1.600   4.430 -0.1584 -0.0052  0.0081
12240TIP3    H158211   1.568   1.536   4.423 -0.0702 -0.0417 -0.5555
12240TIP3    H258212   1.716   1.553   4.397 -0.1221  0.4380 -0.5393
12241TIP3   OH258213   2.452   3.014   5.930  0.1692  0.4653  0.2567
12241TIP3    H158214   2.505   2.968   5.995  1.9839  1.5878 -0.3357
12241TIP3    H258215   2.483   2.981   5.846 -0.3757  0.8480 -0.1025
12242TIP3   OH258216   5.330   1.710   5.704  0.2097 -0.3013  0.4385
12242TIP3    H158217   5.258   1.712   5.767 -0.3613 -0.9433 -0.1636
12242TIP3    H258218   5.315   1.630   5.653 -0.7842  1.3425 -2.0970
12243TIP3   OH258219   5.820   4.683   3.099  0.0826 -0.5281  0.5857
12243TIP3    H158220   5.870   4.682   3.017 -0.2111 -1.9050  0.4032
12243TIP3    H258221   5.728   4.685   3.071 -0.1422 -3.6362  0.7495
12244TIP3   OH258222   3.520   5.019  13.090 -0.2222  0.4802  0.4762
12244TIP3    H158223   3.598   5.058  13.131  1.0404 -1.3567 -0.0126
12244TIP3    H258224   3.506   5.070  13.011  1.3009  0.0913 -0.0896
12245TIP3   OH258225   6.556   2.041   4.656 -0.1975  0.1437 -0.0328
12245TIP3    H158226   6.568   1.948   4.675  0.7427  0.5670  1.6467
12245TIP3    H258227   6.587   2.051   4.566 -2.8812 -1.6118 -1.2652
12246TIP3   OH258228   5.510   5.791  15.236  0.5691 -0.0134 -0.0440
12246TIP3    H158229   5.499   5.869  15.289 -0.8863  0.1021 -0.4795
12246TIP3    H258230   5.471   5.813  15.151  1.1758 -0.8205 -0.5478
12247TIP3   OH258231   5.572   4.689   2.968 -0.3333  0.1239  0.5941
12247TIP3    H158232   5.532   4.776   2.970  0.9221  0.8557 -2.0472
12247TIP3    H258233   5.519   4.639   2.907  1.1061  0.2837 -0.8616
12248TIP3   OH258234   3.592   4.023  15.991 -0.1049 -0.3826 -0.6122
12248TIP3    H158235   3.538   4.037  16.069 -0.7569 -2.5406 -0.6185
12248TIP3    H258236   3.678   3.999  16.025 -0.5509 -1.9318 -0.4947
12249TIP3   OH258237   6.611   5.295   2.484  0.3046  0.5271 -0.0344
12249TIP3    H158238   6.685   5.356   2.481  0.4297  0.3529 -2.1487
12249TIP3    H258239   6.631   5.229   2.417 -0.6332 -0.9101  1.0156
12250TIP3   OH258240   2.132   5.201  13.911 -0.1179 -0.1090 -0.7037
12250TIP3    H158241   2.133   5.105  13.922 -0.2418 -0.0004  0.3466
12250TIP3    H258242   2.088   5.214  13.827  0.5465 -1.0039 -1.2077
12251TIP3   OH258243   4.247   6.411  15.668 -0.0142  0.6980  0.1070
12251TIP3    H158244   4.197   6.490  15.647  0.2263  0.6004 -0.8825
12251TIP3    H258245   4.251   6.363  15.585  2.2610  1.0167 -0.0203
12252TIP3   OH258246   3.787   4.245   4.432 -0.0362  0.4415  0.5925
12252TIP3    H158247   3.764   4.297   4.355  2.4920  0.6873 -0.0629
12252TIP3    H258248   3.711   4.254   4.490 -0.9360  2.3720 -0.7722
12253TIP3   OH258249   2.017   6.776  13.029 -0.4067  0.5120  0.7598
12253TIP3    H158250   1.935   6.826  13.027  0.3966  1.8728 -0.7874
12253TIP3    H258251   2.013   6.719  12.953  0.1256  0.6891  0.5891
12254TIP3   OH258252   0.978   4.213  14.059 -0.4303 -0.4521  0.1129
12254TIP3    H158253   0.996   4.157  14.134  0.4539 -1.6745 -0.9552
12254TIP3    H258254   0.883   4.223  14.058 -0.7010 -2.5574 -0.0476
12255TIP3   OH258255   3.757   6.408  11.208  0.4999  0.1437  0.1912
12255TIP3    H158256   3.682   6.466  11.194  0.9824  1.8752  3.7336
12255TIP3    H258257   3.833   6.465  11.207  1.3227 -0.9052  0.7107
12256TIP3   OH258258   4.178   5.227  13.544 -0.0642  0.1874 -0.1625
12256TIP3    H158259   4.091   5.193  13.565 -0.3809 -1.3344 -3.3971
12256TIP3    H258260   4.163   5.292  13.475  1.3977 -0.8688 -1.5307
12257TIP3   OH258261   4.791   5.979   0.423 -0.4684 -0.2190 -0.2327
12257TIP3    H158262   4.878   5.996   0.388 -0.0398  0.7803  1.2358
12257TIP3    H258263   4.767   5.893   0.388  0.8558 -0.2543 -1.1086
12258TIP3   OH258264   3.777   0.336  17.029  0.0276 -0.4116 -0.1963
12258TIP3    H158265   3.781   0.253  17.078 -0.0333 -0.4940 -0.3294
12258TIP3    H258266   3.695   0.331  16.981 -0.1027 -0.1537  0.0007
12259TIP3   OH258267   6.410   3.636   5.202 -0.6054  0.0042  0.0914
12259TIP3    H158268   6.381   3.711   5.253 -3.8515 -1.0049 -0.0337
12259TIP3    H258269   6.329   3.590   5.178  1.0440 -2.0031 -2.2109
12260TIP3   OH258270   2.671   0.631   1.320  0.2952  0.8882  0.0159
12260TIP3    H158271   2.649   0.541   1.296  2.0703  0.2983  0.4120
12260TIP3    H258272   2.679   0.677   1.236 -0.3091  0.6019 -0.2001
12261TIP3   OH258273   0.309   4.022  16.520  0.2228  0.1192  0.0267
12261TIP3    H158274   0.316   4.095  16.458 -0.9850  1.1335  1.0396
12261TIP3    H258275   0.302   4.064  16.606 -3.2617 -1.0060  0.4519
12262TIP3   OH258276   3.112   6.749  14.519 -0.5679  0.5573  0.3988
12262TIP3    H158277   3.073   6.703  14.594  1.1396  1.1102  1.6807
12262TIP3    H258278   3.100   6.689  14.445 -2.4661  0.0722  1.0256
12263TIP3   OH258279   3.282   0.700   0.063 -0.0764  0.1899  0.3407
12263TIP3    H158280   3.292   0.741   0.149 -0.1235 -0.5704  0.7207
12263TIP3    H258281   3.252   0.771   0.006 -2.1549  0.2724  1.4222
12264TIP3   OH258282   3.548   6.751  15.338 -0.3952  0.4271  0.4044
12264TIP3    H158283   3.513   6.745  15.249 -0.7369  0.0724  0.5595
12264TIP3    H258284   3.516   6.836  15.370 -1.0013  0.1760  0.4888
12265TIP3   OH258285   6.323   1.876   1.160 -0.1153 -0.1845 -0.0766
12265TIP3    H158286   6.266   1.836   1.095  1.3410  0.0164 -1.5434
12265TIP3    H258287   6.315   1.970   1.145 -1.9287  0.0771  1.9833
12266TIP3   OH258288   3.462   2.525   3.292 -0.3938 -0.3397  0.6808
12266TIP3    H158289   3.447   2.437   3.326 -0.8858 -1.2830 -1.7261
12266TIP3    H258290   3.557   2.532   3.282 -0.3530 -0.6000  0.9067
12267TIP3   OH258291   4.595   3.155  13.871 -0.3127 -0.2701  0.3799
12267TIP3    H158292   4.662   3.195  13.816 -2.1009  0.5060 -1.3458
12267TIP3    H258293   4.564   3.080  13.820 -1.4684 -0.0001  0.6670
12268TIP3   OH258294   3.290   0.901   2.881 -0.2110  0.5259  0.5386
12268TIP3    H158295   3.310   0.957   2.956 -1.1700 -0.1279  1.3012
12268TIP3    H258296   3.347   0.825   2.892 -1.5209 -0.3436  1.5410
12269TIP3   OH258297   0.994   3.654  14.009 -0.2707  0.0976 -0.1869
12269TIP3    H158298   1.087   3.631  14.018 -0.0725  1.3137  1.3600
12269TIP3    H258299   0.955   3.628  14.093 -1.2271  0.0892 -0.6195
12270TIP3   OH258300   2.526   5.076  15.094  0.2758  0.2217  0.3042
12270TIP3    H158301   2.497   5.001  15.146 -2.4178  1.8952  1.3753
12270TIP3    H258302   2.457   5.089  15.030  0.7814  1.6931  0.0343
12271TIP3   OH258303   6.507   2.178   4.380 -0.2470 -0.1880  0.2136
12271TIP3    H158304   6.502   2.191   4.285 -1.4876 -1.9607 -0.0108
12271TIP3    H258305   6.416   2.173   4.408  0.1161 -0.3604  1.4039
12272TIP3   OH258306   5.587   2.294  13.825 -0.8587  0.3032  0.4851
12272TIP3    H158307   5.494   2.280  13.807 -0.3394 -0.5879 -1.8913
12272TIP3    H258308   5.601   2.387  13.806 -0.7537 -0.1659 -2.1965
12273TIP3   OH258309   4.331   1.589   4.071 -0.9960  0.3028 -0.3122
12273TIP3    H158310   4.331   1.685   4.082  0.3831  0.6141 -2.3724
12273TIP3    H258311   4.407   1.560   4.122 -1.3637  0.2978  0.2432
12274TIP3   OH258312   2.306   1.899  16.511 -0.3338  0.6525  0.4813
12274TIP3    H158313   2.296   1.871  16.420 -0.7275 -2.3564  1.3584
12274TIP3    H258314   2.344   1.987  16.504  0.8016  0.0639 -2.5787
12275TIP3   OH258315   1.310   5.936  11.477  0.4820 -0.2414 -0.7516
12275TIP3    H158316   1.315   5.870  11.408 -0.0309 -2.6086  1.3382
12275TIP3    H258317   1.218   5.940  11.500  0.5640  0.9487 -0.5843
12276TIP3   OH258318   4.888   5.567  14.783 -0.0050 -0.0823 -0.0290
12276TIP3    H158319   4.944   5.614  14.844  1.8275 -1.3845 -0.6084
12276TIP3    H258320   4.818   5.629  14.762  0.5976  1.2166  1.5687
12277TIP3   OH258321   4.812   2.988   1.841  0.2338 -0.3520 -0.4058
12277TIP3    H158322   4.858   3.067   1.812  1.4344 -1.1176 -0.6307
12277TIP3    H258323   4.793   2.940   1.760 -1.6793  0.2812 -0.4043
12278TIP3   OH258324   0.319   0.169  13.055  0.1377 -0.5899  0.0029
12278TIP3    H158325   0.233   0.156  13.015  0.8868 -2.0834 -1.2770
12278TIP3    H258326   0.372   0.097  13.020  1.5878 -0.4036  1.6808
12279TIP3   OH258327   1.867   0.802   4.966  0.5212 -0.1673  0.1576
12279TIP3    H158328   1.901   0.768   5.049  1.6300  2.4227  0.8795
12279TIP3    H258329   1.941   0.852   4.929 -1.4862  3.2431  0.3216
12280TIP3   OH258330   6.562   0.915   2.216 -0.0411  0.5298 -0.2494
12280TIP3    H158331   6.527   0.843   2.164  0.8809 -0.6245  0.6716
12280TIP3    H258332   6.586   0.981   2.151  0.6122 -0.6599 -1.2787
12281TIP3   OH258333   5.088   5.598   4.671  0.3222 -0.5368 -0.0084
12281TIP3    H158334   5.114   5.541   4.744 -0.8672  0.6709  1.4397
12281TIP3    H258335   4.997   5.574   4.653  0.6088 -0.8210 -1.1087
12282TIP3   OH258336   2.808   0.428  14.623 -0.3521 -0.2045 -0.2108
12282TIP3    H158337   2.819   0.459  14.533 -0.6034 -0.5352 -0.3561
12282TIP3    H258338   2.715   0.437  14.641 -0.4794 -1.1838 -0.3670
12283TIP3   OH258339   6.059   1.410   1.291 -0.1461  0.0790 -0.2331
12283TIP3    H158340   6.006   1.489   1.287  0.9873  0.8524 -0.2393
12283TIP3    H258341   6.066   1.382   1.199  1.6234  1.4759 -0.5792
12284TIP3   OH258342   5.572   2.791   1.894  0.1629 -0.1411 -0.7776
12284TIP3    H158343   5.509   2.753   1.956  1.8412  0.3589  1.3744
12284TIP3    H258344   5.539   2.879   1.877 -0.2280 -0.2185 -0.4529
12285TIP3   OH258345   6.633   1.305  13.351  0.0050 -0.6808  0.2938
12285TIP3    H158346   6.561   1.269  13.300  1.1464 -2.5613 -0.0970
12285TIP3    H258347   6.591   1.342  13.429 -1.6611  1.2796 -1.4051
12286TIP3   OH258348   5.966   3.865   3.715  0.3044 -0.5343  0.0622
12286TIP3    H158349   5.887   3.812   3.710  1.0463 -1.6987  0.2668
12286TIP3    H258350   5.936   3.955   3.697 -1.1771 -0.8138  0.9436
12287TIP3   OH258351   0.370   2.095  15.035  0.2374  0.8070 -0.2582
12287TIP3    H158352   0.295   2.050  15.074  1.3414 -0.6217  0.3208
12287TIP3    H258353   0.352   2.188  15.047 -0.2656  0.4506  2.1565
12288TIP3   OH258354   6.022   1.688  12.311  0.0818  0.0825 -0.3209
12288TIP3    H158355   6.086   1.756  12.334  2.1267 -1.9570  0.4804
12288TIP3    H258356   5.970   1.726  12.241  2.1064  1.9361 -0.9253
12289TIP3   OH258357   0.759   0.943  14.682 -0.2029  0.5707  0.3252
12289TIP3    H158358   0.796   0.979  14.762 -0.0355  0.8883  0.1039
12289TIP3    H258359   0.833   0.936  14.622  0.1816 -2.0100  1.0021
12290TIP3   OH258360   2.836   1.467   5.664 -0.5058  0.8565  0.0068
12290TIP3    H158361   2.793   1.445   5.581  0.0392  1.1583 -0.3613
12290TIP3    H258362   2.772   1.519   5.711  0.5926  4.2880 -1.9542
12291TIP3   OH258363   2.591   5.871   1.384  0.1670 -0.0696 -0.0804
12291TIP3    H158364   2.638   5.814   1.445  0.5647 -0.3338 -0.6194
12291TIP3    H258365   2.634   5.856   1.300 -0.0232  0.6966 -0.3194
12292TIP3   OH258366   3.018   4.305  15.193 -0.4386 -0.5761  0.5763
12292TIP3    H158367   3.087   4.355  15.150 -1.3318  0.5512  0.3933
12292TIP3    H258368   2.977   4.368  15.253 -2.5690 -0.6080 -0.7298
12293TIP3   OH258369   5.022   6.053   1.609  0.1602 -0.5482  0.2733
12293TIP3    H158370   4.961   5.987   1.640 -0.7840  0.0002 -0.3688
12293TIP3    H258371   5.002   6.063   1.516 -0.9511  1.8672  0.6861
12294TIP3   OH258372   1.654   1.341   4.713 -0.2876  0.0646 -0.8138
12294TIP3    H158373   1.625   1.250   4.722  1.5298 -0.5726 -0.8952
12294TIP3    H258374   1.592   1.392   4.764 -1.8073 -1.1139 -1.4052
12295TIP3   OH258375   1.617   4.463  12.531 -0.0575 -0.1054 -0.0945
12295TIP3    H158376   1.659   4.465  12.617  0.1679 -0.1674 -0.2000
12295TIP3    H258377   1.683   4.422  12.474  0.1229  0.6859 -0.4677
12296TIP3   OH258378   2.166   3.069   4.396  0.2280  0.4701  0.2816
12296TIP3    H158379   2.221   3.101   4.326  1.4911 -4.3727 -1.2757
12296TIP3    H258380   2.215   3.087   4.476  2.3360 -0.3845 -0.7670
12297TIP3   OH258381   3.057   4.377  12.142 -0.1402 -0.2226  0.5142
12297TIP3    H158382   3.047   4.409  12.052 -1.2273 -0.8426  0.4081
12297TIP3    H258383   2.974   4.398  12.185 -0.1391 -1.1497  0.9895
12298TIP3   OH258384   2.175   2.629   3.678  0.3260 -0.0374  0.3491
12298TIP3    H158385   2.085   2.629   3.645 -0.4297 -0.6087  2.2972
12298TIP3    H258386   2.177   2.696   3.746  1.1486 -0.5937  0.8991
12299TIP3   OH258387   3.679   3.134   4.623  0.1152  0.0027  0.1870
12299TIP3    H158388   3.724   3.050   4.627 -0.8780 -0.4859  2.0282
12299TIP3    H258389   3.589   3.112   4.598  0.1552  0.6661 -0.5873
12300TIP3   OH258390   0.350   3.759   4.218  0.1269 -0.1887  0.5275
12300TIP3    H158391   0.384   3.809   4.293 -1.0222  0.7178  0.4790
12300TIP3    H258392   0.258   3.785   4.212  0.4244  0.6217 -1.8651
12301TIP3   OH258393   0.835   5.623   1.765 -0.0993 -0.0519  0.1935
12301TIP3    H158394   0.870   5.662   1.846 -1.9884 -0.3953  1.2190
12301TIP3    H258395   0.850   5.529   1.775 -0.5831 -0.1214  0.2675
12302TIP3   OH258396   1.645   3.164   2.801 -0.2708  0.3148 -0.0498
12302TIP3    H158397   1.666   3.242   2.852  0.4932  0.1739 -0.1319
12302TIP3    H258398   1.558   3.138   2.832  0.4330 -0.1354  1.6741
12303TIP3   OH258399   3.883   3.791   0.699 -0.0620 -0.7170 -0.3904
12303TIP3    H158400   3.885   3.879   0.662 -1.6154  0.1149  1.2854
12303TIP3    H258401   3.790   3.768   0.700  0.3461 -2.5830 -1.1630
12304TIP3   OH258402   5.024   3.476  16.061 -0.0696  0.5635 -0.2529
12304TIP3    H158403   5.100   3.458  16.007  1.1410  2.2180  0.8069
12304TIP3    H258404   5.054   3.465  16.151 -0.7957  2.1038  0.2250
12305TIP3   OH258405   1.935   3.697  14.941  0.4451  0.1083  0.3606
12305TIP3    H158406   1.994   3.769  14.919  0.1222 -0.3452 -2.2631
12305TIP3    H258407   1.900   3.721  15.027  2.7063  1.4897  0.9910
12306TIP3   OH258408   2.229   6.566   1.675 -0.2903 -0.8522  0.5641
12306TIP3    H158409   2.267   6.480   1.658 -0.5707 -0.9462  0.3947
12306TIP3    H258410   2.192   6.593   1.591  0.0365 -0.4430  0.5509
12307TIP3   OH258411   0.986   3.710  12.829  0.3153  0.4802  0.0193
12307TIP3    H158412   0.996   3.695  12.735  2.8086 -1.1752  0.4444
12307TIP3    H258413   0.905   3.665  12.852  0.7687 -0.9858 -1.0543
12308TIP3   OH258414   5.933   5.840  17.069 -0.0011 -0.6717  0.1245
12308TIP3    H158415   5.967   5.865  16.983 -0.3772  0.0008  0.1611
12308TIP3    H258416   5.911   5.748  17.061 -0.4947 -0.4910 -0.6452
12309TIP3   OH258417   5.080   4.313  17.109  0.5108 -0.6441  0.4915
12309TIP3    H158418   5.140   4.388  17.101 -0.4102  0.2871  1.8565
12309TIP3    H258419   5.136   4.236  17.099  1.4045  0.1810 -1.5588
12310TIP3   OH258420   5.242   3.131   4.822  0.1734  0.0168  0.4020
12310TIP3    H158421   5.332   3.124   4.856  0.5761  1.2944 -0.3212
12310TIP3    H258422   5.231   3.053   4.767  1.2380  0.3955 -0.3697
12311TIP3   OH258423   2.824   2.043   5.961 -0.1084 -0.2499  0.2611
12311TIP3    H158424   2.850   2.017   6.050 -1.5876 -2.1627  0.2080
12311TIP3    H258425   2.897   2.014   5.906  0.6320  0.5763  0.7646
12312TIP3   OH258426   6.391   1.760  12.660 -0.2490 -0.3167  0.0778
12312TIP3    H158427   6.388   1.722  12.748 -0.8923  0.5506  0.4434
12312TIP3    H258428   6.314   1.817  12.656 -0.4021 -0.5931 -1.1634
12313TIP3   OH258429   1.447   6.438   5.333 -0.2309  0.3268 -0.1453
12313TIP3    H158430   1.379   6.423   5.268 -0.0368  1.5401 -0.6562
12313TIP3    H258431   1.528   6.410   5.291 -0.2971 -0.3094  0.1436
12314TIP3   OH258432   0.648   6.474  11.343  0.0593 -0.3604 -0.1542
12314TIP3    H158433   0.557   6.494  11.363 -0.2037 -1.3294 -0.3188
12314TIP3    H258434   0.659   6.500  11.252 -0.2819 -0.9534 -0.3715
12315TIP3   OH258435   0.698   6.008  15.492 -0.0203 -0.3175  0.0608
12315TIP3    H158436   0.746   6.075  15.443  1.5708 -0.5985  1.1754
12315TIP3    H258437   0.651   6.057  15.559  1.1915 -0.2811  0.9166
12316TIP3   OH258438   1.696   6.187  17.096  0.3766  0.3633 -0.1305
12316TIP3    H158439   1.669   6.275  17.070 -2.8038 -0.7700 -1.1958
12316TIP3    H258440   1.724   6.196  17.187  0.9033  2.5539 -0.4479
12317TIP3   OH258441   5.912   6.493   0.377 -0.1363  0.0651  0.4314
12317TIP3    H158442   5.938   6.409   0.340 -0.9014  0.0045  0.0037
12317TIP3    H258443   5.843   6.525   0.318  1.9883  2.3018 -1.0433
12318TIP3   OH258444   1.816   6.545  15.617 -0.5756 -0.3137  0.0153
12318TIP3    H158445   1.808   6.453  15.590 -1.1216 -0.0501 -0.7718
12318TIP3    H258446   1.744   6.589  15.572 -0.7416  0.3872  0.9349
12319TIP3   OH258447   2.837   6.725  16.025 -0.0821  0.2874  0.1896
12319TIP3    H158448   2.892   6.647  16.036 -0.3951  0.1464  0.7657
12319TIP3    H258449   2.805   6.745  16.113 -0.0762  1.0189  0.0317
12320TIP3   OH258450   6.440   0.465   3.805  0.0675  0.5687 -0.9110
12320TIP3    H158451   6.523   0.511   3.819  0.2126 -0.1260  0.6499
12320TIP3    H258452   6.466   0.379   3.771  0.1285 -0.2634  1.1195
12321TIP3   OH258453   5.526   0.599  16.082 -0.1719  0.3156 -0.1301
12321TIP3    H158454   5.453   0.658  16.104  1.6074  2.2896  0.8548
12321TIP3    H258455   5.548   0.622  15.992  0.4359  1.1173  0.2093
12322TIP3   OH258456   2.253   1.333  12.285  0.4358  0.1515 -0.2408
12322TIP3    H158457   2.275   1.261  12.344 -2.2706 -0.2516  0.4366
12322TIP3    H258458   2.227   1.404  12.343  1.0583  0.9710 -0.9417
12323TIP3   OH258459   0.859   1.787   1.844  0.2820 -0.2971 -0.4749
12323TIP3    H158460   0.938   1.732   1.846 -0.6964 -1.8327 -1.6980
12323TIP3    H258461   0.858   1.830   1.930  1.0292 -2.3149  0.6216
12324TIP3   OH258462   3.246   5.160  14.264 -0.0240 -0.2928  0.3365
12324TIP3    H158463   3.201   5.166  14.179  0.6850  0.6620 -0.0007
12324TIP3    H258464   3.276   5.070  14.269 -0.7394 -0.5625 -0.0800
12325TIP3   OH258465   2.288   1.331  10.895  0.3581 -0.4108 -0.1226
12325TIP3    H158466   2.219   1.302  10.835 -0.1449  1.3353 -0.4435
12325TIP3    H258467   2.369   1.300  10.855 -0.1431 -1.4803 -0.3500
12326TIP3   OH258468   2.549   4.547  13.091 -0.2608  0.0326  0.6421
12326TIP3    H158469   2.554   4.519  13.182 -0.0872  0.2765  0.7077
12326TIP3    H258470   2.459   4.527  13.065 -0.6170  0.8892  1.1741
12327TIP3   OH258471   3.070   6.668  12.255  0.6868  0.5475  0.2346
12327TIP3    H158472   3.098   6.592  12.306 -0.9077 -0.0931  0.1999
12327TIP3    H258473   3.136   6.735  12.274  2.6687 -1.0949 -0.4431
12328TIP3   OH258474   6.243   0.680   2.754 -0.5099  0.2360  0.0279
12328TIP3    H158475   6.165   0.733   2.738 -0.3395  0.1786 -1.0485
12328TIP3    H258476   6.301   0.736   2.805 -0.9930  0.5002  0.2919
12329TIP3   OH258477   2.529   3.468   1.545 -0.7087 -0.4431 -0.4519
12329TIP3    H158478   2.584   3.545   1.560 -0.3207 -0.3560 -2.1685
12329TIP3    H258479   2.441   3.496   1.573 -0.6732  0.8018 -1.4996
12330TIP3   OH258480   4.205   0.205  15.013  0.2129  0.2398 -0.3176
12330TIP3    H158481   4.217   0.134  14.951  1.2958  0.8636 -0.8603
12330TIP3    H258482   4.183   0.162  15.095 -2.5587 -0.5480 -1.3814
12331TIP3   OH258483   5.537   0.393  13.106  0.2745 -0.2901 -0.1167
12331TIP3    H158484   5.473   0.462  13.090  0.3233 -0.2398 -0.0982
12331TIP3    H258485   5.485   0.317  13.131  0.2523 -0.0379  0.6603
12332TIP3   OH258486   2.582   2.088  14.908 -0.1397 -0.3519  0.2485
12332TIP3    H158487   2.649   2.127  14.852 -2.0255 -0.0629 -1.9698
12332TIP3    H258488   2.573   2.149  14.981 -0.3842  1.4371 -1.2032
12333TIP3   OH258489   0.093   3.852   3.844  0.3157 -0.2800  0.2902
12333TIP3    H158490   0.059   3.815   3.762 -0.0726  0.4542  0.1138
12333TIP3    H258491   0.016   3.856   3.901  0.0444  1.4582 -0.1341
12334TIP3   OH258492   3.902   1.108   2.945  0.2174  0.2382 -0.5724
12334TIP3    H158493   3.847   1.134   3.019  0.2739  0.6779 -0.6883
12334TIP3    H258494   3.947   1.187   2.919 -0.5342  0.3142 -1.7185
12335TIP3   OH258495   6.625   1.968   1.080  0.2025  0.0673 -0.0073
12335TIP3    H158496   6.717   1.994   1.079  0.8558 -2.0453  0.0568
12335TIP3    H258497   6.614   1.924   1.165 -0.6823 -0.2778 -0.2915
12336TIP3   OH258498   3.050   5.786   1.343 -0.3448  0.4344  0.2601
12336TIP3    H158499   3.005   5.870   1.352  0.8554  1.0221  0.9076
12336TIP3    H258500   3.034   5.760   1.252 -0.0563  1.7573 -0.1905
12337TIP3   OH258501   0.182   0.499  15.456 -0.1776  0.0016  0.4108
12337TIP3    H158502   0.145   0.418  15.422 -0.4966 -0.1271  1.0432
12337TIP3    H258503   0.196   0.482  15.549 -0.7487  0.8471  0.6663
12338TIP3   OH258504   1.456   2.505   2.075  0.0937  0.1495 -0.4321
12338TIP3    H158505   1.361   2.510   2.089  0.3315  1.9750  1.0044
12338TIP3    H258506   1.471   2.556   1.995 -0.0495  0.8161 -0.0420
12339TIP3   OH258507   0.118   1.418   2.796  0.0741 -0.4790 -0.2655
12339TIP3    H158508   0.092   1.341   2.847  0.7597 -0.4559  0.1365
12339TIP3    H258509   0.181   1.463   2.852 -0.2844  0.3562 -0.5155
12340TIP3   OH258510   5.886   0.625  15.428  1.1237  0.0033  0.2511
12340TIP3    H158511   5.816   0.659  15.484 -0.0475 -1.7018 -0.1070
12340TIP3    H258512   5.965   0.633  15.481  0.1470 -0.9872  1.9472
12341TIP3   OH258513   3.836   0.489  15.121  0.0638 -0.3704  0.0349
12341TIP3    H158514   3.915   0.484  15.174  1.3656 -0.3402 -1.7800
12341TIP3    H258515   3.776   0.545  15.171  0.1406 -2.4513  2.6410
12342TIP3   OH258516   1.359   3.685  13.807  0.4838  0.1859 -0.5689
12342TIP3    H158517   1.315   3.687  13.892 -1.0505 -0.7748 -1.2995
12342TIP3    H258518   1.355   3.593  13.780  0.2986  0.5877 -1.9985
12343TIP3   OH258519   0.239   5.760  11.648  0.1188  0.3703 -0.3534
12343TIP3    H158520   0.322   5.808  11.642 -1.2426  2.8545 -0.8578
12343TIP3    H258521   0.217   5.740  11.557  1.1760 -2.3552 -0.1095
12344TIP3   OH258522   5.345   2.748  15.140  0.1065 -0.3696 -0.3444
12344TIP3    H158523   5.372   2.717  15.054 -1.7700  1.0429 -1.5042
12344TIP3    H258524   5.418   2.802  15.170  0.8196 -0.9565 -0.9890
12345TIP3   OH258525   3.208   4.050  16.784 -0.5997 -0.3033 -0.0019
12345TIP3    H158526   3.169   4.136  16.800 -1.7503 -0.8303  0.1048
12345TIP3    H258527   3.200   4.038  16.689  1.3712  0.5276 -0.3311
12346TIP3   OH258528   6.120   5.618  13.858  0.5196  0.0919  0.0995
12346TIP3    H158529   6.129   5.580  13.771  0.2453 -0.4411  0.2980
12346TIP3    H258530   6.083   5.547  13.911  0.6429  0.4265  0.6363
12347TIP3   OH258531   4.024   0.785  15.298 -0.2407  0.6152 -0.6700
12347TIP3    H158532   4.037   0.819  15.209  0.5557  1.4629 -0.2453
12347TIP3    H258533   4.111   0.787  15.337 -0.6275  0.4875  0.2172
12348TIP3   OH258534   0.202   5.756   4.796  0.2869 -0.0064  0.1178
12348TIP3    H158535   0.207   5.782   4.888  0.3783  0.6982 -0.0789
12348TIP3    H258536   0.151   5.675   4.796 -0.9217  0.7303  0.6427
12349TIP3   OH258537   1.283   5.112   3.601 -0.8325 -0.0612  0.0141
12349TIP3    H158538   1.285   5.078   3.512  2.4174 -1.2999  0.4193
12349TIP3    H258539   1.250   5.202   3.591  1.8353  0.8036 -2.9136
12350TIP3   OH258540   0.291   6.415  15.132 -0.3286  0.4398  0.1444
12350TIP3    H158541   0.326   6.332  15.163  3.6772  1.6766 -0.3906
12350TIP3    H258542   0.301   6.411  15.037 -0.9200  1.1834  0.0413
12351TIP3   OH258543   3.728   4.014   1.007 -0.9568 -0.5229  0.4310
12351TIP3    H158544   3.728   4.076   0.935  2.2631 -0.3707  0.4046
12351TIP3    H258545   3.715   3.929   0.965  0.3092 -0.3766 -0.3194
12352TIP3   OH258546   6.632   6.430  11.283 -0.5063  0.0050 -0.1990
12352TIP3    H158547   6.558   6.446  11.342 -1.6728  1.1651 -1.9085
12352TIP3    H258548   6.596   6.376  11.213  0.2604  0.5905 -1.0601
12353TIP3   OH258549   5.199   0.240  13.902  0.5058  0.0797  0.1073
12353TIP3    H158550   5.186   0.335  13.897  0.3157  0.0919  0.7580
12353TIP3    H258551   5.272   0.229  13.963  2.1691 -0.0910 -1.8164
12354TIP3   OH258552   5.270   2.382   5.087 -0.1144  0.3050 -0.0671
12354TIP3    H158553   5.357   2.348   5.106  0.3223  0.9913 -0.7759
12354TIP3    H258554   5.251   2.442   5.159 -0.2223 -0.2084  0.3440
12355TIP3   OH258555   5.437   0.275  14.064  0.1095 -0.1794 -0.1588
12355TIP3    H158556   5.379   0.299  14.136 -0.8576  1.9029 -1.5377
12355TIP3    H258557   5.526   0.288  14.098 -0.2714 -0.7638  1.1148
12356TIP3   OH258558   1.569   2.480  13.052 -1.0686  0.1086 -0.2149
12356TIP3    H158559   1.572   2.559  13.106 -2.2577  0.9892 -1.3933
12356TIP3    H258560   1.526   2.415  13.108  0.7635 -0.0525  1.1203
12357TIP3   OH258561   5.534   0.696  13.340  0.3332  0.3637  0.2011
12357TIP3    H158562   5.531   0.760  13.411  1.5225  0.3670  0.2662
12357TIP3    H258563   5.502   0.744  13.263 -1.6266  0.1635  0.8317
12358TIP3   OH258564   0.372   0.493  15.251  0.2342  0.1368  0.2057
12358TIP3    H158565   0.318   0.486  15.330 -1.1467 -0.7744 -0.7726
12358TIP3    H258566   0.431   0.418  15.254 -0.1550 -0.1748  0.1419
12359TIP3   OH258567   5.102   3.937   1.827  0.3880 -0.2515 -0.2461
12359TIP3    H158568   5.103   3.959   1.920  1.0646 -0.5164 -0.1857
12359TIP3    H258569   5.191   3.908   1.808  0.3967  0.2928 -1.0998
12360TIP3   OH258570   0.110   2.847   6.440  0.2132  0.2188 -1.1260
12360TIP3    H158571   0.060   2.778   6.482 -1.8559  2.5571  0.5114
12360TIP3    H258572   0.155   2.803   6.367 -1.9355 -2.5682 -0.9276
12361TIP3   OH258573   1.037   6.123   2.380  0.1468  0.2695  0.4776
12361TIP3    H158574   1.057   6.085   2.466  2.5132  0.6716  0.1872
12361TIP3    H258575   1.104   6.190   2.367  0.5061 -0.4537 -2.0991
12362TIP3   OH258576   3.908   3.104   0.852  0.3229 -0.6116  0.4818
12362TIP3    H158577   3.939   3.026   0.806  0.3266  0.8231 -2.1746
12362TIP3    H258578   3.981   3.165   0.848 -0.2754  0.1489  0.9076
12363TIP3   OH258579   1.959   5.873   0.142 -0.2816  0.0441 -0.4156
12363TIP3    H158580   1.954   5.789   0.186  0.2274  1.0027  1.5978
12363TIP3    H258581   1.874   5.884   0.099  0.0909 -2.0102 -1.8151
12364TIP3   OH258582   3.474   4.488  11.541 -0.3893 -0.2917  0.6713
12364TIP3    H158583   3.437   4.562  11.494 -0.2901 -0.3781  0.4580
12364TIP3    H258584   3.408   4.419  11.532 -0.2635 -0.3841  0.4559
12365TIP3   OH258585   3.076   1.857   2.543 -0.1683  0.6992 -0.2038
12365TIP3    H158586   3.092   1.892   2.455 -0.9956  0.0505 -0.6241
12365TIP3    H258587   3.059   1.764   2.529 -2.2752  0.9358  0.4011
12366TIP3   OH258588   1.809   1.580   1.910  0.1291  0.0956 -0.6547
12366TIP3    H158589   1.801   1.506   1.970 -0.4131  1.2432  0.7456
12366TIP3    H258590   1.760   1.553   1.832  0.6164 -1.3131 -0.4979
12367TIP3   OH258591   2.230   1.154   1.745 -0.1110 -0.5331  0.5121
12367TIP3    H158592   2.174   1.218   1.789  0.4109  1.0183 -0.9406
12367TIP3    H258593   2.170   1.085   1.717 -0.7675 -0.4835  1.7544
12368TIP3   OH258594   0.539   4.358  16.404  0.3187  0.1624 -1.0701
12368TIP3    H158595   0.567   4.445  16.433 -0.5131  0.7843 -2.0566
12368TIP3    H258596   0.449   4.350  16.435  1.0099 -1.1792  0.7318
12369TIP3   OH258597   3.019   6.155  13.083 -0.2723  0.3162 -0.0479
12369TIP3    H158598   3.020   6.061  13.062 -1.3675  0.5907 -1.4931
12369TIP3    H258599   3.110   6.183  13.074  0.0663 -0.6087  0.4110
12370TIP3   OH258600   4.194   5.180   0.749  0.4336 -0.1476 -0.0294
12370TIP3    H158601   4.144   5.261   0.755  0.5561 -0.1178  0.7520
12370TIP3    H258602   4.129   5.110   0.759  0.1751 -0.1938 -1.7556
12371TIP3   OH258603   5.785   4.249  12.401  0.4780  0.2508 -0.7820
12371TIP3    H158604   5.740   4.333  12.390  0.4771  0.2585 -0.7188
12371TIP3    H258605   5.719   4.183  12.377 -0.0757  0.1823  0.8210
12372TIP3   OH258606   6.628   5.437  11.831 -0.5218  0.0264 -0.4638
12372TIP3    H158607   6.671   5.516  11.797  0.3249  0.9150  2.3803
12372TIP3    H258608   6.688   5.404  11.899 -1.4768 -2.3298 -0.6578
12373TIP3   OH258609   5.423   5.727   0.300 -0.1559 -0.3540 -0.4939
12373TIP3    H158610   5.383   5.640   0.298  0.7028 -0.7606 -1.8717
12373TIP3    H258611   5.453   5.741   0.210  1.5121  0.4941  0.1464
12374TIP3   OH258612   3.274   4.902  10.756 -0.0587  0.2896 -0.4004
12374TIP3    H158613   3.322   4.946  10.685  2.6338 -0.0051  1.0716
12374TIP3    H258614   3.218   4.971  10.793  3.5151  2.5867  1.3863
12375TIP3   OH258615   2.799   4.571  15.641  0.2668 -0.0559 -0.0304
12375TIP3    H158616   2.736   4.639  15.616  0.8074 -0.5189 -3.0094
12375TIP3    H258617   2.745   4.503  15.682 -0.6357  0.9730  0.5724
12376TIP3   OH258618   5.208   5.954  15.535  0.7960  0.6320  0.1369
12376TIP3    H158619   5.273   5.896  15.574  0.8141 -0.6847 -1.7485
12376TIP3    H258620   5.218   6.037  15.583  1.2233 -0.6764  2.4466
12377TIP3   OH258621   1.463   6.347  11.723 -0.2329 -0.7698  0.2408
12377TIP3    H158622   1.381   6.298  11.711 -0.0412 -1.0838  0.2002
12377TIP3    H258623   1.436   6.439  11.722 -0.6449 -0.8784  0.6450
12378TIP3   OH258624   0.167   0.370  14.560 -0.2961  0.2543  0.2691
12378TIP3    H158625   0.073   0.382  14.546 -0.1278  1.1028 -0.2431
12378TIP3    H258626   0.203   0.368  14.471  0.2988  1.1524  0.4768
12379TIP3   OH258627   1.133   3.735  14.302  0.3951 -0.3854 -0.0537
12379TIP3    H158628   1.211   3.791  14.302  0.7290 -0.7313 -2.5254
12379TIP3    H258629   1.106   3.732  14.393  0.8645  3.0758  0.3496
12380TIP3   OH258630   2.225   5.668   2.964 -0.1020 -0.1307 -0.2205
12380TIP3    H158631   2.189   5.697   3.047 -1.0178 -0.0579 -0.6337
12380TIP3    H258632   2.313   5.637   2.985 -0.2505  0.0841  0.7321
12381TIP3   OH258633   0.310   4.656   0.386  0.1329 -0.1389  0.3432
12381TIP3    H158634   0.343   4.629   0.472 -1.0961  0.8237  1.1407
12381TIP3    H258635   0.216   4.669   0.399 -0.0986 -0.0941 -1.1841
12382TIP3   OH258636   3.886   1.646  12.260  0.3433  0.2985  0.0454
12382TIP3    H158637   3.842   1.677  12.339 -1.5988  0.7753 -1.1667
12382TIP3    H258638   3.893   1.723  12.204  0.7000 -0.2625 -0.7083
12383TIP3   OH258639   4.332   3.985  11.583  0.2424  0.4313  0.1852
12383TIP3    H158640   4.400   4.008  11.520  0.0014  0.3153 -0.1180
12383TIP3    H258641   4.295   4.069  11.610 -0.1739  0.4472 -0.4102
12384TIP3   OH258642   0.653   6.049  12.817  0.3017  0.1885  0.0074
12384TIP3    H158643   0.672   6.139  12.845  1.5396 -0.1725  0.3512
12384TIP3    H258644   0.557   6.048  12.806  0.2230  1.4328  0.3794
12385TIP3   OH258645   5.931   5.222   5.555  0.8557 -0.4896 -0.2057
12385TIP3    H158646   5.839   5.246   5.567  0.7682 -0.9952  0.2015
12385TIP3    H258647   5.980   5.299   5.583  0.5589 -0.2955 -0.2205
12386TIP3   OH258648   1.705   5.674  11.818 -0.5151  0.8257  0.3914
12386TIP3    H158649   1.675   5.620  11.892 -1.7711 -0.3531 -0.9301
12386TIP3    H258650   1.701   5.764  11.851 -0.8382  0.3136  1.8259
12387TIP3   OH258651   1.956   4.921   5.892 -0.7122  0.4570  0.6727
12387TIP3    H158652   2.042   4.897   5.924 -1.1376 -0.3580  1.2292
12387TIP3    H258653   1.903   4.933   5.970 -1.3998 -0.1762  0.3194
12388TIP3   OH258654   5.468   5.364  12.060 -0.6737 -0.3618  0.4976
12388TIP3    H158655   5.554   5.393  12.090  0.7602 -2.2337 -1.4170
12388TIP3    H258656   5.438   5.434  12.001 -0.4164  0.2579  1.0989
12389TIP3   OH258657   4.772   2.542   4.742 -0.1348 -0.0169  0.1024
12389TIP3    H158658   4.704   2.590   4.695  0.6291 -0.8037 -1.9059
12389TIP3    H258659   4.854   2.584   4.716  0.6939 -2.9490 -2.6979
12390TIP3   OH258660   2.951   0.723  16.094 -0.1223  0.3942 -0.1126
12390TIP3    H158661   3.010   0.793  16.120  0.5276  0.1204 -0.8183
12390TIP3    H258662   2.897   0.761  16.026 -0.3586  0.4623  0.1101
12391TIP3   OH258663   0.626   2.164  16.949 -0.0949  0.4324 -0.1736
12391TIP3    H158664   0.602   2.079  16.986  0.1178  0.7956  0.8102
12391TIP3    H258665   0.569   2.227  16.993 -0.1688  0.8212 -0.8116
12392TIP3   OH258666   1.463   4.644  11.517  0.1934 -0.2872  0.3597
12392TIP3    H158667   1.386   4.597  11.550  1.0175 -1.0182  1.3419
12392TIP3    H258668   1.475   4.716  11.579  0.9079 -0.8150  0.8615
12393TIP3   OH258669   0.899   3.640   2.467 -0.2512 -0.0033 -0.0751
12393TIP3    H158670   0.856   3.699   2.405 -1.8008 -1.8481 -0.8765
12393TIP3    H258671   0.850   3.652   2.549  0.0556  0.4871  0.0407
12394TIP3   OH258672   1.756   4.851  13.750 -0.0978 -0.3231  0.1666
12394TIP3    H158673   1.682   4.850  13.690 -0.7429  0.3009  0.9264
12394TIP3    H258674   1.826   4.804  13.704 -0.7826 -0.4227 -0.7862
12395TIP3   OH258675   3.906   4.303  14.757  0.0749  0.3519  0.3580
12395TIP3    H158676   3.990   4.262  14.736 -0.6878 -2.2199  1.9583
12395TIP3    H258677   3.861   4.307  14.673  0.5609 -1.3056 -0.0318
12396TIP3   OH258678   4.182   3.451   3.936 -0.2417  0.1656 -0.1207
12396TIP3    H158679   4.224   3.464   4.021 -0.4507  0.7161 -0.0938
12396TIP3    H258680   4.253   3.422   3.879  0.6317  2.7553 -0.5076
12397TIP3   OH258681   6.718   0.882   4.794 -0.2201  0.1158  0.0565
12397TIP3    H158682   6.741   0.973   4.813  0.4564 -0.6981  4.1632
12397TIP3    H258683   6.776   0.856   4.723 -1.0537  3.0419 -1.8492
12398TIP3   OH258684   0.602   5.732  15.135 -0.0411 -0.1439  0.0473
12398TIP3    H158685   0.597   5.779  15.051  0.2118  3.8253  2.0067
12398TIP3    H258686   0.513   5.700  15.149 -1.0653  2.3011 -0.2237
12399TIP3   OH258687   4.989   3.171  16.556  0.0790  0.1700 -0.1707
12399TIP3    H158688   4.989   3.218  16.473 -1.8640 -0.7249 -0.7489
12399TIP3    H258689   4.925   3.217  16.610  0.3350 -0.0477  0.3217
12400TIP3   OH258690   3.861   0.500  15.440  0.3911 -0.5988  0.2775
12400TIP3    H158691   3.855   0.576  15.499 -0.0551 -0.6990  0.3612
12400TIP3    H258692   3.856   0.424  15.498 -0.4987 -0.7030  0.0751
12401TIP3   OH258693   1.806   5.304   5.204  0.4630 -0.0473  0.0863
12401TIP3    H158694   1.897   5.313   5.177  1.2107 -2.6362  1.3652
12401TIP3    H258695   1.769   5.242   5.141 -0.7869  1.8221 -1.0900
12402TIP3   OH258696   0.218   4.844  13.143 -0.2332  0.2564  0.0261
12402TIP3    H158697   0.164   4.918  13.170  0.1394  0.1815  1.0541
12402TIP3    H258698   0.225   4.791  13.222 -1.0714 -1.2537 -0.8764
12403TIP3   OH258699   5.978   2.007   1.770  0.2178  0.1962  0.4130
12403TIP3    H158700   5.936   2.056   1.841  0.3517  1.6165 -0.4504
12403TIP3    H258701   6.009   2.074   1.710  1.3677 -0.9299 -0.2973
12404TIP3   OH258702   6.612   0.351   5.686  0.1900  0.1348 -0.2180
12404TIP3    H158703   6.690   0.399   5.713  0.3024  0.7789 -1.6077
12404TIP3    H258704   6.644   0.268   5.652  0.0095 -0.9051  2.0063
12405TIP3   OH258705   4.301   5.846   4.136  0.4551  0.5078 -0.3678
12405TIP3    H158706   4.393   5.821   4.126  0.3038 -0.0504 -0.4136
12405TIP3    H258707   4.304   5.934   4.173  1.0130  1.0213 -1.5838
12406TIP3   OH258708   1.749   1.222   3.776  0.2133  0.4141 -0.0171
12406TIP3    H158709   1.797   1.211   3.694  2.1181 -0.4223  1.1377
12406TIP3    H258710   1.783   1.304   3.812 -0.4670  0.6734  0.0534
12407TIP3   OH258711   0.127   2.796   5.137  0.3404  0.3893 -0.4123
12407TIP3    H158712   0.106   2.800   5.231 -2.1601  1.4820 -0.9174
12407TIP3    H258713   0.158   2.884   5.116 -0.0995  0.4658 -0.7716
12408TIP3   OH258714   2.151   2.641  13.108 -0.5627  0.4535  0.2351
12408TIP3    H158715   2.063   2.631  13.071 -0.7081  0.1281  0.6620
12408TIP3    H258716   2.146   2.720  13.161 -0.3888  0.8512 -0.3356
12409TIP3   OH258717   5.009   0.376  16.532  0.1695 -0.4201 -0.1013
12409TIP3    H158718   5.070   0.329  16.474  1.5092  1.3593 -0.2255
12409TIP3    H258719   4.960   0.434  16.475 -0.7213 -0.8612  0.1872
12410TIP3   OH258720   5.389   4.988  12.832  0.0919  0.3180 -0.3407
12410TIP3    H158721   5.314   5.046  12.841 -0.7958 -0.8756  0.2295
12410TIP3    H258722   5.351   4.900  12.825  1.4102 -0.2466 -0.7429
12411TIP3   OH258723   3.390   3.733  13.867  0.2048 -0.0565 -0.0265
12411TIP3    H158724   3.300   3.755  13.891 -0.2649 -2.4115  0.6993
12411TIP3    H258725   3.445   3.790  13.921 -0.8774  0.0009  1.0491
12412TIP3   OH258726   3.329   4.377   2.206 -0.0791  0.0665 -0.0849
12412TIP3    H158727   3.350   4.424   2.125 -1.3151 -0.3293 -0.6602
12412TIP3    H258728   3.237   4.352   2.196 -0.0602 -0.5724  1.1590
12413TIP3   OH258729   5.001   1.810  14.169 -0.1346 -0.6551  0.2854
12413TIP3    H158730   5.094   1.809  14.192 -0.1679 -0.3876  0.4341
12413TIP3    H258731   4.998   1.839  14.078 -0.1134  0.0134  0.4908
12414TIP3   OH258732   2.967   3.001  10.708  0.0009 -0.1511 -0.2832
12414TIP3    H158733   2.990   2.953  10.629  1.0011  0.3922 -0.3297
12414TIP3    H258734   3.020   2.961  10.777 -1.7042 -1.4005  0.3803
12415TIP3   OH258735   4.939   5.563  13.568  0.3176 -0.1568 -0.0341
12415TIP3    H158736   4.957   5.656  13.552 -1.0083  0.4141  1.6149
12415TIP3    H258737   4.975   5.519  13.491  0.9652  1.7117 -0.8629
12416TIP3   OH258738   6.457   5.130  12.190  0.2834  0.1553  0.0015
12416TIP3    H158739   6.506   5.132  12.108  1.8231 -0.4658  0.8759
12416TIP3    H258740   6.422   5.041  12.194  2.8674 -0.9093  1.4548
12417TIP3   OH258741   5.469   4.229   3.015  0.1086 -0.1610  0.0337
12417TIP3    H158742   5.550   4.192   2.981 -0.2107 -0.2751 -0.6150
12417TIP3    H258743   5.497   4.286   3.086  0.8286  0.4181 -0.6950
12418TIP3   OH258744   3.603   5.615   3.684  0.3174  0.3571  0.1534
12418TIP3    H158745   3.589   5.620   3.590  0.2669 -1.1165  0.0660
12418TIP3    H258746   3.666   5.684   3.703  2.7939 -1.3378 -1.4500
12419TIP3   OH258747   0.787   4.424  11.626 -0.5832 -0.0542  0.1849
12419TIP3    H158748   0.716   4.452  11.683 -0.4642 -1.2966  0.9672
12419TIP3    H258749   0.749   4.355  11.572 -0.2824  0.0902 -0.2243
12420TIP3   OH258750   1.187   0.295   4.950  0.3886 -0.2661 -0.0057
12420TIP3    H158751   1.274   0.257   4.942  0.9745  0.8180  0.9813
12420TIP3    H258752   1.193   0.379   4.903  0.0875  0.1230  0.6403
12421TIP3   OH258753   6.083   1.405   3.043  0.3512 -0.2769 -0.5449
12421TIP3    H158754   6.039   1.488   3.057  1.1512 -0.0944  1.0904
12421TIP3    H258755   6.174   1.421   3.070  0.1879 -2.0645  1.2595
12422TIP3   OH258756   6.621   1.208   0.617  0.2249  0.1465 -0.1472
12422TIP3    H158757   6.599   1.122   0.580 -0.5809  0.5805 -0.7080
12422TIP3    H258758   6.639   1.190   0.709 -1.2587 -0.4523  0.0514
12423TIP3   OH258759   2.207   6.354   3.754 -0.1399 -0.3506 -0.5369
12423TIP3    H158760   2.132   6.390   3.800  0.1399  1.1925 -1.2202
12423TIP3    H258761   2.181   6.265   3.730 -0.8910 -0.6177  1.1443
12424TIP3   OH258762   5.244   4.148   4.275 -0.4484 -0.3642 -0.2576
12424TIP3    H158763   5.206   4.217   4.222 -0.5576 -1.0908 -1.1327
12424TIP3    H258764   5.176   4.082   4.282 -0.0817 -0.7252 -0.0486
12425TIP3   OH258765   0.765   0.461  12.134  0.0944 -0.1374  0.0995
12425TIP3    H158766   0.829   0.407  12.180 -0.1594  1.2879  2.2895
12425TIP3    H258767   0.808   0.485  12.052  2.2642  0.5196  1.3490
12426TIP3   OH258768   0.036   1.606   2.494  0.2090  0.4598 -0.5312
12426TIP3    H158769  -0.007   1.553   2.561 -0.9938  0.3825 -1.3401
12426TIP3    H258770   0.101   1.657   2.542 -0.7941  0.5895  0.7288
12427TIP3   OH258771   2.657   1.674  13.099  0.7475  0.2414 -0.1224
12427TIP3    H158772   2.641   1.708  13.187  1.3447 -0.7987  0.4038
12427TIP3    H258773   2.574   1.634  13.073  0.9091 -0.5103  0.4704
12428TIP3   OH258774   6.315   6.087   0.504 -0.5504 -0.2385 -0.1889
12428TIP3    H158775   6.387   6.041   0.547  0.4339  0.2600 -1.2389
12428TIP3    H258776   6.347   6.176   0.494 -1.1150 -0.1344 -1.1455
12429TIP3   OH258777   2.948   4.802   0.619 -0.2958  0.0183  0.3112
12429TIP3    H158778   3.038   4.833   0.617 -0.1340 -0.4063 -2.6770
12429TIP3    H258779   2.955   4.706   0.619 -0.7396 -0.0173  0.4919
12430TIP3   OH258780   6.660   0.529   4.648  0.2062 -0.4883 -0.1290
12430TIP3    H158781   6.679   0.536   4.554 -1.0774 -0.5754 -0.4137
12430TIP3    H258782   6.744   0.508   4.688  1.4938  2.7085 -0.8542
12431TIP3   OH258783   4.648   1.716  13.565 -0.0809 -0.0872  0.0676
12431TIP3    H158784   4.605   1.659  13.629  1.1729  0.6210  1.6173
12431TIP3    H258785   4.646   1.803  13.605  0.0276  0.5350 -1.2339
12432TIP3   OH258786   2.278   1.515   4.603  0.3756  0.1674 -0.5435
12432TIP3    H158787   2.325   1.578   4.658  1.3923  0.3159 -1.5412
12432TIP3    H258788   2.266   1.438   4.658  0.4686  0.6769  0.2018
12433TIP3   OH258789   1.259   2.539   3.020 -0.3364 -0.7386 -0.3774
12433TIP3    H158790   1.214   2.469   2.972  0.7677 -1.6681 -0.1078
12433TIP3    H258791   1.352   2.520   3.008 -0.0016  1.0038 -0.7270
12434TIP3   OH258792   1.210   0.705   0.551 -0.3625 -0.7120  0.6484
12434TIP3    H158793   1.258   0.760   0.613  0.6757 -0.5276 -0.2997
12434TIP3    H258794   1.213   0.617   0.589 -2.2614 -0.1542  2.3158
12435TIP3   OH258795   4.027   3.365   0.733 -0.5537 -0.3359 -0.4408
12435TIP3    H158796   3.949   3.409   0.703 -1.5068 -1.7427 -0.1418
12435TIP3    H258797   4.069   3.331   0.654 -1.2688 -1.1731 -0.4771
12436TIP3   OH258798   5.681   0.650  16.417 -0.4905 -0.7998 -0.0790
12436TIP3    H158799   5.751   0.594  16.450 -0.0559  1.3702  3.2138
12436TIP3    H258800   5.724   0.706  16.352  0.1601 -1.3111 -0.0943
12437TIP3   OH258801   3.270   2.520   1.871 -0.2997 -0.3826  0.3323
12437TIP3    H158802   3.227   2.435   1.882  0.1180 -0.2317  4.4436
12437TIP3    H258803   3.363   2.499   1.867 -0.2975 -0.2254 -1.9304
12438TIP3   OH258804   6.162   2.758   4.592 -0.4001  0.4447 -0.1270
12438TIP3    H158805   6.078   2.713   4.603  0.5833 -1.4789 -0.0067
12438TIP3    H258806   6.201   2.757   4.680  0.4530 -0.2268 -0.4954
12439TIP3   OH258807   6.496   5.557   4.246  1.0482 -0.4656 -0.4059
12439TIP3    H158808   6.450   5.591   4.169  0.7437  1.0177  0.3885
12439TIP3    H258809   6.426   5.526   4.303  0.9771  1.4349  0.6345
12440TIP3   OH258810   1.999   0.433   1.471 -0.1077 -0.0357 -0.2592
12440TIP3    H158811   2.004   0.455   1.379  2.4536 -0.9133 -0.4171
12440TIP3    H258812   1.917   0.384   1.480  0.8253 -2.2472 -2.6556
12441TIP3   OH258813   2.588   5.586   3.288  0.0996  0.1093 -0.1720
12441TIP3    H158814   2.620   5.667   3.247  0.7220 -0.9479 -1.8547
12441TIP3    H258815   2.607   5.598   3.381 -0.1784  2.0553 -0.3232
12442TIP3   OH258816   5.513   6.745  15.569  0.4227 -0.4096  0.3441
12442TIP3    H158817   5.479   6.727  15.482  1.6984  0.5995 -0.4008
12442TIP3    H258818   5.466   6.685  15.626  1.3273 -2.8819 -1.3679
12443TIP3   OH258819   6.556   1.440   6.141  0.6497 -0.3437 -0.1544
12443TIP3    H158820   6.510   1.364   6.175  0.1138  0.6083  1.3415
12443TIP3    H258821   6.490   1.487   6.090  0.3839  0.1623  0.6295
12444TIP3   OH258822   6.225   4.413  10.914  0.5316 -0.1337 -0.0025
12444TIP3    H158823   6.179   4.361  10.979  0.4150 -1.2366 -0.9417
12444TIP3    H258824   6.235   4.355  10.839  1.1654  0.9231 -0.7673
12445TIP3   OH258825   0.670   1.540  16.386 -0.0134 -0.2447 -0.1047
12445TIP3    H158826   0.692   1.458  16.341 -0.1852 -0.4413  0.1690
12445TIP3    H258827   0.589   1.569  16.345  0.3304  0.0811 -0.5825
12446TIP3   OH258828   0.570   0.628  16.882 -0.5746 -0.1803  0.3210
12446TIP3    H158829   0.645   0.595  16.933  0.7242  0.9547 -0.7805
12446TIP3    H258830   0.556   0.717  16.916 -0.9819 -0.1433  0.0521
12447TIP3   OH258831   0.176   3.608   5.345  0.3922  0.1845 -0.8436
12447TIP3    H158832   0.258   3.618   5.297  0.4752  0.3666 -0.6627
12447TIP3    H258833   0.177   3.677   5.411  0.1461  0.1158 -0.7644
12448TIP3   OH258834   4.766   3.971   4.330  0.0330  0.1005  0.4159
12448TIP3    H158835   4.674   3.976   4.357 -0.6576 -1.1687 -1.4591
12448TIP3    H258836   4.792   4.062   4.316 -0.0822  0.6876  3.4079
12449TIP3   OH258837   6.064   3.442  16.706 -0.1458  0.2519 -0.3056
12449TIP3    H158838   6.126   3.369  16.699 -0.3109  0.0135  0.7024
12449TIP3    H258839   6.093   3.492  16.782 -1.9275 -0.5802  0.9920
12450TIP3   OH258840   3.417   0.716   4.491  0.1761  0.0797  0.4835
12450TIP3    H158841   3.467   0.636   4.473  1.2094  0.6435  0.7317
12450TIP3    H258842   3.346   0.687   4.548 -0.6028 -0.9728 -0.9660
12451TIP3   OH258843   0.767   4.186  12.276  0.1586 -0.1751  0.0256
12451TIP3    H158844   0.856   4.211  12.253  0.1098  0.4746  0.5018
12451TIP3    H258845   0.769   4.174  12.371 -0.4125  0.5495  0.1395
12452TIP3   OH258846   0.496   0.906   2.083  0.9071  0.3871  0.5816
12452TIP3    H158847   0.489   0.993   2.122  0.1949  1.1850 -1.1775
12452TIP3    H258848   0.586   0.901   2.050  0.6318  0.9439 -0.3000
12453TIP3   OH258849   0.699   5.677   1.170  0.0377 -0.0428 -0.7026
12453TIP3    H158850   0.639   5.657   1.098  1.0416 -1.0423 -1.3109
12453TIP3    H258851   0.723   5.769   1.157 -0.2769 -0.0375 -1.2800
12454TIP3   OH258852   3.044   5.185  12.767 -0.3784 -0.1571 -0.0320
12454TIP3    H158853   3.001   5.271  12.773 -2.0318 -1.0234  1.2627
12454TIP3    H258854   3.006   5.134  12.838  3.6953 -0.6542  2.1234
12455TIP3   OH258855   1.728   3.440  15.936 -0.1623  0.3078 -0.0818
12455TIP3    H158856   1.747   3.376  15.867  0.3319  1.3886 -0.9815
12455TIP3    H258857   1.814   3.466  15.970 -0.2431  1.6413 -0.8260
12456TIP3   OH258858   3.458   1.859  11.013  0.0285 -0.2621 -0.2452
12456TIP3    H158859   3.373   1.848  10.969  0.2836 -0.9197 -0.5731
12456TIP3    H258860   3.507   1.780  10.992  0.5015 -0.1637  0.4581
12457TIP3   OH258861   2.497   0.139  11.063  0.6959 -0.3094  0.3028
12457TIP3    H158862   2.460   0.148  10.975 -1.4965  1.6322  1.3371
12457TIP3    H258863   2.558   0.213  11.071 -0.7233  0.8150  1.1118
12458TIP3   OH258864   4.238   1.308  13.413  0.7703  0.4073  0.0897
12458TIP3    H158865   4.250   1.396  13.377  1.4956  0.2078 -0.1820
12458TIP3    H258866   4.322   1.287  13.453  1.1786 -0.7958 -1.2864
12459TIP3   OH258867   1.382   1.939  16.503  0.0147  0.7602  0.3180
12459TIP3    H158868   1.355   1.980  16.421  2.0260 -0.9766 -1.3384
12459TIP3    H258869   1.319   1.868  16.516 -0.0283  0.7433  0.0209
12460TIP3   OH258870   2.431   3.727  13.056 -0.0971 -0.2149 -0.0377
12460TIP3    H158871   2.383   3.657  13.099 -0.4852 -0.4791 -0.8734
12460TIP3    H258872   2.518   3.723  13.094 -0.2334 -0.8890  0.2242
12461TIP3   OH258873   5.894   1.271  16.375 -0.2229 -0.1455 -0.6331
12461TIP3    H158874   5.890   1.198  16.438  0.8137 -0.4645 -0.9119
12461TIP3    H258875   5.887   1.350  16.430 -1.5293 -0.4369 -0.3454
12462TIP3   OH258876   4.608   5.253  17.008  0.1208 -0.2177  0.6587
12462TIP3    H158877   4.682   5.206  16.971  0.5491 -0.6617  2.0121
12462TIP3    H258878   4.534   5.230  16.951  0.8000 -0.6070 -0.0898
12463TIP3   OH258879   1.979   1.488  13.380 -0.5079  0.4068  0.9664
12463TIP3    H158880   2.009   1.578  13.373  1.0125 -0.1235  0.2232
12463TIP3    H258881   1.930   1.472  13.299  2.0165 -0.3591 -0.5446
12464TIP3   OH258882   0.715   3.514   6.123 -0.5751  0.2387  0.0300
12464TIP3    H158883   0.701   3.586   6.061  0.8875  1.3766  0.9526
12464TIP3    H258884   0.809   3.516   6.141 -0.5315 -1.7879  0.2593
12465TIP3   OH258885   2.356   2.494  11.449  0.3560  0.2614  1.0281
12465TIP3    H158886   2.429   2.554  11.433  0.8773 -0.0288  2.1930
12465TIP3    H258887   2.323   2.472  11.362  1.6713  0.3772  0.4836
12466TIP3   OH258888   2.147   1.965  12.527 -0.1793 -0.0912 -0.5765
12466TIP3    H158889   2.178   1.957  12.617 -0.6404 -1.9027 -0.5391
12466TIP3    H258890   2.073   2.026  12.532 -0.8551 -0.9535  0.4821
12467TIP3   OH258891   1.490   3.862  15.510  0.0307  0.3049 -1.0325
12467TIP3    H158892   1.436   3.787  15.533 -0.4576  0.7208 -0.8146
12467TIP3    H258893   1.538   3.882  15.591 -0.8917  1.1021 -0.6708
12468TIP3   OH258894   5.284   4.589  14.451  0.0949 -0.1471 -1.0086
12468TIP3    H158895   5.325   4.503  14.454  0.3901 -0.0517 -1.9021
12468TIP3    H258896   5.353   4.648  14.419 -0.4468  0.1927 -1.5820
12469TIP3   OH258897   1.143   1.679  14.743  0.4392  0.5943  0.6417
12469TIP3    H158898   1.070   1.677  14.806 -0.3791  1.6177 -0.2332
12469TIP3    H258899   1.103   1.655  14.660  0.7467  2.6113 -0.1459
12470TIP3   OH258900   0.527   3.861   0.637 -0.1108 -0.2999  0.2800
12470TIP3    H158901   0.516   3.825   0.725  0.8091  0.9500  0.9293
12470TIP3    H258902   0.495   3.951   0.643  2.7347  0.8342  0.2003
12471TIP3   OH258903   3.247   4.050   4.550 -0.3795 -0.1552 -0.2674
12471TIP3    H158904   3.293   4.103   4.484 -0.2501  1.4147  0.9999
12471TIP3    H258905   3.166   4.099   4.567 -0.4273 -0.5563  0.6910
12472TIP3   OH258906   5.992   0.215  13.022 -0.2066 -0.1061  0.3657
12472TIP3    H158907   5.948   0.296  12.996 -2.2753 -1.2378  0.1423
12472TIP3    H258908   5.982   0.211  13.117  1.7922  0.9076  0.6660
12473TIP3   OH258909   0.312   4.204  16.285  0.0889 -0.2068  0.0495
12473TIP3    H158910   0.306   4.122  16.236  1.4831  0.3492 -1.1109
12473TIP3    H258911   0.251   4.263  16.240  0.0335 -0.2235  0.1010
12474TIP3   OH258912   5.748   6.297  15.944 -0.0461 -0.3429 -0.0277
12474TIP3    H158913   5.691   6.368  15.977 -0.2675  0.0324 -1.1735
12474TIP3    H258914   5.776   6.328  15.858  3.2149  0.2213  1.1086
12475TIP3   OH258915   5.295   3.418  12.662  0.4357  0.1636  0.1860
12475TIP3    H158916   5.221   3.433  12.720  0.7012  0.0430  0.5592
12475TIP3    H258917   5.312   3.504  12.622  0.6570  0.3974  0.7732
12476TIP3   OH258918   1.863   6.816  11.583  0.1765  0.3510  0.7028
12476TIP3    H158919   1.833   6.743  11.528  0.7720  1.8584 -1.7704
12476TIP3    H258920   1.948   6.840  11.547  0.4395  1.6326  2.0968
12477TIP3   OH258921   0.061   5.919   5.547 -0.5738 -0.0392 -0.6426
12477TIP3    H158922   0.006   5.902   5.471 -0.0779 -0.5947 -0.8886
12477TIP3    H258923   0.027   6.000   5.584 -2.1358 -0.8385 -0.2439
12478TIP3   OH258924   5.923   2.974   3.205  0.0372  0.5736  0.0511
12478TIP3    H158925   5.984   2.902   3.220 -0.1117  0.4423  0.0272
12478TIP3    H258926   5.876   2.951   3.126  0.5893  1.1159 -0.4455
12479TIP3   OH258927   0.578   5.445  12.298  0.0384  0.3294 -0.0151
12479TIP3    H158928   0.664   5.459  12.338  0.4484 -2.4162  0.3167
12479TIP3    H258929   0.559   5.526  12.252  2.7153  1.1355  0.0978
12480TIP3   OH258930   4.870   3.714  14.355  0.5192 -0.0913  0.5279
12480TIP3    H158931   4.927   3.768  14.410  1.4475  0.6159 -1.0722
12480TIP3    H258932   4.873   3.627  14.396 -1.3536  1.0233  3.4182
12481TIP3   OH258933   6.508   3.097  14.705  0.2207 -0.4151  0.4564
12481TIP3    H158934   6.424   3.144  14.706  0.4553  0.0760  2.8220
12481TIP3    H258935   6.574   3.167  14.707  0.7773 -0.7720 -2.0553
12482TIP3   OH258936   1.875   4.551  13.266  0.0635 -0.2657  0.0847
12482TIP3    H158937   1.800   4.494  13.249 -1.0683  0.8893  0.9406
12482TIP3    H258938   1.903   4.528  13.355  0.6759 -0.6199 -0.1924
12483TIP3   OH258939   2.645   3.041  14.509 -0.3455  0.1550 -0.0310
12483TIP3    H158940   2.617   2.963  14.461 -0.7334  1.0677 -1.3759
12483TIP3    H258941   2.739   3.048  14.492  0.0123 -0.8598  1.3964
12484TIP3   OH258942   3.637   1.464   4.691 -0.1731 -0.4391 -0.4038
12484TIP3    H158943   3.565   1.496   4.637  0.4106 -0.9111 -1.4981
12484TIP3    H258944   3.649   1.531   4.758  0.5052  1.2758 -2.1718
12485TIP3   OH258945   0.256   4.584   6.187 -0.4334 -0.0604  0.4140
12485TIP3    H158946   0.219   4.530   6.117  1.1589  1.2580 -1.5559
12485TIP3    H258947   0.274   4.523   6.258 -0.4099 -1.8102 -1.0357
12486TIP3   OH258948   2.736   5.004   0.391 -0.7202  0.2331  0.4576
12486TIP3    H158949   2.807   4.979   0.333 -2.2414 -0.5600 -1.1603
12486TIP3    H258950   2.681   4.926   0.397 -0.6446  0.2876  3.0031
12487TIP3   OH258951   2.882   3.290   0.900  0.3372 -0.5372 -0.6392
12487TIP3    H158952   2.829   3.225   0.945 -0.5759  0.2030 -0.6035
12487TIP3    H258953   2.843   3.374   0.926  2.9008  0.2029  1.2079
12488TIP3   OH258954   5.387   4.954  16.297  0.5158  0.6253 -0.1993
12488TIP3    H158955   5.481   4.957  16.312  0.8088  0.1685 -1.8123
12488TIP3    H258956   5.353   4.901  16.370  1.4735  0.9172  0.4696
12489TIP3   OH258957   3.759   2.354  15.111 -0.4127  0.6794  0.4068
12489TIP3    H158958   3.833   2.361  15.050  0.6450  0.4000  1.6259
12489TIP3    H258959   3.799   2.349  15.197 -1.8946  1.1815  1.1589
12490TIP3   OH258960   5.223   1.872  12.441  0.0871  0.2687 -0.6788
12490TIP3    H158961   5.195   1.944  12.385  1.2002 -1.0021 -3.0209
12490TIP3    H258962   5.166   1.799  12.417  0.0995 -0.1240  0.4140
12491TIP3   OH258963   2.543   3.613   3.139  0.3127  0.5225  0.0951
12491TIP3    H158964   2.473   3.656   3.090 -0.2554  1.8313  1.9597
12491TIP3    H258965   2.620   3.619   3.081 -1.1179 -1.3482 -2.1953
12492TIP3   OH258966   1.462   0.045   3.670 -0.1623  0.7444  0.7277
12492TIP3    H158967   1.425  -0.036   3.636  0.6391  0.9742 -0.7460
12492TIP3    H258968   1.556   0.036   3.658 -0.1674  2.7327 -1.4882
12493TIP3   OH258969   2.506   1.720   2.123  0.1387 -0.0984  0.2864
12493TIP3    H158970   2.493   1.631   2.091  0.4848  0.4537 -1.5128
12493TIP3    H258971   2.480   1.716   2.215  0.4475 -2.1142  0.3422
12494TIP3   OH258972   5.591   3.575  13.678  0.3710 -0.5935 -0.3864
12494TIP3    H158973   5.658   3.539  13.736  0.3570 -0.6567 -0.4105
12494TIP3    H258974   5.530   3.621  13.737  0.9991  0.3641 -0.4616
12495TIP3   OH258975   2.042   0.626  14.150 -0.1099  0.5970  0.6694
12495TIP3    H158976   1.986   0.556  14.184 -1.0351  1.0534  0.1080
12495TIP3    H258977   2.059   0.683  14.225 -1.1376  0.9389  0.6518
12496TIP3   OH258978   3.748   1.328  14.150 -0.4551  0.0320  0.5921
12496TIP3    H158979   3.791   1.392  14.094  1.0190 -1.5609 -0.1678
12496TIP3    H258980   3.800   1.327  14.231 -1.6670  1.1942  1.4406
12497TIP3   OH258981   2.779   4.141   1.028 -0.2132  0.1900  0.1033
12497TIP3    H158982   2.723   4.184   1.092  0.8425  2.5191 -0.4257
12497TIP3    H258983   2.851   4.105   1.079  0.5024  1.8326  0.3292
12498TIP3   OH258984   1.552   0.114   4.077 -0.0383 -0.1558 -0.6035
12498TIP3    H158985   1.595   0.186   4.124  0.1129  0.3472 -1.4842
12498TIP3    H258986   1.621   0.079   4.020 -0.0546 -1.1378 -0.0378
12499TIP3   OH258987   2.624   0.889  14.608 -0.7541 -0.3632  0.2597
12499TIP3    H158988   2.671   0.885  14.691 -1.4564 -0.1911  0.6700
12499TIP3    H258989   2.621   0.982  14.586 -1.9361 -0.2423  0.8460
12500TIP3   OH258990   4.882   4.679   1.990 -0.3461 -0.3365  0.5857
12500TIP3    H158991   4.877   4.761   1.940 -0.0543 -0.8318 -0.2746
12500TIP3    H258992   4.948   4.696   2.057 -0.3380  0.1584  0.4560
12501TIP3   OH258993   2.696   3.492   4.399  0.2088 -0.0368 -0.1687
12501TIP3    H158994   2.697   3.557   4.328  0.7574  0.0690 -0.0721
12501TIP3    H258995   2.698   3.408   4.354  0.0341  0.0234 -0.2889
12502TIP3   OH258996   1.299   1.553  15.157 -0.0103  0.4851  0.2043
12502TIP3    H158997   1.259   1.632  15.195  0.1538  1.6240 -1.8617
12502TIP3    H258998   1.392   1.572  15.154  0.0511  0.1390 -0.1395
12503TIP3   OH258999   4.280   6.554   1.222 -0.3957  0.0124 -0.0001
12503TIP3    H159000   4.358   6.523   1.268  0.3342 -0.8475 -1.7361
12503TIP3    H259001   4.215   6.485   1.237 -0.2868 -0.0800  0.0534
12504TIP3   OH259002   0.360   6.037  14.918 -0.0248 -0.0180 -0.1538
12504TIP3    H159003   0.272   6.001  14.930  0.2567 -1.1589 -1.3233
12504TIP3    H259004   0.353   6.091  14.839 -0.2983  2.1509  1.2540
12505TIP3   OH259005   4.115   5.274  15.179 -0.1838 -0.2813  0.0686
12505TIP3    H159006   4.081   5.248  15.265  0.6368 -0.5305  0.3313
12505TIP3    H259007   4.049   5.334  15.144  0.0388  0.8124  1.4189
12506TIP3   OH259008   1.576   4.486  13.135  0.5695  0.1764 -0.4113
12506TIP3    H159009   1.486   4.498  13.106  0.2294 -2.0882 -0.5122
12506TIP3    H259010   1.592   4.558  13.195 -1.6811  0.0795  0.3967
12507TIP3   OH259011   2.159   2.617  15.205  0.0185  0.3984  0.2064
12507TIP3    H159012   2.118   2.630  15.119  0.5070  0.5623 -0.0038
12507TIP3    H259013   2.117   2.539  15.240 -0.7709  0.7914  0.1722
12508TIP3   OH259014   0.532   4.942  12.984 -0.7830  0.0096 -0.1788
12508TIP3    H159015   0.566   4.862  13.025 -0.1628  0.8610  1.0184
12508TIP3    H259016   0.443   4.918  12.956 -1.0026 -0.7863  1.1232
12509TIP3   OH259017   2.150   2.940   3.054 -0.4794 -0.0987  0.3431
12509TIP3    H159018   2.078   2.958   3.114  1.9747  0.8482  3.3072
12509TIP3    H259019   2.189   2.859   3.088  0.7335  0.2172 -0.2349
12510TIP3   OH259020   2.704   0.276  13.817  0.1215  0.4017  0.3536
12510TIP3    H159021   2.795   0.298  13.835  0.3110  0.2395 -0.3686
12510TIP3    H259022   2.700   0.266  13.722 -0.6932  0.6060  0.3531
12511TIP3   OH259023   6.657   6.406  16.521 -0.4219  0.2282 -0.5546
12511TIP3    H159024   6.622   6.411  16.610 -1.7864  0.6329 -1.0925
12511TIP3    H259025   6.614   6.330  16.482  2.8935 -2.2633  0.2142
12512TIP3   OH259026   2.977   1.741  13.622 -0.4446  0.6167 -0.2181
12512TIP3    H159027   2.961   1.705  13.535  1.5659  1.1237 -0.8693
12512TIP3    H259028   2.974   1.836  13.609 -0.4663  0.6909  0.3308
12513TIP3   OH259029   5.953   0.053  16.495  0.2282  0.2708  0.1221
12513TIP3    H159030   5.873   0.037  16.445  0.1630 -0.0887  0.3419
12513TIP3    H259031   5.990  -0.034  16.511  0.8850  0.4592 -0.3388
12514TIP3   OH259032   0.859   5.734  15.187  0.4081  0.3228  0.3867
12514TIP3    H159033   0.883   5.825  15.172  0.8220  0.0725 -0.5863
12514TIP3    H259034   0.764   5.735  15.200  0.3619  0.8584  0.0233
12515TIP3   OH259035   6.729   5.329  12.695  0.3385 -0.3000  0.6271
12515TIP3    H159036   6.666   5.393  12.661  1.2693  1.0005  1.2214
12515TIP3    H259037   6.740   5.266  12.624 -2.0383 -0.9242  0.7376
12516TIP3   OH259038   3.562   5.841  13.478 -0.3227 -0.1390  0.6711
12516TIP3    H159039   3.509   5.893  13.418  0.8275 -0.1133 -0.3772
12516TIP3    H259040   3.499   5.802  13.538 -1.7088 -1.3769 -1.4587
12517TIP3   OH259041   3.838   0.923   3.669  0.3169  0.2051  0.4634
12517TIP3    H159042   3.897   0.935   3.743  0.0333 -0.0229  0.7282
12517TIP3    H259043   3.774   0.858   3.699 -0.6421  1.1526  0.5166
12518TIP3   OH259044   0.648   2.010  14.121 -0.4315  0.3402 -0.1546
12518TIP3    H159045   0.573   2.015  14.180 -0.5972  2.0383 -0.4787
12518TIP3    H259046   0.671   1.917  14.119 -2.5544 -0.2224 -0.0926
12519TIP3   OH259047   2.146   5.939  14.359  0.0749 -0.0610 -0.0188
12519TIP3    H159048   2.108   5.866  14.310 -0.0475 -0.9791  1.3844
12519TIP3    H259049   2.169   6.003  14.292 -0.9124 -0.8764 -1.1911
12520TIP3   OH259050   3.708   3.537   6.052  0.3946  0.2461  0.2589
12520TIP3    H159051   3.752   3.618   6.027  0.9532  0.0253  0.5231
12520TIP3    H259052   3.779   3.476   6.074 -0.0498 -0.0099  1.0068
12521TIP3   OH259053   5.999   5.143   5.313  0.1759 -0.3364  0.9341
12521TIP3    H159054   6.053   5.222   5.302 -0.4096  0.0632  0.8584
12521TIP3    H259055   5.961   5.154   5.400 -0.8636  0.0704  0.4391
12522TIP3   OH259056   1.813   3.262   3.574 -0.0482  0.3176  0.1081
12522TIP3    H159057   1.750   3.194   3.599  0.4289  0.0502  0.6025
12522TIP3    H259058   1.799   3.275   3.481  0.9013 -1.5793 -0.3435
12523TIP3   OH259059   2.940   5.031   1.078 -0.2774  0.2372  1.0548
12523TIP3    H159060   3.021   5.066   1.116  0.6915  0.5707 -1.1437
12523TIP3    H259061   2.929   5.080   0.997 -1.9598 -0.7531  0.6412
12524TIP3   OH259062   0.315   0.371   5.126 -0.3100 -0.2356 -0.0360
12524TIP3    H159063   0.326   0.278   5.106 -0.4937 -0.2337 -0.1454
12524TIP3    H259064   0.225   0.378   5.158 -0.2749 -0.1054  0.0339
12525TIP3   OH259065   2.592   1.340  16.935  0.8182 -0.1670  0.3596
12525TIP3    H159066   2.503   1.331  16.899 -0.5146  3.5016  2.1414
12525TIP3    H259067   2.598   1.432  16.960  4.9952 -0.3893  0.8871
12526TIP3   OH259068   0.187   0.416   0.856 -0.9200 -0.1072  0.0803
12526TIP3    H159069   0.245   0.364   0.801 -1.2543  0.6063 -0.9889
12526TIP3    H259070   0.130   0.352   0.899 -0.6386 -0.6828 -0.4037
12527TIP3   OH259071   4.072   5.105  12.466  0.8507 -0.2968 -0.2974
12527TIP3    H159072   4.096   5.050  12.541  0.6953  1.8092  1.3730
12527TIP3    H259073   4.155   5.142  12.436  0.6283  0.9230  0.5467
12528TIP3   OH259074   6.605   2.642   5.470  0.1964  0.3186  0.3772
12528TIP3    H159075   6.626   2.730   5.439  0.4430  0.1189 -0.0348
12528TIP3    H259076   6.519   2.650   5.511  0.8676  1.0660  1.7076
12529TIP3   OH259077   0.454   5.068   0.227  0.5398 -0.2325 -0.2971
12529TIP3    H159078   0.506   5.146   0.246 -1.3699  0.5939  2.0129
12529TIP3    H259079   0.450   5.021   0.310 -1.0497 -1.0850 -0.8186
12530TIP3   OH259080   2.946   4.236   1.348  0.0927 -0.0000  0.3486
12530TIP3    H159081   2.963   4.161   1.291  1.5561  2.2730 -2.4726
12530TIP3    H259082   2.851   4.240   1.354 -0.0518 -1.3413 -0.5319
12531TIP3   OH259083   3.766   2.524  16.867 -0.1443 -0.6606 -0.1174
12531TIP3    H159084   3.702   2.591  16.844 -0.7473 -0.4350  2.0242
12531TIP3    H259085   3.720   2.465  16.927  1.1867 -1.4176  0.2176
12532TIP3   OH259086   0.684   6.396  14.230 -0.0203 -0.1251 -0.4852
12532TIP3    H159087   0.641   6.410  14.146  0.7367 -0.7804 -1.0030
12532TIP3    H259088   0.777   6.412  14.212  0.1924 -0.6212  0.1358
12533TIP3   OH259089   6.503   0.118  15.671 -0.2694 -0.4114  0.6991
12533TIP3    H159090   6.565   0.177  15.714 -0.8721  1.2238 -0.6037
12533TIP3    H259091   6.553   0.038  15.656  1.3562  0.6308  0.2731
12534TIP3   OH259092   6.282   6.237   1.023  0.1457  0.4194 -0.3140
12534TIP3    H159093   6.301   6.329   1.006 -0.7130  0.1481 -3.1220
12534TIP3    H259094   6.367   6.197   1.039  0.9128  1.1280 -2.3664
12535TIP3   OH259095   1.966   6.349  11.386 -0.1189  0.0505  0.2445
12535TIP3    H159096   1.985   6.337  11.479 -0.9436 -1.0739  0.2926
12535TIP3    H259097   2.033   6.298  11.341 -0.2575 -0.1459  0.2587
12536TIP3   OH259098   4.846   4.122  16.831  0.0733 -0.3340  0.1446
12536TIP3    H159099   4.771   4.161  16.877 -0.2889  1.8543 -2.0756
12536TIP3    H259100   4.807   4.078  16.755  0.9918  2.2114 -1.9624
12537TIP3   OH259101   3.564   4.328   4.549  0.0070 -0.3632 -0.3056
12537TIP3    H159102   3.541   4.417   4.577  0.5592 -0.1080 -0.6386
12537TIP3    H259103   3.542   4.273   4.624  1.7587  0.3396  0.7754
12538TIP3   OH259104   2.167   5.235  15.800  0.0223  0.1275 -0.6020
12538TIP3    H159105   2.172   5.181  15.878  0.2507 -0.1125 -0.7824
12538TIP3    H259106   2.241   5.206  15.745  0.7535  1.2819 -0.2751
12539TIP3   OH259107   6.389   5.369  16.097 -0.2181 -0.2342 -0.2388
12539TIP3    H159108   6.464   5.310  16.107 -0.3997 -0.2493  1.2606
12539TIP3    H259109   6.371   5.400  16.186 -2.1492 -0.4293 -0.5151
12540TIP3   OH259110   1.413   4.558   0.436 -0.3974 -0.8427  0.0144
12540TIP3    H159111   1.470   4.566   0.359  0.7305 -2.4405  0.6275
12540TIP3    H259112   1.325   4.554   0.400  0.0637 -0.9830 -1.1636
12541TIP3   OH259113   4.099   6.383   5.067  0.1863 -0.1215 -0.4757
12541TIP3    H159114   4.070   6.471   5.042 -0.5766 -0.5560 -1.1872
12541TIP3    H259115   4.034   6.354   5.131  0.2479 -0.2840 -0.4867
12542TIP3   OH259116   2.362   6.066   2.115 -0.4509  0.7327  0.5160
12542TIP3    H159117   2.451   6.094   2.092 -0.1265 -1.4819 -1.4348
12542TIP3    H259118   2.305   6.134   2.080  0.3695  0.1851 -2.1677
12543TIP3   OH259119   2.301   2.666   2.324  0.2164  0.2750 -0.2486
12543TIP3    H159120   2.206   2.676   2.321  0.2345  0.2813 -0.8228
12543TIP3    H259121   2.335   2.751   2.294  0.4176  0.7084  1.1354
12544TIP3   OH259122   0.134   6.261  11.255  0.6773 -0.5908 -0.1281
12544TIP3    H159123   0.151   6.212  11.335 -1.1887  2.2360  2.2138
12544TIP3    H259124   0.043   6.240  11.234  0.4558  0.3650 -0.1720
12545TIP3   OH259125   0.673   4.961   4.444 -0.3919 -0.3661 -0.7064
12545TIP3    H159126   0.659   5.054   4.461  0.3730 -0.2459 -0.7120
12545TIP3    H259127   0.623   4.943   4.365  0.5954  0.3640 -1.5120
12546TIP3   OH259128   2.395   1.493  11.184  0.1509  0.2222 -0.1516
12546TIP3    H159129   2.417   1.400  11.183 -0.2646  0.0685  1.7062
12546TIP3    H259130   2.301   1.495  11.205  0.4522  1.0697  1.2399
12547TIP3   OH259131   2.874   5.562  14.522 -0.1786  0.0247  0.3137
12547TIP3    H159132   2.815   5.628  14.484  1.1496  2.2031  1.8253
12547TIP3    H259133   2.945   5.613  14.560  1.3355 -2.3793  0.8792
12548TIP3   OH259134   4.134   4.247  17.006 -0.0331  0.4179 -1.0113
12548TIP3    H159135   4.155   4.202  17.087  0.1376  0.8251 -0.8276
12548TIP3    H259136   4.144   4.340  17.026 -0.1370  0.5303 -1.4539
12549TIP3   OH259137   0.403   1.552  12.171 -0.5492  0.1809 -0.3980
12549TIP3    H159138   0.478   1.514  12.125  0.9128  0.8135  1.3047
12549TIP3    H259139   0.443   1.608  12.238 -2.5855  1.8743 -0.5110
12550TIP3   OH259140   0.166   3.204  11.372 -0.1443  0.0587 -0.2299
12550TIP3    H159141   0.188   3.113  11.388  0.8266  0.5761  1.7751
12550TIP3    H259142   0.134   3.236  11.456  2.5702  2.3441  0.1175
12551TIP3   OH259143   3.226   0.629   3.007  0.1438  0.2718  0.3673
12551TIP3    H159144   3.321   0.633   2.994  0.1158 -0.9258 -0.3446
12551TIP3    H259145   3.209   0.690   3.079  1.6106 -0.4297  1.3592
12552TIP3   OH259146   5.903   1.593  14.591  0.4087 -0.5089 -0.1245
12552TIP3    H159147   5.858   1.660  14.643  0.6974 -1.3169  1.2198
12552TIP3    H259148   5.996   1.609  14.606  0.4884 -2.0005  1.3594
12553TIP3   OH259149   2.185   4.917  11.884 -0.2467 -0.2623  0.2228
12553TIP3    H159150   2.278   4.923  11.863 -0.7351 -0.5067 -2.3576
12553TIP3    H259151   2.181   4.858  11.960  1.5284 -3.4039 -1.8688
12554TIP3   OH259152   1.808   2.083   2.418 -0.2645 -0.1575 -0.9123
12554TIP3    H159153   1.757   2.092   2.337 -1.0019  1.3002 -0.3215
12554TIP3    H259154   1.872   2.154   2.414 -1.1283  0.7379  0.3355
12555TIP3   OH259155   0.685   2.662  14.918 -0.0978 -0.2987 -0.3265
12555TIP3    H159156   0.650   2.589  14.968  1.8939 -1.9482 -1.1657
12555TIP3    H259157   0.780   2.656  14.929  0.1413  2.7062  0.2251
12556TIP3   OH259158   1.215   0.408  10.839 -0.1668  0.0714 -0.2567
12556TIP3    H159159   1.226   0.452  10.923 -0.3454  1.1699 -0.8007
12556TIP3    H259160   1.249   0.470  10.775  0.1132 -0.8182 -0.9942
12557TIP3   OH259161   6.216   2.872  15.084 -0.0069  0.0087  0.2253
12557TIP3    H159162   6.124   2.856  15.064  0.0107 -1.4581  1.1183
12557TIP3    H259163   6.223   2.966  15.095 -1.3784  0.1533  0.0107
12558TIP3   OH259164   3.716   1.500  14.441 -0.3327  0.0133 -0.2797
12558TIP3    H159165   3.704   1.593  14.424  1.7787  0.4974  0.5921
12558TIP3    H259166   3.631   1.470  14.474 -1.4860  1.2548 -2.0243
12559TIP3   OH259167   6.558   4.488  16.118  0.4381 -0.3251  0.0170
12559TIP3    H159168   6.617   4.447  16.056 -1.3261  0.1557 -2.0913
12559TIP3    H259169   6.561   4.581  16.096  0.1128 -0.0700  0.9813
12560TIP3   OH259170   5.902   0.440   2.184 -0.0882  0.2782 -0.2577
12560TIP3    H159171   5.838   0.472   2.121  0.6274  0.6192 -0.8314
12560TIP3    H259172   5.850   0.412   2.260 -0.9290  0.1579 -0.8724
12561TIP3   OH259173   1.140   2.129   3.604 -0.0954  0.0831  0.0421
12561TIP3    H159174   1.055   2.149   3.564 -0.8074  0.2779  1.5629
12561TIP3    H259175   1.117   2.076   3.681  1.2466 -0.6658 -0.0504
12562TIP3   OH259176   0.734   1.904   4.009 -0.6202 -0.2826  0.2501
12562TIP3    H159177   0.810   1.947   3.970 -1.0831 -1.2064 -1.8311
12562TIP3    H259178   0.769   1.860   4.086  0.3282  1.7270  1.0379
12563TIP3   OH259179   3.905   5.318  16.079  0.2295 -0.3947  0.6895
12563TIP3    H159180   3.860   5.332  16.162 -0.6309  0.7688  0.0558
12563TIP3    H259181   3.902   5.403  16.035 -0.0950 -1.1837 -0.8971
12564TIP3   OH259182   4.300   4.443   2.585 -0.0183  0.2046  0.1802
12564TIP3    H159183   4.291   4.532   2.619 -2.1564  0.1092 -0.0525
12564TIP3    H259184   4.368   4.450   2.519 -2.1456  2.3621 -1.9674
12565TIP3   OH259185   4.622   2.240   2.376  0.0140  0.0600 -0.3500
12565TIP3    H159186   4.594   2.316   2.426  0.2806  1.5146 -2.2763
12565TIP3    H259187   4.541   2.200   2.345 -0.1365 -0.6160  0.8949
12566TIP3   OH259188   2.310   6.481   3.121 -0.1941 -0.2652 -0.5069
12566TIP3    H159189   2.343   6.430   3.046  0.9661  1.0442 -0.9296
12566TIP3    H259190   2.369   6.556   3.126 -0.5093 -0.1130  1.4866
12567TIP3   OH259191   2.899   2.127  13.261  0.1089 -0.0778  0.0665
12567TIP3    H159192   2.806   2.106  13.268 -0.2614  1.3341 -0.2722
12567TIP3    H259193   2.912   2.201  13.320  0.9120  0.0596 -0.2604
12568TIP3   OH259194   5.766   3.127   3.943  1.0247 -0.8867  1.0375
12568TIP3    H159195   5.743   3.134   4.036  2.3278 -1.0882  1.4029
12568TIP3    H259196   5.802   3.039   3.933  2.3576 -0.3426  0.7179
12569TIP3   OH259197   4.660   1.997  11.982 -0.2323 -0.4913 -0.1481
12569TIP3    H159198   4.632   2.089  11.981  1.0568 -0.0822 -0.0850
12569TIP3    H259199   4.721   1.989  11.909 -1.1413 -1.5828 -0.8116
12570TIP3   OH259200   1.444   5.775   3.654  0.1600 -0.0923  0.1478
12570TIP3    H159201   1.536   5.752   3.643  0.5554  1.6296 -0.5099
12570TIP3    H259202   1.407   5.765   3.567  0.2651  1.3151 -0.0787
12571TIP3   OH259203   0.482   2.448   3.438  0.7511 -0.6031  0.1591
12571TIP3    H159204   0.473   2.443   3.343  2.3722 -2.1101  0.0481
12571TIP3    H259205   0.559   2.503   3.452  0.1347  0.1704  0.6563
12572TIP3   OH259206   1.327   4.630   5.783 -0.0824 -0.4528  0.1608
12572TIP3    H159207   1.259   4.581   5.737 -0.2878 -0.0251  0.0048
12572TIP3    H259208   1.407   4.579   5.769 -0.3101 -0.7951  0.0869
12573TIP3   OH259209   0.361   2.914   6.154 -0.5854  0.2887 -0.0085
12573TIP3    H159210   0.304   2.979   6.194 -1.7769 -0.9881  0.4449
12573TIP3    H259211   0.346   2.834   6.205 -1.7529 -1.2654 -2.5759
12574TIP3   OH259212   6.536   6.178   1.867 -0.4409  0.4478 -0.3917
12574TIP3    H159213   6.480   6.131   1.928  0.0819 -2.3049 -1.8451
12574TIP3    H259214   6.476   6.229   1.813 -1.5872 -1.8377 -1.4199
12575TIP3   OH259215   5.862   5.070  13.828  0.3010 -0.1375  0.3587
12575TIP3    H159216   5.825   5.106  13.909 -0.3945 -0.6316  0.2724
12575TIP3    H259217   5.814   5.114  13.758  0.8392  0.2212  0.2102
12576TIP3   OH259218   6.356   2.742   0.348  0.3398 -0.8381 -0.5360
12576TIP3    H159219   6.350   2.787   0.264 -0.8232 -1.0784 -0.5910
12576TIP3    H259220   6.355   2.813   0.413  0.7402 -0.6796 -0.6987
12577TIP3   OH259221   4.421   2.121   1.392  0.1118 -0.0705  0.1760
12577TIP3    H159222   4.422   2.127   1.488  3.1320 -1.7519  0.3888
12577TIP3    H259223   4.328   2.111   1.370 -0.6172 -0.5669  3.0092
12578TIP3   OH259224   2.203   1.734  13.592 -0.2715  0.6350  0.3139
12578TIP3    H159225   2.200   1.778  13.507 -0.5087 -0.6758 -0.3847
12578TIP3    H259226   2.210   1.805  13.655 -3.8203  1.9305 -0.5117
12579TIP3   OH259227   1.361   2.390   0.589 -0.3326  0.0900  0.2899
12579TIP3    H159228   1.390   2.451   0.521 -0.3010  0.4648  0.6331
12579TIP3    H259229   1.280   2.352   0.555 -0.1659  0.0601 -0.0783
12580TIP3   OH259230   1.276   2.205  14.084 -0.5167  0.8352 -0.1524
12580TIP3    H159231   1.351   2.195  14.143 -1.4978 -0.6620  0.9090
12580TIP3    H259232   1.282   2.129  14.026 -1.3658  0.5240  0.1510
12581TIP3   OH259233   6.625   2.686  17.166 -0.3857  0.0841 -0.2428
12581TIP3    H159234   6.569   2.760  17.189 -0.5224 -0.6463  2.0723
12581TIP3    H259235   6.608   2.622  17.235  1.4709 -1.1577 -0.8860
12582TIP3   OH259236   0.322   5.294   4.389 -0.1949  0.7065 -0.3264
12582TIP3    H159237   0.266   5.364   4.425 -0.8385  2.2592 -3.9264
12582TIP3    H259238   0.383   5.340   4.331  1.9614 -1.4304  0.0884
12583TIP3   OH259239   5.079   5.643  13.951  0.4016  0.3130 -0.5377
12583TIP3    H159240   5.115   5.670  14.036  2.7128  1.0920 -1.6804
12583TIP3    H259241   5.042   5.557  13.967  0.6541  0.5021  1.2871
12584TIP3   OH259242   5.964   6.029  14.892  0.3016 -0.1573  0.1115
12584TIP3    H159243   5.999   5.987  14.813 -1.4844  0.2623 -0.9772
12584TIP3    H259244   5.912   5.961  14.934 -0.3805  0.1696 -0.1847
12585TIP3   OH259245   3.933   3.446   5.708 -0.0489 -0.3686  0.5053
12585TIP3    H159246   3.907   3.431   5.799  0.6176  0.3974  0.8374
12585TIP3    H259247   3.857   3.419   5.657  0.3439 -2.8893  1.1267
12586TIP3   OH259248   3.188   5.449  13.287 -0.0508 -0.0681 -0.1354
12586TIP3    H159249   3.146   5.500  13.357  2.0941 -0.4924  1.5508
12586TIP3    H259250   3.121   5.386  13.261 -0.9597  0.1733  1.4569
12587TIP3   OH259251   3.012   2.061   1.461 -0.6022 -0.2018 -0.1382
12587TIP3    H159252   3.051   2.143   1.431  1.0133 -0.9631 -0.2536
12587TIP3    H259253   3.009   2.068   1.556  0.2979 -0.3189 -0.0946
12588TIP3   OH259254   6.206   6.695  17.151  0.0429 -0.3227  0.1204
12588TIP3    H159255   6.124   6.679  17.105  0.6185 -1.0650 -0.6795
12588TIP3    H259256   6.184   6.689  17.243 -1.3872  2.3245  0.0710
12589TIP3   OH259257   3.354   0.398   4.088 -0.4744 -0.1798 -0.0368
12589TIP3    H159258   3.339   0.311   4.051 -1.1580 -0.1957  0.2501
12589TIP3    H259259   3.354   0.457   4.013  1.6673 -0.6018 -0.4089
12590TIP3   OH259260   6.662   5.753  16.860  0.2409  0.3462  0.2327
12590TIP3    H159261   6.711   5.690  16.913  1.1508  1.3077  0.5653
12590TIP3    H259262   6.686   5.838  16.896 -0.2127  0.9389 -0.8353
12591TIP3   OH259263   5.634   6.219   4.291  0.3708 -0.3057 -0.3317
12591TIP3    H159264   5.589   6.278   4.232  0.1134 -0.6120 -0.4466
12591TIP3    H259265   5.578   6.141   4.295 -1.2965  0.8912  2.7819
12592TIP3   OH259266   3.036   4.608  13.953  0.2626 -0.4233 -0.6575
12592TIP3    H159267   2.942   4.623  13.967  0.6492  1.6739  0.0789
12592TIP3    H259268   3.040   4.547  13.879 -1.6813 -1.2946 -0.1025
12593TIP3   OH259269   1.678   1.133  15.639 -0.0602 -0.1841  0.3241
12593TIP3    H159270   1.643   1.064  15.695  0.3006 -0.2588  0.4580
12593TIP3    H259271   1.618   1.207  15.652 -1.1831 -0.8546 -0.7652
12594TIP3   OH259272   3.775   4.643  14.036  0.4706  0.0169  0.2590
12594TIP3    H159273   3.802   4.609  13.951  1.0801 -0.8130  0.7793
12594TIP3    H259274   3.680   4.631  14.037  0.3557  0.7464 -0.6087
12595TIP3   OH259275   3.474   2.951  16.299  0.0706  0.3917 -0.1616
12595TIP3    H159276   3.537   2.882  16.320 -1.5871 -0.9374  0.7143
12595TIP3    H259277   3.410   2.946  16.370 -1.2943  1.3500 -1.2934
12596TIP3   OH259278   6.188   6.126  17.070  0.1055 -1.0764  0.2637
12596TIP3    H159279   6.251   6.112  17.000 -1.6622 -1.7220 -1.2852
12596TIP3    H259280   6.214   6.065  17.139  0.5087 -2.1438 -0.8085
12597TIP3   OH259281   0.971   3.704   5.519  0.1447  0.1781 -0.5236
12597TIP3    H159282   0.950   3.611   5.530  0.7322  0.2552  2.0453
12597TIP3    H259283   1.057   3.704   5.479 -0.2276 -0.3539 -1.3488
12598TIP3   OH259284   6.536   0.398  16.679  0.2931  0.2222  0.2718
12598TIP3    H159285   6.477   0.323  16.686 -0.9453  0.9015 -2.0861
12598TIP3    H259286   6.565   0.414  16.769 -3.9269  0.5028  1.7826
12599TIP3   OH259287   0.314   4.825  15.631  0.4879  0.1935  0.8946
12599TIP3    H159288   0.370   4.782  15.565 -0.3789 -0.5019  0.5851
12599TIP3    H259289   0.224   4.808  15.600  0.0940  0.8188  1.6708
12600TIP3   OH259290   5.892   4.256  14.391 -0.2610 -0.2532 -0.0970
12600TIP3    H159291   5.845   4.263  14.474 -0.4135 -0.9050 -0.1215
12600TIP3    H259292   5.860   4.330  14.339 -2.1988 -1.3432 -0.5687
12601TIP3   OH259293   5.704   1.883   3.432  0.1412  0.2040 -0.4304
12601TIP3    H159294   5.790   1.912   3.462  0.6255  0.2164 -1.7974
12601TIP3    H259295   5.690   1.929   3.349  0.5715 -2.7335 -2.2641
12602TIP3   OH259296   6.129   5.131  13.777  0.0659 -0.2183  0.1102
12602TIP3    H159297   6.109   5.169  13.691  0.0471  0.0037  0.2109
12602TIP3    H259298   6.044   5.113  13.816  0.0334  0.9641  0.6441
12603TIP3   OH259299   5.441   2.120  13.149 -0.0325  0.0210  0.5669
12603TIP3    H159300   5.389   2.137  13.071 -1.0526 -1.0387  0.9960
12603TIP3    H259301   5.512   2.064  13.119  0.5877  1.0247  0.0907
12604TIP3   OH259302   6.479   1.837   1.432 -0.6918  0.6905  0.1594
12604TIP3    H159303   6.539   1.909   1.450  0.3865 -0.1801  0.1306
12604TIP3    H259304   6.440   1.817   1.518 -1.5733  1.7721  0.0409
12605TIP3   OH259305   6.331   3.190  13.312  0.0354 -0.2075  0.4963
12605TIP3    H159306   6.290   3.117  13.264  0.7153 -1.4519  1.7269
12605TIP3    H259307   6.379   3.147  13.382 -2.0063  1.5657  3.1725
12606TIP3   OH259308   1.829   0.847  15.333  0.3497  0.1571  0.0937
12606TIP3    H159309   1.840   0.838  15.239  0.8030 -2.1467  0.2930
12606TIP3    H259310   1.742   0.886  15.344 -0.6357 -1.4941 -1.2995
12607TIP3   OH259311   6.629   2.459   0.408  0.3497 -0.6009 -1.0169
12607TIP3    H159312   6.700   2.415   0.363  1.7334  0.6843 -0.1949
12607TIP3    H259313   6.636   2.429   0.499  0.8899  0.7381 -0.5905
12608TIP3   OH259314   3.939   6.581  10.816 -0.9034 -0.6040  0.5091
12608TIP3    H159315   3.896   6.640  10.753  0.6594  0.6034  0.5208
12608TIP3    H259316   3.939   6.496  10.772 -2.4176 -0.4404  0.1176
12609TIP3   OH259317   1.965   5.588   4.262 -0.4150 -0.1895  0.4775
12609TIP3    H159318   1.979   5.507   4.312 -1.6926 -0.1581  0.9258
12609TIP3    H259319   2.052   5.629   4.259  0.2822 -1.6254  0.1351
12610TIP3   OH259320   5.661   4.520   4.219  0.0872 -0.3813  0.1592
12610TIP3    H159321   5.729   4.484   4.162 -0.3714 -0.6427 -0.2276
12610TIP3    H259322   5.671   4.473   4.302  0.6744 -0.0890  0.2636
12611TIP3   OH259323   2.953   4.118  14.739 -0.5468 -0.2729 -0.0156
12611TIP3    H159324   3.016   4.184  14.710 -1.0638 -0.2370 -1.1155
12611TIP3    H259325   2.868   4.164  14.736 -0.7025 -0.4957  0.8527
12612TIP3   OH259326   3.703   3.124   1.775  0.4787  0.0403 -0.2471
12612TIP3    H159327   3.714   3.048   1.831 -0.0003  1.0656  1.2803
12612TIP3    H259328   3.780   3.178   1.791  0.2684  0.4164 -0.4831
12613TIP3   OH259329   2.364   4.685  16.783 -0.5465  0.6587  0.1434
12613TIP3    H159330   2.269   4.695  16.785 -0.5425  0.8801 -0.5394
12613TIP3    H259331   2.397   4.772  16.764 -0.1714  0.7067  0.9917
12614TIP3   OH259332   5.870   3.720   5.629 -0.2738 -0.0563 -0.1699
12614TIP3    H159333   5.921   3.741   5.707  1.2122  0.4449 -1.2260
12614TIP3    H259334   5.790   3.680   5.662  0.2841  0.2208  1.6017
12615TIP3   OH259335   1.427   1.466   2.848  0.7962 -0.1591  0.3566
12615TIP3    H159336   1.512   1.481   2.889  0.9312 -1.3889  0.5574
12615TIP3    H259337   1.395   1.385   2.886  0.1783 -0.4727 -0.7632
12616TIP3   OH259338   6.767   1.279   2.152  0.1071  0.4588 -0.7224
12616TIP3    H159339   6.790   1.245   2.239  1.2434  2.4196 -0.1939
12616TIP3    H259340   6.852   1.301   2.113 -0.4761  0.8542 -1.7894
12617TIP3   OH259341   3.898   4.706  11.636 -0.0025  0.0525  0.3225
12617TIP3    H159342   3.816   4.704  11.685  0.4105 -0.3591  1.0067
12617TIP3    H259343   3.872   4.728  11.547 -0.9296 -0.7223  0.3845
12618TIP3   OH259344   1.426   1.001   5.094  0.0824  0.5205 -0.5118
12618TIP3    H159345   1.336   1.014   5.066  0.4862  0.6946 -1.7764
12618TIP3    H259346   1.467   0.953   5.022  0.5877 -1.0699  0.7668
12619TIP3   OH259347   0.446   6.819   1.862 -0.0680  0.3185  0.2710
12619TIP3    H159348   0.378   6.875   1.825 -1.5200  0.4646  2.8809
12619TIP3    H259349   0.399   6.745   1.900  1.4194 -0.5200  0.5788
12620TIP3   OH259350   4.824   3.592   4.941  0.2330 -0.3311  0.2782
12620TIP3    H159351   4.888   3.598   4.870  0.4509 -1.3649  0.3626
12620TIP3    H259352   4.862   3.527   5.000  0.7522  1.5030  2.0876
12621TIP3   OH259353   1.612   3.262  13.153  0.1891 -0.1017  0.0084
12621TIP3    H159354   1.572   3.348  13.167  1.0655  0.2679  0.2517
12621TIP3    H259355   1.699   3.269  13.191  1.0022 -0.4703 -1.6861
12622TIP3   OH259356   2.500   4.549   1.744  0.5431  0.1793 -0.0076
12622TIP3    H159357   2.505   4.636   1.707 -0.1368 -0.4442 -1.6484
12622TIP3    H259358   2.577   4.504   1.711  0.0221 -0.3320 -0.5483
12623TIP3   OH259359   4.923   4.401   3.367  0.2024 -0.0637 -0.1784
12623TIP3    H159360   4.968   4.444   3.440  0.6816  0.9588 -1.0473
12623TIP3    H259361   4.835   4.383   3.401  0.0672  1.3783  0.3130
12624TIP3   OH259362   1.155   2.765  14.485 -0.5564  0.1940  0.3291
12624TIP3    H159363   1.082   2.809  14.529 -0.5441  1.0527 -0.4755
12624TIP3    H259364   1.114   2.697  14.432 -0.8332  1.0296 -0.5431
12625TIP3   OH259365   2.981   5.293  13.161  0.3848  0.4852  0.0370
12625TIP3    H159366   2.967   5.377  13.118 -0.6655  0.0987 -0.4029
12625TIP3    H259367   2.914   5.235  13.124  1.3159 -0.6525  0.0489
12626TIP3   OH259368   0.394   3.050  12.905 -1.0785 -0.0726 -0.1234
12626TIP3    H159369   0.475   3.045  12.853 -1.5759  0.2440 -0.9372
12626TIP3    H259370   0.375   2.959  12.928  0.1113 -0.0720  1.0500
12627TIP3   OH259371   6.227   3.894  11.033 -1.1448 -0.1455 -0.3316
12627TIP3    H159372   6.185   3.831  10.974  1.0246 -2.2215  0.1665
12627TIP3    H259373   6.225   3.977  10.986 -2.5232 -0.9786 -1.8225
12628TIP3   OH259374   1.553   2.810  14.251  0.0686  0.0874  0.0361
12628TIP3    H159375   1.641   2.774  14.238  0.2288  0.5749 -0.2693
12628TIP3    H259376   1.511   2.801  14.166 -0.2437 -0.3115  0.2298
12629TIP3   OH259377   0.668   0.611   2.580 -0.2076  0.3254  0.3927
12629TIP3    H159378   0.640   0.521   2.595 -0.8458  0.5172  0.3980
12629TIP3    H259379   0.724   0.606   2.502 -0.0333 -0.1079  0.5409
12630TIP3   OH259380   0.153   5.021   0.331  0.1268  0.3362 -0.1334
12630TIP3    H159381   0.179   4.963   0.403  0.2963  1.8532  1.0769
12630TIP3    H259382   0.060   5.000   0.316 -0.3851  1.1276  1.6834
12631TIP3   OH259383   5.686   0.992   5.722 -0.1407 -0.0671  0.2736
12631TIP3    H159384   5.649   1.069   5.680  0.1041  0.6448  1.3337
12631TIP3    H259385   5.612   0.948   5.763 -0.1381  0.0952  0.4475
12632TIP3   OH259386   3.763   0.859  16.812  0.2616  0.4316  0.2863
12632TIP3    H159387   3.668   0.873  16.811  0.2899  0.7607 -1.5392
12632TIP3    H259388   3.801   0.947  16.805  0.6442  0.1969 -0.8410
12633TIP3   OH259389   1.814   2.127   3.726  0.0160 -0.0024 -0.1631
12633TIP3    H159390   1.855   2.047   3.696  0.1681  0.8245 -2.3809
12633TIP3    H259391   1.886   2.189   3.737 -0.3579  0.8451 -2.0486
12634TIP3   OH259392   3.975   6.111   2.321 -0.3851 -0.5095 -0.8482
12634TIP3    H159393   3.957   6.202   2.298  2.6097 -0.0473 -1.7377
12634TIP3    H259394   3.998   6.069   2.238  0.8717 -1.3763 -0.0864
12635TIP3   OH259395   4.694   4.201   1.018 -0.0669  0.0902  0.1822
12635TIP3    H159396   4.628   4.132   1.025  0.7227 -0.7171 -0.0717
12635TIP3    H259397   4.646   4.278   0.987 -0.6901 -0.8116 -1.1816
12636TIP3   OH259398   3.644   6.095   0.367  0.5339  0.1560 -0.0704
12636TIP3    H159399   3.584   6.151   0.318  0.1469  0.4164  0.6995
12636TIP3    H259400   3.607   6.007   0.359 -0.1110  0.3549  0.6321
12637TIP3   OH259401   6.333   0.981  16.873  0.5146  0.3973 -0.2362
12637TIP3    H159402   6.279   1.026  16.807 -0.4484 -0.9060 -0.3692
12637TIP3    H259403   6.307   1.023  16.956  0.0961  0.5295 -0.4271
12638TIP3   OH259404   2.179   6.055  11.548 -0.0760  0.3953  0.0328
12638TIP3    H159405   2.233   6.010  11.483  0.7608 -0.0625  1.0135
12638TIP3    H259406   2.233   6.126  11.580  0.2292 -0.4448  1.4764
12639TIP3   OH259407   0.928   0.490   0.867  0.1428 -0.2911 -0.1981
12639TIP3    H159408   0.910   0.397   0.880  2.5269 -1.0622 -1.8479
12639TIP3    H259409   0.881   0.513   0.787  0.3010 -0.3356 -0.3051
12640TIP3   OH259410   2.945   3.362  13.162  0.3102  0.3385  0.1010
12640TIP3    H159411   2.866   3.328  13.122  1.2229 -1.1031 -0.5730
12640TIP3    H259412   3.017   3.318  13.116  1.6936  3.7303 -1.3450
12641TIP3   OH259413   2.485   0.200   5.872  0.3424 -0.4547 -0.1570
12641TIP3    H159414   2.572   0.238   5.861  0.0490 -0.0043 -0.9544
12641TIP3    H259415   2.492   0.147   5.952  0.9874  0.5815  0.4855
12642TIP3   OH259416   1.552   1.615   4.055 -0.0519  0.0470 -0.6558
12642TIP3    H159417   1.639   1.630   4.092  0.5776 -1.3011 -1.5173
12642TIP3    H259418   1.539   1.688   3.994  0.8854 -0.2471 -1.2251
12643TIP3   OH259419   0.067   5.488   4.867 -0.9313 -0.2980 -0.0988
12643TIP3    H159420  -0.009   5.481   4.925 -2.0708  2.5206 -1.0851
12643TIP3    H259421   0.031   5.504   4.781  0.8021 -1.1538 -1.0412
12644TIP3   OH259422   5.407   6.755  16.355 -0.1067 -0.3447 -0.0510
12644TIP3    H159423   5.360   6.784  16.277  0.9009 -2.3762 -1.5094
12644TIP3    H259424   5.358   6.677  16.384  0.6371 -0.7423  0.1678
12645TIP3   OH259425   4.690   3.962  16.642 -0.3216 -0.3334 -0.0626
12645TIP3    H159426   4.665   4.050  16.615  0.9199 -0.1051 -0.5540
12645TIP3    H259427   4.615   3.907  16.620 -1.2973  0.6561  0.6706
12646TIP3   OH259428   3.169   0.936  16.124  0.1225  0.6699 -0.0261
12646TIP3    H159429   3.222   0.944  16.203 -1.2963  1.4554  0.8658
12646TIP3    H259430   3.207   0.861  16.077  1.0343  0.2565  1.3348
12647TIP3   OH259431   0.730   3.933   2.694 -0.5976 -0.5617 -0.1926
12647TIP3    H159432   0.754   4.000   2.758  0.1653  1.4628 -2.4206
12647TIP3    H259433   0.728   3.851   2.743 -0.1746  0.8870  2.3867
12648TIP3   OH259434   1.300   0.441   0.558  0.1996 -0.7279 -0.3792
12648TIP3    H159435   1.253   0.380   0.502 -0.4828 -0.7730  0.2299
12648TIP3    H259436   1.309   0.394   0.641  3.2213 -1.6013 -1.0665
12649TIP3   OH259437   2.775   2.220  15.976  0.0275  0.4019  0.4703
12649TIP3    H159438   2.798   2.133  15.942  0.3021 -0.4903  2.7882
12649TIP3    H259439   2.722   2.259  15.906  1.1792 -0.9984 -1.2678
12650TIP3   OH259440   1.311   5.388  12.527 -0.5444 -0.5383 -0.3255
12650TIP3    H159441   1.239   5.388  12.590  0.1502  0.5637  0.5167
12650TIP3    H259442   1.312   5.477  12.492  0.5659 -0.4623 -0.1307
12651TIP3   OH259443   0.304   1.715   2.752  0.2046 -0.3057  0.2992
12651TIP3    H159444   0.293   1.651   2.822 -0.7497  0.7880  1.1934
12651TIP3    H259445   0.297   1.800   2.796 -1.6710  0.4219 -1.2520
12652TIP3   OH259446   3.715   1.276   3.772 -0.1235  0.4865  0.9145
12652TIP3    H159447   3.652   1.346   3.788 -0.6636  0.6105 -1.3630
12652TIP3    H259448   3.671   1.196   3.801 -1.9202  0.4173 -1.6168
12653TIP3   OH259449   0.284   2.065  16.949 -0.1419 -0.0980 -0.4124
12653TIP3    H159450   0.212   2.065  17.012 -1.1702  1.0340 -1.5154
12653TIP3    H259451   0.343   2.134  16.980  0.5703 -1.1287  0.5768
12654TIP3   OH259452   3.824   6.416   3.114  0.2436 -0.4216 -0.2117
12654TIP3    H159453   3.882   6.425   3.038  1.2413  0.3931  0.6204
12654TIP3    H259454   3.882   6.428   3.189 -0.7849 -0.9387  0.6754
12655TIP3   OH259455   4.689   3.767   0.836  0.0496 -0.0806 -0.2101
12655TIP3    H159456   4.617   3.713   0.867 -0.0354  0.8905  1.4169
12655TIP3    H259457   4.760   3.705   0.818 -0.7638 -0.9216 -0.5520
12656TIP3   OH259458   2.005   2.768   4.796  0.5671 -0.7444  0.6788
12656TIP3    H159459   2.048   2.702   4.742 -0.6187 -0.3551 -0.8043
12656TIP3    H259460   1.923   2.787   4.750  2.0673  3.8970 -0.6282
12657TIP3   OH259461   2.298   3.016   4.750  0.9272  0.3552  0.3279
12657TIP3    H159462   2.364   2.957   4.784  1.3119  0.3630 -0.3822
12657TIP3    H259463   2.223   3.006   4.809  1.2547 -0.2882  0.6356
12658TIP3   OH259464   3.224   6.195  12.021 -0.1329 -0.3043 -0.1025
12658TIP3    H159465   3.283   6.139  11.971  1.4434  0.3142  0.9472
12658TIP3    H259466   3.274   6.217  12.100 -1.8877  0.0663  0.9735
12659TIP3   OH259467   0.759   3.747  15.263  0.0087  0.0067  0.2482
12659TIP3    H159468   0.794   3.777  15.347 -1.2109  0.0781  0.7471
12659TIP3    H259469   0.665   3.760  15.270  0.0857  3.0008 -2.3111
12660TIP3   OH259470   6.677   3.985  14.186  0.2816 -0.4253  0.4613
12660TIP3    H159471   6.710   3.923  14.121 -0.3067 -3.3827  2.7803
12660TIP3    H259472   6.748   3.992  14.250 -0.3234 -0.1229  1.1162
12661TIP3   OH259473   1.422   2.985  13.701 -0.4653  0.1920 -0.0811
12661TIP3    H159474   1.353   2.955  13.642 -1.1530 -1.0618  1.2877
12661TIP3    H259475   1.484   2.912  13.706 -1.6529 -0.7724  2.5210
12662TIP3   OH259476   6.136   6.634   0.224  0.0165  0.0698 -0.1640
12662TIP3    H159477   6.134   6.544   0.192 -0.5039 -0.0675  0.2555
12662TIP3    H259478   6.132   6.627   0.319  0.5083  0.5193 -0.1033
12663TIP3   OH259479   0.912   5.229   1.347  0.2526  0.1010 -0.1426
12663TIP3    H159480   0.907   5.322   1.367  1.3943  0.2220 -0.3046
12663TIP3    H259481   0.823   5.196   1.356  0.1674  0.7785  2.0007
12664TIP3   OH259482   2.620   2.427  13.519  0.2854  0.4471 -0.3479
12664TIP3    H159483   2.589   2.337  13.532  0.6057  0.2870 -0.6878
12664TIP3    H259484   2.578   2.455  13.438  1.1466  0.1715 -0.8980
12665TIP3   OH259485   0.354   1.959  12.587  0.2069 -0.2861  0.2397
12665TIP3    H159486   0.324   1.937  12.498  0.3253  0.8150 -0.0899
12665TIP3    H259487   0.316   2.045  12.604 -2.6712 -1.8217  2.6197
12666TIP3   OH259488   3.654   4.681  11.733  0.7063  0.8554 -0.2532
12666TIP3    H159489   3.590   4.650  11.796  2.4119 -0.4172  0.9286
12666TIP3    H259490   3.653   4.615  11.664 -0.3066  1.6388 -1.0314
12667TIP3   OH259491   3.353   2.006  11.878 -0.1010 -0.0784 -0.4993
12667TIP3    H159492   3.417   2.069  11.912  1.5903 -0.8874 -1.9763
12667TIP3    H259493   3.305   2.055  11.811 -0.5548  0.3404  0.1264
12668TIP3   OH259494   4.816   6.343   3.539 -0.2077 -0.1761  0.4662
12668TIP3    H159495   4.850   6.430   3.558 -3.4789  0.9705  1.7375
12668TIP3    H259496   4.762   6.354   3.461  2.6953 -2.1332 -2.0766
12669TIP3   OH259497   5.097   0.863   0.083  0.3109  0.1362  0.4083
12669TIP3    H159498   5.046   0.785   0.106  0.3915  0.1132  0.5059
12669TIP3    H259499   5.031   0.932   0.072  0.1187 -0.1900 -0.7397
12670TIP3   OH259500   0.104   1.987  17.140  0.0637  0.6693  0.0132
12670TIP3    H159501   0.153   1.949  17.212  1.3478  1.5105 -0.3789
12670TIP3    H259502   0.027   1.932  17.131  1.5950 -1.5321 -0.2433
12671TIP3   OH259503   4.913   5.875   4.723 -0.0096 -0.0431  0.0641
12671TIP3    H159504   4.817   5.881   4.721 -0.0122  0.0363  0.4174
12671TIP3    H259505   4.931   5.785   4.695 -0.3283 -1.0484  2.8054
12672TIP3   OH259506   5.914   6.645  13.505 -0.4111  0.2678  0.0577
12672TIP3    H159507   5.838   6.608  13.460 -0.8931 -2.5644  2.8498
12672TIP3    H259508   5.877   6.690  13.581  0.5757  1.7128 -0.2730
12673TIP3   OH259509   5.604   6.404   6.397  0.3301 -0.2542  0.9014
12673TIP3    H159510   5.657   6.476   6.432  1.4515 -0.7319  0.2666
12673TIP3    H259511   5.605   6.338   6.467 -1.3162  0.6048  1.7803
12674TIP3   OH259512   0.015   4.147  16.446  0.1320 -0.1925 -0.1873
12674TIP3    H159513  -0.059   4.086  16.442  1.1682 -1.4789 -0.1153
12674TIP3    H259514  -0.004   4.203  16.521 -0.0303 -1.5073  0.7851
12675TIP3   OH259515   4.716   4.815   0.337  0.0439 -0.4169 -0.2924
12675TIP3    H159516   4.756   4.759   0.405 -0.2973  0.1077  0.3556
12675TIP3    H259517   4.789   4.869   0.305  0.6633 -2.0780 -1.8382
12676TIP3   OH259518   6.151   6.292   1.577  0.2632 -0.3358  0.5982
12676TIP3    H159519   6.061   6.294   1.611  0.3347 -1.2878  0.8797
12676TIP3    H259520   6.141   6.266   1.485 -0.0061  3.1498 -0.5186
12677TIP3   OH259521   6.487   2.642  11.552 -0.2354 -0.2830 -0.4073
12677TIP3    H159522   6.445   2.596  11.624 -0.5622  0.7467  0.0750
12677TIP3    H259523   6.415   2.688  11.508  0.1379  0.0598 -0.6607
12678TIP3   OH259524   2.893   0.981  14.669  0.0689  0.0030 -0.6022
12678TIP3    H159525   2.908   1.060  14.617  0.7689 -0.9769 -1.9640
12678TIP3    H259526   2.932   1.001  14.754  0.4238  1.0396 -0.9898
12679TIP3   OH259527   0.151   2.758  10.345 -0.2059  0.2702 -0.6981
12679TIP3    H159528   0.112   2.845  10.337 -1.6656 -0.2654  0.2783
12679TIP3    H259529   0.113   2.708  10.273 -2.3830 -0.5890  0.9378
12680TIP3   OH259530   0.637   4.763  16.653 -0.4276 -0.2480 -0.0343
12680TIP3    H159531   0.646   4.855  16.628 -0.0797 -0.5129 -0.9196
12680TIP3    H259532   0.663   4.761  16.745  1.0192  0.3201 -0.4047
12681TIP3   OH259533   1.230   5.751  10.676 -0.0834 -0.4410  0.3079
12681TIP3    H159534   1.161   5.759  10.742  1.3319 -0.5185  1.8717
12681TIP3    H259535   1.236   5.658  10.658 -0.0985 -0.4808  0.5054
12682TIP3   OH259536   3.728   3.418  15.066  0.2076  0.2122  0.4907
12682TIP3    H159537   3.776   3.422  15.150 -0.1726 -0.4948  0.7494
12682TIP3    H259538   3.797   3.413  15.000  0.5286 -1.6774  0.9118
12683TIP3   OH259539   0.997   1.838  12.634 -0.5798  0.4720 -0.4659
12683TIP3    H159540   0.977   1.914  12.688  2.6036  1.2370 -0.1547
12683TIP3    H259541   0.926   1.776  12.652 -2.5412  2.7927  0.3147
12684TIP3   OH259542   0.126   5.669   5.379 -0.4984  0.4329  0.5476
12684TIP3    H159543   0.155   5.578   5.390 -0.8039  0.4511  1.5958
12684TIP3    H259544   0.160   5.715   5.456 -0.9880  1.0445  0.4117
12685TIP3   OH259545   2.427   5.885  10.820 -0.3321  0.1018 -0.2146
12685TIP3    H159546   2.332   5.883  10.831 -0.4829 -2.0232 -1.2851
12685TIP3    H259547   2.442   5.847  10.733  1.4868  0.7739 -0.2414
12686TIP3   OH259548   1.396   5.647  12.819 -0.2025  0.1237  0.1746
12686TIP3    H159549   1.303   5.628  12.825 -1.0334  3.3945 -0.6355
12686TIP3    H259550   1.405   5.736  12.853  2.4141  0.3946 -0.9965
12687TIP3   OH259551   1.093   5.648  15.326 -0.0102 -1.1596 -0.3001
12687TIP3    H159552   1.076   5.654  15.420 -1.6757  2.1279 -0.6381
12687TIP3    H259553   1.009   5.673  15.285  1.2803 -0.2134 -2.5819
12688TIP3   OH259554   4.894   6.717  12.094 -0.1396  0.2058 -0.2231
12688TIP3    H159555   4.807   6.750  12.072  0.2045  0.7888 -0.7396
12688TIP3    H259556   4.953   6.761  12.032  0.4458 -0.6707 -0.3077
12689TIP3   OH259557   6.229   3.620  14.828  0.1955  0.1263  0.7336
12689TIP3    H159558   6.210   3.643  14.737 -1.7699 -0.8441  0.8211
12689TIP3    H259559   6.267   3.698  14.866  0.0132  0.9180 -0.6505
12690TIP3   OH259560   6.492   5.020   0.729  0.4529 -0.4512  0.3449
12690TIP3    H159561   6.425   5.015   0.798  0.1522  3.9879  0.6730
12690TIP3    H259562   6.446   4.995   0.649 -0.7797 -0.3754  1.0069
12691TIP3   OH259563   2.928   1.856   2.243  0.2527  0.0668 -0.4454
12691TIP3    H159564   3.020   1.840   2.223  1.0149  0.4319  2.3279
12691TIP3    H259565   2.896   1.773   2.277 -0.7064 -0.2812 -2.1263
12692TIP3   OH259566   0.402   0.981   5.383 -0.0659 -0.1542 -0.2917
12692TIP3    H159567   0.466   1.013   5.319 -0.2701  2.1731  0.5478
12692TIP3    H259568   0.317   0.999   5.343 -0.2051 -0.7163 -0.2602
12693TIP3   OH259569   5.863   6.065  12.280 -0.2566  0.1674  0.4073
12693TIP3    H159570   5.786   6.100  12.325 -0.4655  0.9279 -0.5219
12693TIP3    H259571   5.922   6.140  12.271  0.3813 -0.2931  0.6510
12694TIP3   OH259572   3.946   5.468  11.808 -0.6726 -0.0306  0.2034
12694TIP3    H159573   3.945   5.532  11.879 -2.3544  2.2704 -1.7250
12694TIP3    H259574   4.013   5.500  11.748 -0.0787 -1.2916  0.1688
12695TIP3   OH259575   0.360   0.847   0.915 -0.0452 -0.1567 -0.1174
12695TIP3    H159576   0.403   0.762   0.917  0.6702  0.1750 -0.6703
12695TIP3    H259577   0.267   0.828   0.911  0.1081 -0.9096 -0.1289
12696TIP3   OH259578   0.248   2.106  11.664 -0.7184 -0.1756  0.2938
12696TIP3    H159579   0.324   2.132  11.717 -0.2202 -0.5745 -0.2023
12696TIP3    H259580   0.278   2.117  11.573 -1.4023  0.0619  0.0933
12697TIP3   OH259581   6.668   6.287   5.928  0.3172 -0.1922  0.2397
12697TIP3    H159582   6.604   6.217   5.915 -0.0379  0.0032  0.8924
12697TIP3    H259583   6.719   6.259   6.005  0.7536 -0.1558 -0.0345
12698TIP3   OH259584   0.221   3.224   4.532 -0.1849 -0.0741 -0.3215
12698TIP3    H159585   0.253   3.264   4.450 -0.0255  1.9626  0.6649
12698TIP3    H259586   0.197   3.135   4.507  0.7759  0.1714 -2.3780
12699TIP3   OH259587   3.855   6.406   1.805  0.2298 -0.2560 -0.0918
12699TIP3    H159588   3.805   6.438   1.880 -1.6155 -2.0551 -0.4621
12699TIP3    H259589   3.794   6.412   1.731  1.3894 -0.2678 -1.0849
12700TIP3   OH259590   4.538   3.632   4.971 -0.3764  0.2329  0.1155
12700TIP3    H159591   4.497   3.717   4.986 -0.4054 -0.0870  2.0683
12700TIP3    H259592   4.630   3.645   4.992 -0.4982 -0.3437  1.0994
12701TIP3   OH259593   0.951   3.585  11.064 -0.4438  0.1115  0.0033
12701TIP3    H159594   0.939   3.630  10.981  0.8834  1.0820  0.3119
12701TIP3    H259595   1.033   3.538  11.055 -0.8301 -0.6591  0.3955
12702TIP3   OH259596   5.553   5.781   4.740  0.3661 -0.2346 -0.1732
12702TIP3    H159597   5.561   5.864   4.692 -0.9406  0.0677  0.1028
12702TIP3    H259598   5.630   5.779   4.796  0.0339  1.1780  0.3771
12703TIP3   OH259599   5.393   6.510  10.806 -0.0320  0.0767 -0.1252
12703TIP3    H159600   5.303   6.541  10.795  0.6523  1.3651 -2.9571
12703TIP3    H259601   5.409   6.454  10.730  2.3118  1.9780 -1.1508
12704TIP3   OH259602   0.760   5.726  16.679 -0.2558 -0.2873  0.1257
12704TIP3    H159603   0.851   5.752  16.669 -0.5698  0.1496 -2.1073
12704TIP3    H259604   0.743   5.668  16.605 -1.9668  0.2335  0.0663
12705TIP3   OH259605   2.569   1.951  15.903 -0.1976  0.1031  0.5854
12705TIP3    H159606   2.630   1.986  15.838 -0.7565 -1.2591 -0.7392
12705TIP3    H259607   2.625   1.901  15.962  0.1361 -0.0232  0.1747
12706TIP3   OH259608   5.429   2.938  13.839 -0.1763 -0.2828  0.0774
12706TIP3    H159609   5.503   2.961  13.895  0.7362  0.6182 -1.4386
12706TIP3    H259610   5.424   2.842  13.846  1.0790 -0.3526  0.2626
12707TIP3   OH259611   1.570   0.973  12.579 -0.3709  0.0922  0.2151
12707TIP3    H159612   1.495   0.965  12.637 -0.2924  1.5107  0.5401
12707TIP3    H259613   1.540   1.028  12.507 -0.3097 -1.2187 -0.8650
12708TIP3   OH259614   5.319   6.642  14.360  0.0491 -0.7589  0.3580
12708TIP3    H159615   5.358   6.585  14.293 -2.1344 -1.9041 -0.0076
12708TIP3    H259616   5.230   6.657  14.331 -0.8294 -0.8756  2.7688
12709TIP3   OH259617   1.138   3.182  17.068  0.3665  0.1534 -0.1195
12709TIP3    H159618   1.088   3.237  17.129 -1.0288 -2.1893  1.0264
12709TIP3    H259619   1.230   3.198  17.091 -0.0236  1.4865  0.6143
12710TIP3   OH259620   2.456   5.760  11.604 -0.2575  0.7326  0.0158
12710TIP3    H159621   2.488   5.804  11.683  1.7229 -2.4264  1.1573
12710TIP3    H259622   2.524   5.773  11.539 -0.0614  0.1076  0.0889
12711TIP3   OH259623   5.900   3.144   2.077 -0.6108 -0.2381 -0.3652
12711TIP3    H159624   5.948   3.220   2.108  0.2859 -0.2351 -1.6836
12711TIP3    H259625   5.811   3.177   2.060 -0.3524  0.4029 -0.4985
12712TIP3   OH259626   5.735   2.127  17.058 -0.1757 -0.1815  0.2425
12712TIP3    H159627   5.712   2.110  17.149  2.1087  1.0094  1.1429
12712TIP3    H259628   5.668   2.186  17.027 -1.4742 -1.2754  0.8476
12713TIP3   OH259629   1.097   1.846   1.534  0.5626  0.5698  0.1256
12713TIP3    H159630   1.118   1.879   1.622  3.0382  0.2519 -0.2801
12713TIP3    H259631   1.079   1.925   1.483 -0.7669  0.7646  0.8313
12714TIP3   OH259632   4.257   1.298  11.868 -0.5188 -0.5562 -0.3599
12714TIP3    H159633   4.208   1.361  11.816 -1.6319 -1.7789 -0.8550
12714TIP3    H259634   4.323   1.263  11.808  1.1383  1.1950  0.3470
12715TIP3   OH259635   3.710   2.535   3.756  0.4130 -0.1306 -0.2385
12715TIP3    H159636   3.623   2.577   3.757  0.6531  0.3783 -0.2500
12715TIP3    H259637   3.768   2.603   3.722  0.7412 -0.6237 -0.6708
12716TIP3   OH259638   6.041   2.634  13.957  0.0874  0.1130  0.3883
12716TIP3    H159639   6.122   2.652  13.910  0.2261  1.6258  1.1521
12716TIP3    H259640   5.987   2.711  13.942 -2.1423 -1.7336 -1.8871
12717TIP3   OH259641   1.650   2.789   6.561 -0.2360 -0.5365 -0.1283
12717TIP3    H159642   1.605   2.810   6.479  0.2514  0.7275 -0.0966
12717TIP3    H259643   1.579   2.771   6.623 -0.8839  2.8776  0.3219
12718TIP3   OH259644   2.054   5.783   2.068  0.3718  0.0030 -0.3610
12718TIP3    H159645   2.110   5.752   1.997 -0.1892 -0.0758 -0.7767
12718TIP3    H259646   2.105   5.853   2.110  1.1078 -0.5949 -0.2231
12719TIP3   OH259647   1.532   5.581  12.286  0.1252 -0.0550  0.2316
12719TIP3    H159648   1.466   5.584  12.355 -3.3065 -1.1763 -2.6959
12719TIP3    H259649   1.574   5.496  12.296  0.2994  0.1515  1.3919
12720TIP3   OH259650   2.897   0.039  13.750 -0.2054  0.1634 -0.4699
12720TIP3    H159651   2.943  -0.027  13.801  1.5605 -0.1363 -2.3286
12720TIP3    H259652   2.892   0.115  13.809  1.7287 -0.1646  0.2036
12721TIP3   OH259653   6.345   4.788  12.798 -0.3136  0.0056  0.2539
12721TIP3    H159654   6.431   4.814  12.765 -0.8256  1.3368 -0.0742
12721TIP3    H259655   6.350   4.692  12.802  0.6477 -0.0572 -1.2699
12722TIP3   OH259656   3.441   1.507  13.664 -0.4303 -0.2627  0.3743
12722TIP3    H159657   3.356   1.551  13.660 -1.0048 -1.2863  0.7703
12722TIP3    H259658   3.434   1.436  13.600 -0.8458 -1.9266  2.1665
12723TIP3   OH259659   3.312   6.124   3.082 -0.6773  0.5793 -0.8821
12723TIP3    H159660   3.369   6.047   3.087 -0.3686  0.8805  1.3452
12723TIP3    H259661   3.372   6.197   3.068 -0.0304  1.1697  3.3954
12724TIP3   OH259662   6.805   4.068  12.329  0.1794 -0.2005 -0.4749
12724TIP3    H159663   6.815   4.161  12.309  0.0852 -0.4117 -1.5462
12724TIP3    H259664   6.847   4.057  12.415  1.0570  0.6409 -0.7789
12725TIP3   OH259665   5.085   5.342  15.280 -0.1424  0.3263 -0.6144
12725TIP3    H159666   5.046   5.427  15.261  0.9299  1.4805  1.8608
12725TIP3    H259667   5.033   5.308  15.353  1.3400  0.3688  0.5107
12726TIP3   OH259668   6.740   0.515  13.429 -0.5793 -0.0951 -0.0415
12726TIP3    H159669   6.773   0.465  13.504 -2.0512 -1.7169 -0.4109
12726TIP3    H259670   6.817   0.530  13.374  0.4762  0.8977  1.6310
12727TIP3   OH259671   0.055   4.062   0.195 -0.3101  0.6174  0.1410
12727TIP3    H159672   0.112   4.075   0.270  0.4406  1.9001 -0.6104
12727TIP3    H259673   0.097   3.992   0.145 -1.2613 -0.8244  1.3085
12728TIP3   OH259674   2.570   1.788  14.892  0.2325  0.6929  0.2537
12728TIP3    H159675   2.558   1.883  14.893 -0.8375  0.5660  0.0095
12728TIP3    H259676   2.491   1.753  14.851  1.4160 -0.2060 -1.4007
12729TIP3   OH259677   6.712   2.357   1.029 -0.0374  0.1632 -0.1823
12729TIP3    H159678   6.773   2.371   1.101  0.1370  2.9945 -0.7703
12729TIP3    H259679   6.633   2.404   1.055  0.0503  1.3109 -1.8051
12730TIP3   OH259680   5.193   3.769   6.371 -0.1049  0.2227  0.5377
12730TIP3    H159681   5.163   3.857   6.347 -1.0222 -0.0664  0.6037
12730TIP3    H259682   5.273   3.757   6.319  0.8016  1.6162  1.5431
12731TIP3   OH259683   0.992   1.464   4.731 -0.0621 -0.6678  0.0021
12731TIP3    H159684   0.917   1.404   4.728 -0.4220 -0.3854  1.8747
12731TIP3    H259685   0.957   1.543   4.772  1.0030 -0.1020 -0.1465
12732TIP3   OH259686   3.037   2.864   3.103 -0.3886 -0.4113 -0.0367
12732TIP3    H159687   3.123   2.902   3.087  0.2543 -0.3690  2.8707
12732TIP3    H259688   3.056   2.780   3.146 -1.6959  0.3922  2.3046
12733TIP3   OH259689   4.060   3.634  13.617  0.2336  0.3444 -0.1845
12733TIP3    H159690   4.093   3.558  13.568  0.3762  0.8005 -0.8045
12733TIP3    H259691   4.111   3.634  13.698  0.5956  0.0819 -0.4110
12734TIP3   OH259692   4.585   2.197  14.101  0.3090  0.3402 -0.3240
12734TIP3    H159693   4.555   2.288  14.096 -0.2975  0.0990 -4.3719
12734TIP3    H259694   4.506   2.145  14.083  0.2176 -1.3016  3.6267
12735TIP3   OH259695   0.367   1.467  13.980 -0.4415 -0.4752  0.4317
12735TIP3    H159696   0.354   1.418  13.898  0.6835 -1.3171  0.7428
12735TIP3    H259697   0.441   1.425  14.022 -1.0467 -0.0959  1.9409
12736TIP3   OH259698   6.430   2.785   4.435 -0.5009  0.3770 -0.0769
12736TIP3    H159699   6.367   2.714   4.425 -0.9550  0.8351 -0.5480
12736TIP3    H259700   6.502   2.762   4.377 -1.9413  1.7091 -2.5647
12737TIP3   OH259701   4.791   4.044   5.606 -0.2078 -0.1679  0.2214
12737TIP3    H159702   4.802   4.027   5.513 -1.4291  2.3460 -0.4566
12737TIP3    H259703   4.714   4.099   5.612  2.0095  3.0784  2.2916
12738TIP3   OH259704   4.514   1.365  12.659 -0.6514 -0.0991 -0.1905
12738TIP3    H159705   4.525   1.412  12.577 -0.6298 -1.7405 -1.1715
12738TIP3    H259706   4.518   1.273  12.635 -1.1579 -0.6328  1.5908
12739TIP3   OH259707   3.317   0.982   6.433 -0.0601  0.6926  0.6799
12739TIP3    H159708   3.300   1.006   6.524  0.2774  3.1220  0.1773
12739TIP3    H259709   3.295   1.061   6.383  2.1353  0.2811 -1.0968
12740TIP3   OH259710   4.921   3.527  13.884  0.1809  0.3832  0.5461
12740TIP3    H159711   5.001   3.484  13.855 -1.0741 -2.1521  0.5412
12740TIP3    H259712   4.892   3.578  13.808  1.6691  1.1949  0.5038
12741TIP3   OH259713   1.920   2.214   2.063  0.2924  0.4224  0.4184
12741TIP3    H159714   1.994   2.257   2.106 -0.3238  2.8275 -0.7475
12741TIP3    H259715   1.852   2.282   2.057 -0.5979 -0.5417 -1.9500
12742TIP3   OH259716   2.470   4.598  15.377  0.5065 -0.1051 -0.0017
12742TIP3    H159717   2.436   4.576  15.464  1.5616 -1.2993  0.1328
12742TIP3    H259718   2.547   4.653  15.394 -0.9089  2.1190 -0.2933
12743TIP3   OH259719   3.894   1.029  14.373  0.1954  0.3903  0.2126
12743TIP3    H159720   3.981   1.016  14.411 -0.2379 -0.4115  0.9755
12743TIP3    H259721   3.883   1.124  14.371  0.6711  0.4767  1.1092
12744TIP3   OH259722   1.523   3.888   5.845 -0.4862 -0.0529 -0.4247
12744TIP3    H159723   1.548   3.938   5.767 -0.8067 -0.4076 -0.7557
12744TIP3    H259724   1.429   3.902   5.852 -0.9660 -2.1758 -1.6553
12745TIP3   OH259725   4.989   1.676  12.908  0.2583 -0.0954 -0.0252
12745TIP3    H159726   5.060   1.614  12.890 -0.7050 -0.8029 -1.6188
12745TIP3    H259727   4.915   1.643  12.857 -0.6951  1.6194  0.1719
12746TIP3   OH259728   3.777   4.362   4.827  0.2699  0.0429  0.0236
12746TIP3    H159729   3.703   4.356   4.888 -0.5817 -1.7362 -1.0913
12746TIP3    H259730   3.844   4.410   4.875 -0.9065  0.0324  1.7792
12747TIP3   OH259731   0.320   5.430  13.722 -0.4184  0.8516 -0.5635
12747TIP3    H159732   0.412   5.444  13.747 -0.6010  0.2484  0.4946
12747TIP3    H259733   0.324   5.407  13.629  0.5354  0.5072 -0.4491
12748TIP3   OH259734   1.153   6.482  12.724 -0.2832 -0.7874 -0.2183
12748TIP3    H159735   1.175   6.410  12.666  0.5140 -1.0082  0.3474
12748TIP3    H259736   1.128   6.553  12.665  2.1782 -0.4308 -0.9693
12749TIP3   OH259737   0.790   3.495  11.718  0.4562  0.4222 -0.0629
12749TIP3    H159738   0.789   3.518  11.625 -0.1920  0.3714 -0.0688
12749TIP3    H259739   0.849   3.419  11.723  0.2619  0.2449 -0.4740
12750TIP3   OH259740   1.536   1.064  10.551  0.0390  0.2337 -0.4727
12750TIP3    H159741   1.615   1.017  10.578 -1.0398 -2.1109 -1.1187
12750TIP3    H259742   1.500   1.098  10.633 -0.0501 -1.6790  0.3580
12751TIP3   OH259743   2.327   0.580  14.931  0.4681  0.7919 -0.0760
12751TIP3    H159744   2.293   0.534  14.855 -1.8425  0.3268  1.1539
12751TIP3    H259745   2.271   0.657  14.940  2.6213  2.5357 -0.5521
12752TIP3   OH259746   4.524   5.142   0.301  0.2404 -0.4074 -0.2821
12752TIP3    H159747   4.549   5.117   0.390 -1.7330 -0.8960  0.1842
12752TIP3    H259748   4.444   5.092   0.283  0.5512 -0.2731 -2.3132
12753TIP3   OH259749   0.073   0.658  14.586  0.4222  0.3540  0.1649
12753TIP3    H159750   0.030   0.581  14.548  1.5351  0.6215 -1.7910
12753TIP3    H259751   0.124   0.624  14.659  0.9062 -0.7773 -0.6830
12754TIP3   OH259752   6.025   2.267  12.694 -0.4926 -0.0103  0.3984
12754TIP3    H159753   6.115   2.236  12.688 -1.0443 -1.5385 -0.6199
12754TIP3    H259754   5.972   2.191  12.669 -1.9810  1.3274 -0.6887
12755TIP3   OH259755   4.923   2.093   4.426 -0.6637  0.3289 -0.0209
12755TIP3    H159756   4.989   2.161   4.438  0.5741 -0.8342  0.0597
12755TIP3    H259757   4.840   2.139   4.429  0.1488  1.9049 -0.4861
12756TIP3   OH259758   5.035   2.143  14.257  0.2485 -0.4361 -0.1507
12756TIP3    H159759   5.075   2.153  14.343 -0.8643 -1.5994  0.5574
12756TIP3    H259760   5.079   2.067  14.218 -0.4223 -0.9947  0.1466
12757TIP3   OH259761   0.648   2.809   3.192  0.3126 -0.0061 -0.4083
12757TIP3    H159762   0.647   2.859   3.273  1.5396 -1.3790  0.5008
12757TIP3    H259763   0.578   2.848   3.139  0.6424  2.0648  0.5744
12758TIP3   OH259764   1.538   6.816  13.089  0.1529  0.0877 -0.2749
12758TIP3    H159765   1.526   6.743  13.150  0.9197 -1.0603 -1.4501
12758TIP3    H259766   1.450   6.839  13.060 -0.0094 -1.5159 -1.1667
12759TIP3   OH259767   0.119   3.790  12.657  0.3840 -0.0075 -0.0660
12759TIP3    H159768   0.037   3.742  12.669  0.4980  0.2042  1.8160
12759TIP3    H259769   0.099   3.854  12.589 -1.0942  0.1879  0.5095
12760TIP3   OH259770   0.451   6.820   2.302  0.2263  0.1618  0.1909
12760TIP3    H159771   0.484   6.841   2.389  0.7769  0.7304 -0.1450
12760TIP3    H259772   0.530   6.809   2.249 -0.0214 -2.2254  0.2011
12761TIP3   OH259773   4.563   6.395  13.434 -0.5157 -0.5638  0.1619
12761TIP3    H159774   4.551   6.313  13.386 -1.5209 -0.6584  0.5506
12761TIP3    H259775   4.567   6.369  13.526 -1.0140 -0.1773  0.2995
12762TIP3   OH259776   5.429   6.046   4.270 -0.0791 -0.2203 -0.3895
12762TIP3    H159777   5.341   6.051   4.234 -0.4225  0.1251  0.4858
12762TIP3    H259778   5.435   5.958   4.307 -0.0081 -0.2856 -0.5532
12763TIP3   OH259779   3.670   4.563   0.683  0.1544 -0.7674 -0.1776
12763TIP3    H159780   3.679   4.580   0.777 -1.4139 -0.3018 -0.0928
12763TIP3    H259781   3.730   4.490   0.666  1.4467  0.0065  0.9118
12764TIP3   OH259782   6.393   5.087  16.901 -0.4111  0.2976  0.8448
12764TIP3    H159783   6.470   5.071  16.956  0.2465  0.9227  0.1406
12764TIP3    H259784   6.416   5.047  16.817 -0.4832  1.2203  0.3667
12765TIP3   OH259785   6.800   0.392   0.578 -0.7896 -0.4957 -0.7007
12765TIP3    H159786   6.790   0.428   0.666  1.2083 -1.4711 -0.0097
12765TIP3    H259787   6.792   0.467   0.520 -1.2958  0.3037  0.3826
12766TIP3   OH259788   5.731   5.929   0.345  0.2235  0.0326  0.5469
12766TIP3    H159789   5.816   5.885   0.357  0.3081  0.1316  0.3085
12766TIP3    H259790   5.731   5.956   0.254  0.9466  2.1378  1.1217
12767TIP3   OH259791   5.307   6.164   1.377  0.1885  0.5401 -0.4582
12767TIP3    H159792   5.289   6.204   1.291 -0.1871 -0.1675 -0.7190
12767TIP3    H259793   5.356   6.085   1.357 -1.4462 -0.5928 -0.1777
12768TIP3   OH259794   2.046   2.242   3.689 -0.7214  0.6494  0.0759
12768TIP3    H159795   2.140   2.254   3.697 -0.1286 -1.9983 -1.4590
12768TIP3    H259796   2.027   2.260   3.597 -2.1064  2.8278  0.7041
12769TIP3   OH259797   4.189   3.241  17.170 -0.3872  0.3393 -0.1485
12769TIP3    H159798   4.180   3.217  17.262 -0.7927  0.9319 -0.0245
12769TIP3    H259799   4.185   3.158  17.123 -2.9599  0.1978  0.1714
12770TIP3   OH259800   0.109   3.877  12.173  0.2127 -0.5003 -0.0286
12770TIP3    H159801   0.073   3.955  12.215  0.4544  0.2296 -1.1081
12770TIP3    H259802   0.100   3.895  12.079  2.2153 -0.8290 -0.3301
12771TIP3   OH259803   1.900   0.381   3.201  0.6236  0.0935  0.0679
12771TIP3    H159804   1.827   0.365   3.261  0.2203 -0.5254 -0.5687
12771TIP3    H259805   1.957   0.305   3.210  0.8636  0.2738  0.0910
12772TIP3   OH259806   1.786   6.625  13.323 -0.1884 -0.0498 -0.0968
12772TIP3    H159807   1.810   6.688  13.390 -0.7898  1.3369 -1.1293
12772TIP3    H259808   1.696   6.647  13.299  0.9597  1.6299 -3.5327
12773TIP3   OH259809   5.622   1.814  16.269  0.0161  0.5005 -0.7548
12773TIP3    H159810   5.639   1.726  16.301 -0.2882  0.0287 -1.8557
12773TIP3    H259811   5.625   1.869  16.347  1.1774 -0.3352 -0.1882
12774TIP3   OH259812   6.454   5.314  14.983 -0.4419 -0.2903 -0.4631
12774TIP3    H159813   6.432   5.371  15.057 -0.5931  0.3953 -1.0261
12774TIP3    H259814   6.410   5.232  15.003 -0.3873 -0.1546  0.2646
12775TIP3   OH259815   2.226   4.893  16.342 -0.6923 -0.2099  0.4996
12775TIP3    H159816   2.196   4.974  16.383 -0.4236  1.0922 -1.7045
12775TIP3    H259817   2.315   4.912  16.312 -0.3177 -1.6062  0.6207
12776TIP3   OH259818   1.696   6.035  14.240 -0.3299  0.2852 -0.4807
12776TIP3    H159819   1.713   6.091  14.164  2.1472 -1.2812 -1.1824
12776TIP3    H259820   1.742   5.953  14.220 -1.2027 -0.8559  1.8924
12777TIP3   OH259821   1.072   0.220  11.836  0.2007  0.1428 -0.1131
12777TIP3    H159822   1.056   0.189  11.747 -0.4617  0.5442 -0.1435
12777TIP3    H259823   1.056   0.144  11.891  1.4134 -0.3339 -0.3801
12778TIP3   OH259824   0.415   3.974  11.628 -0.2222 -0.8393 -0.3766
12778TIP3    H159825   0.401   3.899  11.687  1.2774  0.1045  1.2897
12778TIP3    H259826   0.439   4.046  11.687 -0.0398  0.5378 -2.0631
12779TIP3   OH259827   3.575   2.053  12.458 -0.1022  0.2791  0.2954
12779TIP3    H159828   3.522   1.977  12.436 -1.0873  0.2336  2.5540
12779TIP3    H259829   3.562   2.114  12.385  0.5154 -1.5514 -1.4377
12780TIP3   OH259830   1.599   3.807   1.926  0.0169 -0.3311  0.3022
12780TIP3    H159831   1.614   3.799   1.832  0.4739  0.6499  0.2742
12780TIP3    H259832   1.642   3.889   1.950 -1.4063  0.2169  1.0965
12781TIP3   OH259833   0.710   0.462  16.394 -0.2831  0.1834  0.4227
12781TIP3    H159834   0.718   0.557  16.400  0.1282  0.0719  1.8388
12781TIP3    H259835   0.724   0.430  16.483  0.3462 -1.2568 -0.1505
12782TIP3   OH259836   3.849   4.174   5.093  0.0238 -0.2026  0.3083
12782TIP3    H159837   3.854   4.092   5.044 -0.7842  0.1270 -0.3513
12782TIP3    H259838   3.767   4.167   5.143  0.6205 -0.3516  1.2921
12783TIP3   OH259839   0.594   4.439   5.821  0.1796  0.4379  0.4578
12783TIP3    H159840   0.567   4.424   5.911  0.9006 -1.1849  0.4203
12783TIP3    H259841   0.590   4.353   5.779  0.2715  1.0876 -0.9545
12784TIP3   OH259842   3.407   1.173   4.139  0.4567  0.2237 -0.6129
12784TIP3    H159843   3.313   1.183   4.123  0.4484 -0.1752 -0.8364
12784TIP3    H259844   3.442   1.262   4.135  0.5324  0.1577 -3.3374
12785TIP3   OH259845   3.621   4.886   4.335 -0.3478  0.1606 -0.3899
12785TIP3    H159846   3.687   4.903   4.402 -2.5168 -0.7184  2.1402
12785TIP3    H259847   3.568   4.966   4.332 -1.0737 -0.3006 -0.0577
12786TIP3   OH259848   5.025   4.942   1.619  0.4697  0.3344  0.1365
12786TIP3    H159849   5.094   5.000   1.588  0.3700  1.4235  1.8148
12786TIP3    H259850   4.969   4.928   1.543  1.1797  1.4290 -0.6137
12787TIP3   OH259851   2.812   1.462  10.765 -0.0172 -0.4236  0.6168
12787TIP3    H159852   2.758   1.399  10.718  1.0239 -1.0726  0.2510
12787TIP3    H259853   2.757   1.540  10.772 -0.0329 -0.0955 -2.1975
12788TIP3   OH259854   3.212   0.533  15.639  0.3460 -0.1230  0.2327
12788TIP3    H159855   3.131   0.482  15.638  1.4229 -2.0569  2.0090
12788TIP3    H259856   3.276   0.474  15.678  2.5448  1.4745 -0.7528
12789TIP3   OH259857   1.090   5.100   1.528 -0.0991 -0.1385 -0.1048
12789TIP3    H159858   1.019   5.070   1.584  1.3260  0.1971  2.0102
12789TIP3    H259859   1.048   5.123   1.445 -2.4662  0.2737  1.1399
12790TIP3   OH259860   5.274   1.919  14.224 -0.4166  0.7098  0.3757
12790TIP3    H159861   5.294   1.828  14.203  0.6315  0.9048  0.4966
12790TIP3    H259862   5.348   1.969  14.190 -1.3217  1.6087 -0.3526
12791TIP3   OH259863   3.644   4.219  11.751  0.3595 -0.3884  0.4249
12791TIP3    H159864   3.632   4.268  11.670 -0.2478 -1.1231  0.0577
12791TIP3    H259865   3.556   4.199  11.781  0.5355  0.9780  1.9827
12792TIP3   OH259866   2.768   3.236  13.357  0.4880  0.2769 -0.7405
12792TIP3    H159867   2.836   3.303  13.357 -1.5128  2.4404 -0.1776
12792TIP3    H259868   2.687   3.283  13.337 -1.0351 -1.9935 -0.4002
12793TIP3   OH259869   4.888   0.537  16.351 -0.0631  0.3086 -0.0447
12793TIP3    H159870   4.795   0.516  16.348  0.1959 -0.8934 -0.5506
12793TIP3    H259871   4.913   0.551  16.260 -0.0609  2.2387  0.2204
12794TIP3   OH259872   0.788   1.469   3.677  0.7246  0.0990 -0.4563
12794TIP3    H159873   0.747   1.542   3.724  1.7670  0.7120 -0.4898
12794TIP3    H259874   0.754   1.391   3.722  0.5539  0.6295  0.3657
12795TIP3   OH259875   2.265   6.351   1.488 -0.7551 -0.1547 -0.2216
12795TIP3    H159876   2.337   6.348   1.551  0.3603  0.0539 -1.4557
12795TIP3    H259877   2.279   6.275   1.431 -2.0179 -0.6049  0.0309
12796TIP3   OH259878   3.992   0.289   3.447 -0.5636 -0.0468 -1.0709
12796TIP3    H159879   4.032   0.296   3.534  0.3864  2.2320 -1.6061
12796TIP3    H259880   3.913   0.239   3.461  1.1212 -2.4772  0.5358
12797TIP3   OH259881   5.280   0.566  14.619 -0.4032 -0.3610 -0.5673
12797TIP3    H159882   5.187   0.573  14.600 -0.7967 -2.1848  0.4323
12797TIP3    H259883   5.304   0.650  14.657 -2.0985 -0.5327  0.9784
12798TIP3   OH259884   6.594   2.294  12.502  0.1285 -0.4001  0.0716
12798TIP3    H159885   6.571   2.201  12.501  0.6641 -0.6923  3.1260
12798TIP3    H259886   6.683   2.296  12.539 -0.8671  1.3446  2.7260
12799TIP3   OH259887   5.778   5.998  16.470  1.1170 -0.1450  0.3914
12799TIP3    H159888   5.705   6.020  16.528  2.6438  0.6017  2.1574
12799TIP3    H259889   5.777   6.066  16.403 -0.8650 -1.1937 -0.7664
12800TIP3   OH259890   5.990   4.586  12.229 -0.2697 -0.1620 -0.4653
12800TIP3    H159891   5.896   4.587  12.244 -0.1997 -0.3512 -0.0080
12800TIP3    H259892   6.029   4.593  12.316  0.1477  1.1985 -0.7323
12801TIP3   OH259893   4.709   5.082   4.023  0.4183 -0.2929 -0.0074
12801TIP3    H159894   4.748   5.000   3.995  0.2376 -0.6535  0.7824
12801TIP3    H259895   4.762   5.150   3.980  0.7394 -0.8100 -0.4338
12802TIP3   OH259896   3.000   5.719  15.350 -0.4303 -0.0170  0.4882
12802TIP3    H159897   3.070   5.770  15.310 -0.9770 -0.9792 -1.8550
12802TIP3    H259898   3.032   5.629  15.350 -0.3704 -0.0578  2.5426
12803TIP3   OH259899   5.526   6.684  10.970 -0.0624 -0.0980 -0.2054
12803TIP3    H159900   5.478   6.641  10.899 -0.7276  1.9777 -1.1008
12803TIP3    H259901   5.599   6.728  10.926 -0.1722  0.7727  0.4449
12804TIP3   OH259902   2.101   0.238  15.159 -0.3253  0.1884 -0.3420
12804TIP3    H159903   2.087   0.209  15.069 -4.0096 -0.5801  0.3113
12804TIP3    H259904   2.100   0.333  15.155  0.9348  0.1728 -1.2554
12805TIP3   OH259905   4.255   0.620  16.728  0.3443 -0.6348  0.1865
12805TIP3    H159906   4.214   0.705  16.715 -1.5330 -0.8738  3.4506
12805TIP3    H259907   4.344   0.640  16.759 -0.2491  0.2131  1.4273
12806TIP3   OH259908   3.457   2.596   0.727 -0.0350  0.6538  0.1199
12806TIP3    H159909   3.485   2.686   0.743  2.2529  0.0458 -0.1436
12806TIP3    H259910   3.437   2.561   0.814 -0.0666  1.1602  0.3174
12807TIP3   OH259911   3.835   5.445  13.364  0.0723  0.0193 -0.5125
12807TIP3    H159912   3.779   5.383  13.410  1.0162  0.8958  2.0327
12807TIP3    H259913   3.780   5.521  13.349  0.4488  0.8944  2.0108
12808TIP3   OH259914   1.541   6.574  13.580  0.0172 -0.0429 -0.4890
12808TIP3    H159915   1.476   6.639  13.606 -0.9360 -0.4269 -1.7983
12808TIP3    H259916   1.625   6.609  13.612 -0.5252  1.5988 -0.7721
12809TIP3   OH259917   6.046   3.176   6.066 -0.3036 -0.1104  0.1396
12809TIP3    H159918   6.054   3.146   5.975 -1.0383  1.7174 -0.5837
12809TIP3    H259919   6.100   3.116   6.116  0.7671 -0.6841 -1.6201
12810TIP3   OH259920   3.923   4.195   1.832 -0.6060  0.2692 -0.1603
12810TIP3    H159921   3.829   4.180   1.843 -0.8964  0.6713 -1.8151
12810TIP3    H259922   3.930   4.286   1.803  0.0606 -0.4167 -2.3102
12811TIP3   OH259923   0.907   2.873  11.480  0.1563  0.4223  0.0886
12811TIP3    H159924   0.886   2.817  11.406 -1.1863  0.2224  0.5903
12811TIP3    H259925   0.828   2.925  11.494  0.2927  0.2980  1.5077
12812TIP3   OH259926   5.821   1.571   1.877  0.5269 -0.6068 -0.1166
12812TIP3    H159927   5.794   1.499   1.820 -1.0433 -0.1047 -0.0628
12812TIP3    H259928   5.894   1.612   1.831 -0.6107 -0.2955 -1.7323
12813TIP3   OH259929   5.501   6.054  16.526 -0.3681 -0.5475  0.4395
12813TIP3    H159930   5.443   6.077  16.598 -1.1800 -1.5475  0.1135
12813TIP3    H259931   5.443   6.022  16.457  0.4673 -0.3788 -0.3614
12814TIP3   OH259932   2.182   0.129   6.104 -0.2592  0.0961  0.1801
12814TIP3    H159933   2.261   0.079   6.081 -1.4020 -0.4283 -3.0600
12814TIP3    H259934   2.213   0.218   6.118  1.0698 -0.3444  0.1940
12815TIP3   OH259935   1.557   5.498   0.671  0.0931  0.0178 -0.0306
12815TIP3    H159936   1.513   5.480   0.754 -2.3659 -1.8797 -1.5923
12815TIP3    H259937   1.638   5.446   0.675 -0.0618 -0.1566  1.1018
12816TIP3   OH259938   4.815   4.268  11.407  0.1047 -0.2349  0.7326
12816TIP3    H159939   4.769   4.199  11.455  0.7188 -0.8236  0.4957
12816TIP3    H259940   4.896   4.227  11.378  1.1263  0.9828  1.7428
12817TIP3   OH259941   0.262   2.927   0.706 -0.3789  0.2406  0.7973
12817TIP3    H159942   0.294   2.858   0.764 -0.1504 -0.2321  0.1231
12817TIP3    H259943   0.281   2.895   0.617  2.5740  2.4696  0.4543
12818TIP3   OH259944   2.056   0.026  14.207  0.0278 -0.4183  0.1266
12818TIP3    H159945   2.073   0.118  14.227 -1.6281 -0.0073 -0.1822
12818TIP3    H259946   1.984   0.002  14.266  0.1557 -1.3890 -0.0958
12819TIP3   OH259947   2.813   6.653   2.815 -0.2234  0.3441 -0.2961
12819TIP3    H159948   2.818   6.596   2.738  1.1576 -0.1911  0.1584
12819TIP3    H259949   2.871   6.726   2.795  2.1587 -1.0030  1.1371
12820TIP3   OH259950   2.360   0.634  12.903  0.5494 -0.5267 -0.5071
12820TIP3    H159951   2.315   0.562  12.948  1.6660 -0.4524  0.7904
12820TIP3    H259952   2.303   0.710  12.918  0.4176 -0.7095 -0.0632
12821TIP3   OH259953   0.704   5.506   5.539  0.5046 -0.2342 -0.2765
12821TIP3    H159954   0.735   5.592   5.508 -0.4674 -0.2401 -1.3212
12821TIP3    H259955   0.615   5.522   5.569 -0.0972 -1.0759 -1.5288
12822TIP3   OH259956   4.931   2.946   3.382  0.3069 -0.4763  0.2564
12822TIP3    H159957   4.958   2.926   3.472 -0.2623 -1.1968  0.2657
12822TIP3    H259958   4.860   2.885   3.363  0.2671 -0.1764 -0.6079
12823TIP3   OH259959   6.705   5.971   3.720 -0.5870  0.5229  0.0796
12823TIP3    H159960   6.665   6.046   3.675 -1.1123  0.7441  0.8948
12823TIP3    H259961   6.799   5.987   3.712 -0.6765  1.9964  1.3724
12824TIP3   OH259962   3.751   2.643  15.155 -0.1044  0.2002  0.0687
12824TIP3    H159963   3.762   2.738  15.146 -0.7780  0.3869  1.0834
12824TIP3    H259964   3.657   2.630  15.152  0.0135 -0.5501 -0.9259
12825TIP3   OH259965   6.183   2.665   4.076 -0.9431 -0.0691  0.0385
12825TIP3    H159966   6.103   2.706   4.107 -1.7438 -1.6938  0.2308
12825TIP3    H259967   6.226   2.634   4.156  0.7721  2.2000  0.1169
12826TIP3   OH259968   4.544   0.383  16.820  0.4377 -0.3929 -0.3207
12826TIP3    H159969   4.603   0.369  16.894 -0.5751  0.2141  0.6265
12826TIP3    H259970   4.579   0.460  16.776  0.4016 -0.0881  0.1806
12827TIP3   OH259971   1.919   5.526   3.811  0.1033  0.7525 -0.2525
12827TIP3    H159972   1.923   5.460   3.742  0.3870 -0.3497  0.7884
12827TIP3    H259973   1.843   5.501   3.863  1.3566  0.0498  1.3061
12828TIP3   OH259974   3.105   2.282  15.678  0.3154  0.6314 -0.6496
12828TIP3    H159975   3.019   2.249  15.652 -0.9427  1.8643  1.5849
12828TIP3    H259976   3.090   2.375  15.696  1.2845  0.2714  2.7610
12829TIP3   OH259977   4.547   3.993   0.984  0.0676  0.3614 -0.1945
12829TIP3    H159978   4.541   3.948   1.069 -0.2655  0.5134 -0.1386
12829TIP3    H259979   4.616   3.945   0.937 -2.4392 -2.3474 -1.4204
12830TIP3   OH259980   3.258   0.565  16.273 -0.0225  0.2253 -0.1069
12830TIP3    H159981   3.209   0.543  16.352 -0.4807 -0.4457 -0.5656
12830TIP3    H259982   3.293   0.653  16.290 -1.0747  0.5652  0.3831
12831TIP3   OH259983   2.770   4.559  14.023 -0.5725 -0.2353 -0.0568
12831TIP3    H159984   2.681   4.586  13.999 -0.2185  1.9173  0.8422
12831TIP3    H259985   2.759   4.473  14.064 -2.1047 -0.4136 -0.7612
12832TIP3   OH259986   4.873   5.983  10.638  0.2018 -0.2552  0.1711
12832TIP3    H159987   4.932   6.051  10.671  0.3766 -0.7950  1.0271
12832TIP3    H259988   4.932   5.912  10.610 -0.0026 -0.3734  0.0358
12833TIP3   OH259989   1.705   2.748  16.513 -0.8003 -0.6977 -0.0142
12833TIP3    H159990   1.752   2.775  16.434 -0.1222 -1.1819  0.2208
12833TIP3    H259991   1.769   2.756  16.584 -0.7914 -2.1946  0.1819
12834TIP3   OH259992   1.720   2.182  14.538 -0.1719  0.4787  0.0335
12834TIP3    H159993   1.769   2.219  14.612  0.0702 -0.4087  0.3324
12834TIP3    H259994   1.676   2.105  14.574  0.1857 -0.1409 -0.8066
12835TIP3   OH259995   6.125   4.970   1.435  0.5246  0.4037 -0.0059
12835TIP3    H159996   6.167   5.043   1.390 -0.3683  2.0866  1.7505
12835TIP3    H259997   6.111   4.905   1.367  4.4341  0.3564 -1.0338
12836TIP3   OH259998   5.350   1.999  11.424 -0.1337  0.7874 -0.4282
12836TIP3    H159999   5.436   2.036  11.403 -0.9035  1.5918 -2.3100
12836TIP3    H260000   5.307   2.068  11.476  0.5874  0.0745  1.2002
12837TIP3   OH260001   6.548   1.735  10.690  0.0338 -0.0502 -0.2636
12837TIP3    H160002   6.517   1.725  10.600  0.7731 -0.3698 -0.4908
12837TIP3    H260003   6.588   1.822  10.693  0.2448 -0.1446 -0.3182
12838TIP3   OH260004   5.503   4.274  12.069 -0.2885 -0.8583  0.7438
12838TIP3    H160005   5.592   4.298  12.096  0.1223 -1.6655  0.1465
12838TIP3    H260006   5.501   4.178  12.076 -0.2769 -1.1024 -1.6337
12839TIP3   OH260007   2.714   4.648  16.232  0.1740  0.0253  0.2152
12839TIP3    H160008   2.670   4.582  16.287  0.6415 -0.5998 -0.1520
12839TIP3    H260009   2.787   4.679  16.285  0.4177 -0.3228  0.0832
12840TIP3   OH260010   4.859   2.589  16.309  0.1924 -0.3783  0.0575
12840TIP3    H160011   4.902   2.575  16.224  0.2689  0.4834 -0.0587
12840TIP3    H260012   4.780   2.535  16.305 -0.5773  0.7536 -1.1664
12841TIP3   OH260013   1.485   5.880  12.574  0.2772  0.0840 -0.4831
12841TIP3    H160014   1.462   5.891  12.667 -1.4884 -1.1169 -0.7331
12841TIP3    H260015   1.437   5.951  12.530 -0.5383 -0.5732 -0.6752
12842TIP3   OH260016   0.353   3.088   5.369 -0.3529 -0.0295 -0.0142
12842TIP3    H160017   0.422   3.154   5.358 -0.0159  0.0186  1.9913
12842TIP3    H260018   0.398   3.014   5.411 -1.2886 -0.4253  0.3065
12843TIP3   OH260019   3.839   2.870   1.063 -0.1575 -0.0500 -0.2592
12843TIP3    H160020   3.773   2.915   1.010 -0.8288 -1.0913 -0.3229
12843TIP3    H260021   3.914   2.930   1.064 -0.4606  0.3799 -1.6375
12844TIP3   OH260022   1.949   5.290  11.850  0.8362 -0.3988  0.4482
12844TIP3    H160023   1.921   5.264  11.762  2.3503  2.0582 -0.8753
12844TIP3    H260024   1.988   5.377  11.838 -0.9285  1.0804  3.9258
12845TIP3   OH260025   6.089   3.097   0.405  0.7768 -0.0875  0.0564
12845TIP3    H160026   6.182   3.091   0.385  0.6330  1.0233 -1.0291
12845TIP3    H260027   6.075   3.189   0.429 -0.3999  0.2879 -1.8409
12846TIP3   OH260028   2.259   0.581   4.734  0.5314 -0.1896 -0.0405
12846TIP3    H160029   2.209   0.506   4.767  1.5927  0.1055  2.4008
12846TIP3    H260030   2.251   0.648   4.802  1.0240  1.3200 -1.3889
12847TIP3   OH260031   6.619   6.006  14.103 -0.0297 -0.0412  0.0979
12847TIP3    H160032   6.693   6.060  14.076 -0.2758  0.0459 -0.4352
12847TIP3    H260033   6.543   6.049  14.063 -0.8245  1.7388  3.1921
12848TIP3   OH260034   1.878   0.549  11.205 -0.3542 -0.1122 -0.2315
12848TIP3    H160035   1.839   0.463  11.190 -1.7146  0.4354  0.0176
12848TIP3    H260036   1.888   0.586  11.117 -2.4467  0.5877 -0.2252
12849TIP3   OH260037   2.312   1.479   2.537 -0.0754 -0.0514 -0.6637
12849TIP3    H160038   2.358   1.409   2.490 -1.0706 -0.4884 -1.0082
12849TIP3    H260039   2.303   1.446   2.626  1.3971  0.5818 -0.2462
12850TIP3   OH260040   4.582   1.192  15.560  0.3581 -0.4837  0.3311
12850TIP3    H160041   4.578   1.154  15.472 -0.5606  1.0193 -0.3264
12850TIP3    H260042   4.672   1.178  15.588  0.3655 -2.0256 -0.3548
12851TIP3   OH260043   5.038   3.392  16.348  0.3245  0.6788 -0.0424
12851TIP3    H160044   4.949   3.419  16.370  0.6290 -0.0327  2.3246
12851TIP3    H260045   5.085   3.475  16.334 -0.8094  1.0522 -2.0771
12852TIP3   OH260046   2.653   0.468   5.882 -0.0736 -0.1827 -0.1400
12852TIP3    H160047   2.572   0.505   5.916 -0.5832 -0.9524 -0.5071
12852TIP3    H260048   2.694   0.426   5.957 -0.3323 -0.3572 -0.0965
12853TIP3   OH260049   4.874   0.554  15.231 -0.4388  0.5591  0.0869
12853TIP3    H160050   4.882   0.525  15.140  0.0680  1.7234 -0.2643
12853TIP3    H260051   4.864   0.649  15.224 -1.7896  0.5281  1.1890
12854TIP3   OH260052   3.203   1.135  11.681  0.3694  0.1553  0.1630
12854TIP3    H160053   3.169   1.054  11.719  1.5344  0.3152  1.6322
12854TIP3    H260054   3.136   1.162  11.618 -1.1382 -0.7144  1.3358
12855TIP3   OH260055   1.099   2.343   5.134  0.2829 -0.4413 -0.0669
12855TIP3    H160056   1.193   2.358   5.140  0.9498 -2.9705 -2.3081
12855TIP3    H260057   1.084   2.267   5.191 -0.6032  0.4650  0.9461
12856TIP3   OH260058   2.362   6.196  14.127  0.4340  0.6782 -0.2136
12856TIP3    H160059   2.309   6.231  14.056 -0.2297  1.0356  0.4372
12856TIP3    H260060   2.358   6.101  14.116 -1.0691  0.6464  0.3098
12857TIP3   OH260061   4.202   1.975  11.346  0.4341  0.2868 -0.2530
12857TIP3    H160062   4.206   2.051  11.403  0.2844  0.5956 -0.6436
12857TIP3    H260063   4.169   1.904  11.401  0.2397  0.5918  0.0238
12858TIP3   OH260064   4.045   0.293  17.034 -0.1086  0.4066 -0.0099
12858TIP3    H160065   3.958   0.324  17.009 -0.6771 -0.3645  0.9476
12858TIP3    H260066   4.032   0.202  17.061  1.0686  0.1446 -0.2260
12859TIP3   OH260067   4.455   0.336   2.455  0.3008 -0.0222 -0.0231
12859TIP3    H160068   4.439   0.288   2.537  2.2940  0.2268  0.5820
12859TIP3    H260069   4.455   0.269   2.387 -0.2907 -0.3875  0.3335
12860TIP3   OH260070   5.292   4.921  17.171 -0.6373  0.7110 -0.2556
12860TIP3    H160071   5.295   5.003  17.221  1.6372  0.8208 -0.4546
12860TIP3    H260072   5.360   4.931  17.105 -1.6201 -0.6141 -1.5185
12861TIP3   OH260073   2.779   3.164  10.858  0.1490  0.1911 -0.1454
12861TIP3    H160074   2.841   3.108  10.810  1.9208  0.9461  1.1306
12861TIP3    H260075   2.804   3.253  10.833 -1.9773  0.5081 -1.3713
12862TIP3   OH260076   5.221   5.698  13.731 -0.4861  0.2510 -0.0297
12862TIP3    H160077   5.179   5.675  13.814  0.1654 -0.7664  0.0343
12862TIP3    H260078   5.201   5.623  13.673 -1.0975  1.0304 -0.8589
12863TIP3   OH260079   5.932   1.111   2.309  0.2214 -0.0849 -0.1265
12863TIP3    H160080   5.924   1.159   2.391 -0.8800 -1.1870  0.4406
12863TIP3    H260081   6.020   1.133   2.277  0.5944  0.5080  1.2321
12864TIP3   OH260082   4.836   2.751  10.558 -0.4255 -0.2933 -0.3551
12864TIP3    H160083   4.929   2.732  10.545  0.1778  1.8535  0.4804
12864TIP3    H260084   4.804   2.774  10.470  0.3035  0.7604 -0.3643
12865TIP3   OH260085   6.793   2.619   6.479 -0.1146  0.2473 -0.3563
12865TIP3    H160086   6.794   2.560   6.403  1.8526 -0.5267  0.1766
12865TIP3    H260087   6.824   2.564   6.551  1.5528  1.8256  0.2203
12866TIP3   OH260088   3.225   2.883   4.349 -0.0364 -0.1092  0.2064
12866TIP3    H160089   3.319   2.898   4.348  0.1612 -1.2977 -0.4343
12866TIP3    H260090   3.214   2.801   4.399 -0.8919  0.9094  1.7967
12867TIP3   OH260091   3.091   5.564   2.749 -0.0639 -0.6563  0.1875
12867TIP3    H160092   3.115   5.584   2.659 -1.1104 -0.0981  0.0088
12867TIP3    H260093   3.154   5.498   2.777 -0.0089 -1.1937 -1.1112
12868TIP3   OH260094   6.579   4.717   0.923 -0.5286 -0.4555 -0.3013
12868TIP3    H160095   6.507   4.774   0.949  1.1029  2.1911 -1.2353
12868TIP3    H260096   6.599   4.666   1.002 -1.4181  0.9718  0.8997
12869TIP3   OH260097   1.450   4.644  13.510  0.2394  0.3546 -0.7593
12869TIP3    H160098   1.439   4.552  13.536  0.7641  0.4967  0.0009
12869TIP3    H260099   1.364   4.684  13.529  0.5655  0.4269  0.7211
12870TIP3   OH260100   0.862   4.001   2.451  0.6541  0.5091 -0.2303
12870TIP3    H160101   0.805   4.042   2.385  1.8014  1.2732 -0.7929
12870TIP3    H260102   0.805   3.986   2.526 -0.1764  1.6909 -0.5958
12871TIP3   OH260103   6.042   2.897   0.930  0.5783  0.7038 -0.6223
12871TIP3    H160104   5.951   2.908   0.903 -0.2360  0.2772  1.7015
12871TIP3    H260105   6.074   2.987   0.944  0.9024  0.9142 -2.4003
12872TIP3   OH260106   1.419   6.264  12.796 -0.3719  0.5954 -0.3363
12872TIP3    H160107   1.432   6.293  12.706  0.0912  2.2257  0.2159
12872TIP3    H260108   1.506   6.273  12.836 -0.6792  0.3497  0.3972
12873TIP3   OH260109   6.393   0.354  12.886  0.5621  0.1595 -0.6692
12873TIP3    H160110   6.444   0.302  12.824 -1.6882 -0.9020 -1.7532
12873TIP3    H260111   6.341   0.289  12.935  1.5660  1.0404  1.7292
12874TIP3   OH260112   6.187   4.583  11.282  0.2287 -0.2561  0.0155
12874TIP3    H160113   6.128   4.520  11.323 -1.6703  0.5814 -1.2460
12874TIP3    H260114   6.267   4.533  11.264  0.1018 -1.3273  2.1657
12875TIP3   OH260115   1.009   1.317  15.664  0.6453 -0.3845  0.2841
12875TIP3    H160116   1.088   1.336  15.716 -0.0491  1.2123  0.8386
12875TIP3    H260117   1.035   1.247  15.605  1.5769 -2.0820  2.5702
12876TIP3   OH260118   2.491   2.651   6.256  0.2247 -0.2399  0.3156
12876TIP3    H160119   2.399   2.640   6.236  0.1341  0.9820 -0.0058
12876TIP3    H260120   2.506   2.745   6.251  1.0110 -0.1863  2.4334
12877TIP3   OH260121   2.232   2.555   1.991  0.1158  0.0716 -0.0159
12877TIP3    H160122   2.264   2.506   1.915  0.1081  0.0207  0.0138
12877TIP3    H260123   2.290   2.527   2.062 -0.4629 -0.5804  0.2056
12878TIP3   OH260124   3.935   2.733  16.909  0.5313 -0.0914 -0.4413
12878TIP3    H160125   3.905   2.643  16.917 -0.0136  0.0995 -0.2590
12878TIP3    H260126   4.031   2.727  16.906  0.5775 -0.5482  1.2389
12879TIP3   OH260127   4.231   4.871  12.570 -0.2112  0.4710  0.1911
12879TIP3    H160128   4.184   4.872  12.653 -1.4041 -1.3235 -0.3836
12879TIP3    H260129   4.322   4.886  12.593 -0.7736  2.0570  1.5655
12880TIP3   OH260130   3.010   1.065   6.571  0.0154  0.1310  0.1203
12880TIP3    H160131   3.001   1.159   6.589  1.4686  0.5894 -1.2152
12880TIP3    H260132   3.085   1.038   6.623  1.5479  0.4822 -1.7898
12881TIP3   OH260133   3.389   6.760   3.247  0.0813  0.0799  0.3594
12881TIP3    H160134   3.326   6.726   3.182  0.1818 -0.3416  0.4765
12881TIP3    H260135   3.467   6.780   3.196 -0.1520  0.6170  0.2110
12882TIP3   OH260136   2.993   1.244  10.940  0.0996 -0.4524  0.4372
12882TIP3    H160137   2.905   1.268  10.970 -0.5778 -0.2364 -1.5179
12882TIP3    H260138   2.980   1.163  10.891  0.8348 -0.0303 -0.4979
12883TIP3   OH260139   2.016   0.271  14.389  0.2214  0.0877  0.2172
12883TIP3    H160140   2.110   0.275  14.371  0.1162  2.0650 -0.1596
12883TIP3    H260141   2.009   0.220  14.470  1.5159 -0.8901 -0.2491
12884TIP3   OH260142   0.074   4.042   1.667  0.1854  0.3416  0.2179
12884TIP3    H160143   0.041   4.074   1.751  0.1714  1.7288 -0.2996
12884TIP3    H260144   0.009   3.977   1.639  0.4169 -0.4743  1.4693
12885TIP3   OH260145   3.263   6.251  15.055 -0.4655  0.5168 -0.1250
12885TIP3    H160146   3.177   6.278  15.085  0.0733  0.7119  1.3035
12885TIP3    H260147   3.249   6.166  15.014 -1.2547  0.2955  0.5902
12886TIP3   OH260148   2.411   6.824  13.412 -0.1514 -0.3925 -0.5558
12886TIP3    H160149   2.325   6.831  13.371 -0.5767  0.4515  0.4319
12886TIP3    H260150   2.448   6.911  13.403 -0.1018 -0.2957  0.5088
12887TIP3   OH260151   5.094   2.810  12.366 -0.5794  0.1670  0.0968
12887TIP3    H160152   5.078   2.747  12.437 -0.3525  0.6570  0.5952
12887TIP3    H260153   5.026   2.792  12.302 -1.5001  0.4710  0.9691
12888TIP3   OH260154   3.775   0.368  16.342  0.0408  0.2486 -0.4733
12888TIP3    H160155   3.856   0.333  16.379 -0.0815  1.2704  0.8507
12888TIP3    H260156   3.782   0.353  16.248  2.1742  1.1014 -0.4962
12889TIP3   OH260157   1.823   2.563   1.868 -0.0489  0.3661 -0.7471
12889TIP3    H160158   1.876   2.607   1.935  0.2072  2.1429 -2.0310
12889TIP3    H260159   1.805   2.632   1.804  0.6291 -1.5188 -3.0669
12890TIP3   OH260160   1.316   0.059   0.470 -0.0813  0.3912  0.7311
12890TIP3    H160161   1.254   0.130   0.452 -0.0308  0.1441 -0.4839
12890TIP3    H260162   1.347   0.076   0.560 -3.2233 -0.4898  2.1084
12891TIP3   OH260163   2.200   5.298  15.326  0.0809  0.7506  0.1342
12891TIP3    H160164   2.273   5.254  15.370  0.5744  0.7051 -0.7130
12891TIP3    H260165   2.184   5.376  15.379  1.8574  1.6575 -0.5470
12892TIP3   OH260166   3.075   5.649  16.735 -0.3144 -0.2145  0.3603
12892TIP3    H160167   3.141   5.673  16.800 -1.2955 -0.4914  1.4961
12892TIP3    H260168   3.125   5.630  16.656  0.7559  3.1197  0.0447
12893TIP3   OH260169   1.416   0.324   3.662 -0.1448  0.3098  0.2673
12893TIP3    H160170   1.380   0.236   3.647 -0.5679 -0.3025  3.9178
12893TIP3    H260171   1.511   0.313   3.655 -0.1855 -0.5112  0.8596
12894TIP3   OH260172   4.896   5.058  15.683  0.6448 -0.1014 -0.2457
12894TIP3    H160173   4.942   5.131  15.642  1.6821  0.3131  1.5587
12894TIP3    H260174   4.804   5.087  15.687  1.0130  1.0663  0.3018
12895TIP3   OH260175   4.850   4.059   5.330 -0.1952  0.4119 -0.1284
12895TIP3    H160176   4.916   4.075   5.263 -1.1038 -0.5889 -1.3199
12895TIP3    H260177   4.836   3.964   5.327 -0.0454  0.3010  1.7152
12896TIP3   OH260178   6.204   1.658  11.352  0.0534  0.1432  0.2660
12896TIP3    H160179   6.202   1.610  11.269  0.1847 -0.3526  0.5476
12896TIP3    H260180   6.113   1.678  11.370 -0.1516 -1.2480  0.8600
12897TIP3   OH260181   6.523   3.509  12.028 -0.3517  0.1458 -0.4054
12897TIP3    H160182   6.463   3.492  11.956 -0.9874  3.5575 -0.8433
12897TIP3    H260183   6.549   3.600  12.017  3.0742 -0.4930  1.1712
12898TIP3   OH260184   3.518   1.160   1.856 -0.2031 -0.4398 -0.0346
12898TIP3    H160185   3.561   1.168   1.770 -0.9323 -2.7681 -0.6979
12898TIP3    H260186   3.579   1.107   1.908 -0.6923 -0.8304  0.1527
12899TIP3   OH260187   0.552   4.118   0.006  0.3006  0.1993  0.5306
12899TIP3    H160188   0.603   4.198   0.016  0.5410  0.2461 -0.9691
12899TIP3    H260189   0.472   4.135   0.056  0.2938  1.4276  0.1271
12900TIP3   OH260190   5.836   3.223  16.342 -0.0684 -0.1378 -0.0851
12900TIP3    H160191   5.897   3.267  16.284 -1.3389 -0.0336 -1.3831
12900TIP3    H260192   5.832   3.279  16.420 -0.5936  1.3260 -1.1257
12901TIP3   OH260193   6.001   1.953  15.663 -0.4255  0.2340 -0.8477
12901TIP3    H160194   5.914   1.914  15.658 -0.3636  0.2107 -1.8390
12901TIP3    H260195   6.058   1.891  15.617  0.0336  0.5053 -0.6567
12902TIP3   OH260196   2.068   3.160  12.833  0.4164 -0.5044 -0.5535
12902TIP3    H160197   2.093   3.247  12.803 -1.5870 -0.1208 -1.2644
12902TIP3    H260198   1.972   3.158  12.825  0.2015 -2.0028  1.5105
12903TIP3   OH260199   5.888   3.352   1.813  0.5047 -0.7510 -0.1733
12903TIP3    H160200   5.982   3.370   1.808  0.5590 -0.4930  1.2896
12903TIP3    H260201   5.850   3.406   1.744  1.2079  1.0650  0.7877
12904TIP3   OH260202   6.380   6.405   2.981  0.3002  0.1304 -0.6857
12904TIP3    H160203   6.345   6.494   2.977  0.9856  0.5807  1.6780
12904TIP3    H260204   6.428   6.402   3.063  1.6346 -1.9719 -1.4568
12905TIP3   OH260205   2.171   2.839   3.848  0.0440  0.5140  0.1438
12905TIP3    H160206   2.184   2.933   3.838  2.8502  0.4995  2.4930
12905TIP3    H260207   2.155   2.826   3.941  0.1794 -1.3824 -0.0569
12906TIP3   OH260208   2.191   0.174   1.454 -0.5489 -0.2291  0.2603
12906TIP3    H160209   2.195   0.261   1.492  0.3782  0.0178 -0.3680
12906TIP3    H260210   2.226   0.116   1.522  0.0209  0.0547  0.2084
12907TIP3   OH260211   6.384   2.344  12.317 -0.0666  0.5374  0.4148
12907TIP3    H160212   6.455   2.325  12.379 -0.8011  0.0489  1.1277
12907TIP3    H260213   6.386   2.270  12.255 -0.6670 -0.0829  1.1114
12908TIP3   OH260214   1.297   0.669   6.070 -0.4802 -0.0848  0.0924
12908TIP3    H160215   1.218   0.696   6.024  0.4679 -0.8979 -2.1906
12908TIP3    H260216   1.300   0.574   6.060  0.9407 -0.0407 -0.1657
12909TIP3   OH260217   5.504   6.788  16.761 -0.2931  0.0082 -0.2310
12909TIP3    H160218   5.511   6.858  16.825  0.6490  0.1764 -0.5026
12909TIP3    H260219   5.436   6.818  16.700 -0.3822  0.3647  0.0426
12910TIP3   OH260220   0.055   0.871   5.330  0.9892  0.1122 -0.3042
12910TIP3    H160221   0.058   0.830   5.244  0.8077 -1.0851  0.2384
12910TIP3    H260222   0.103   0.953   5.319  0.3675  0.3194 -1.7135
12911TIP3   OH260223   4.346   0.559   3.592 -0.2209 -0.0785  0.2951
12911TIP3    H160224   4.333   0.650   3.619 -2.4227 -0.0405 -0.7017
12911TIP3    H260225   4.441   0.551   3.580 -0.0279  2.3024 -0.2964
12912TIP3   OH260226   1.182   1.071  13.188  0.0224 -0.2967  0.0565
12912TIP3    H160227   1.102   1.086  13.238 -0.3423 -0.9215 -0.3184
12912TIP3    H260228   1.160   0.999  13.129  1.1970 -1.2374  0.7195
12913TIP3   OH260229   1.659   6.402  10.239 -0.4748  0.1976 -0.0997
12913TIP3    H160230   1.682   6.495  10.241 -0.8182  0.2736  0.5610
12913TIP3    H260231   1.692   6.367  10.322  0.3903 -0.4613 -0.6960
12914TIP3   OH260232   2.545   3.566  13.675 -0.1612 -0.2457  0.6281
12914TIP3    H160233   2.593   3.537  13.598 -1.7813 -1.0238 -0.1194
12914TIP3    H260234   2.611   3.610  13.729  0.9797  0.4027 -1.2262
12915TIP3   OH260235   4.122   0.887  16.733 -0.0783  0.1484 -0.0607
12915TIP3    H160236   4.040   0.936  16.730  0.8080  1.8099  1.1760
12915TIP3    H260237   4.155   0.888  16.643 -0.8622  0.4497 -0.3464
12916TIP3   OH260238   0.546   5.781  12.226 -0.2510  0.2234 -0.0724
12916TIP3    H160239   0.585   5.866  12.248 -0.3179  0.1630  0.2806
12916TIP3    H260240   0.526   5.788  12.133 -0.6281  0.7429  0.0415
12917TIP3   OH260241   4.734   0.992  16.162  0.3666 -0.0959 -0.1603
12917TIP3    H160242   4.656   1.047  16.170 -0.2497 -1.1906  2.9461
12917TIP3    H260243   4.805   1.047  16.195  0.1239 -0.3961  0.9179
12918TIP3   OH260244   2.265   3.421   0.603  0.3849 -0.2645  0.1408
12918TIP3    H160245   2.340   3.431   0.662  0.5750  0.7886 -0.2546
12918TIP3    H260246   2.298   3.450   0.518  0.1682 -1.9147 -0.5379
12919TIP3   OH260247   0.169   4.495  13.838  0.0460  0.4312 -0.4438
12919TIP3    H160248   0.154   4.425  13.901  0.3344  0.7644  0.0027
12919TIP3    H260249   0.264   4.503  13.834  0.0066  1.1564 -0.0839
12920TIP3   OH260250   3.220   4.977  15.958 -0.1777 -0.2347 -1.4452
12920TIP3    H160251   3.260   4.991  15.872  0.1681 -1.8845 -1.5896
12920TIP3    H260252   3.275   4.910  15.999  0.6285  1.6249  0.7440
12921TIP3   OH260253   1.104   5.356  11.125 -0.6732 -0.1396 -0.2515
12921TIP3    H160254   1.106   5.378  11.032 -0.4622  1.0494  0.0240
12921TIP3    H260255   1.195   5.341  11.149 -0.4557  1.6943  0.2310
12922TIP3   OH260256   3.425   0.671   0.573  0.2051 -0.2265 -0.0589
12922TIP3    H160257   3.408   0.760   0.601 -0.5147  0.0472 -1.2724
12922TIP3    H260258   3.508   0.647   0.614  0.0166  0.7191  0.8867
12923TIP3   OH260259   2.199   0.904   3.122 -0.2709 -0.0311 -0.1634
12923TIP3    H160260   2.129   0.910   3.057  0.0772 -0.4765 -0.5833
12923TIP3    H260261   2.240   0.990   3.121  0.1000 -0.2030 -0.9587
12924TIP3   OH260262   6.200   4.203  16.731  0.1295  0.2109  0.3355
12924TIP3    H160263   6.109   4.209  16.702  0.4043 -0.2377 -0.6444
12924TIP3    H260264   6.194   4.197  16.827 -0.8861 -0.0855  0.2666
12925TIP3   OH260265   5.523   5.334  13.854  0.1512  0.4455 -0.1081
12925TIP3    H160266   5.616   5.356  13.855  0.9416 -2.4347 -0.3673
12925TIP3    H260267   5.519   5.247  13.893 -2.2629 -0.0691 -1.2991
12926TIP3   OH260268   2.549   6.040  15.711 -0.6392  0.0984 -0.1236
12926TIP3    H160269   2.492   5.976  15.669 -1.0012  0.4764 -0.2234
12926TIP3    H260270   2.551   6.114  15.650  0.2444 -0.0478 -0.2860
12927TIP3   OH260271   6.445   5.634  11.963  0.1912 -0.2388  0.0979
12927TIP3    H160272   6.461   5.641  12.057  0.1311 -0.0798  0.0958
12927TIP3    H260273   6.504   5.565  11.934  0.7369  0.2128  0.1217
12928TIP3   OH260274   2.833   5.016  12.556  0.2103 -1.1420  0.1078
12928TIP3    H160275   2.900   5.084  12.549  0.8207 -1.8732 -1.6804
12928TIP3    H260276   2.769   5.051  12.619  0.7470  0.8522 -0.4077
12929TIP3   OH260277   2.317   1.551   4.337 -0.0311  0.5871  0.2897
12929TIP3    H160278   2.228   1.515   4.328  0.8001 -1.7456  0.5688
12929TIP3    H260279   2.327   1.567   4.431  0.3254 -0.6373  0.4822
12930TIP3   OH260280   0.089   2.678   2.972 -0.9549 -0.0498  0.5348
12930TIP3    H160281   0.132   2.763   2.967  1.1891 -1.0578  0.4041
12930TIP3    H260282   0.011   2.693   3.025 -0.7236  2.0102  0.3662
12931TIP3   OH260283   3.193   1.018   3.687  0.8724 -0.1709  0.1591
12931TIP3    H160284   3.120   1.068   3.723  0.1405 -0.8253 -0.3959
12931TIP3    H260285   3.169   1.001   3.596  1.4117 -0.9404  0.1452
12932TIP3   OH260286   6.245   4.465  14.940  0.8826 -0.3357 -0.1234
12932TIP3    H160287   6.186   4.456  14.866 -2.6524 -0.1936  2.4109
12932TIP3    H260288   6.235   4.556  14.968  0.0914 -0.9784  1.9371
12933TIP3   OH260289   3.849   1.278   2.023 -0.4030  0.1509  0.3130
12933TIP3    H160290   3.931   1.302   2.066  0.9805 -1.6214 -1.1883
12933TIP3    H260291   3.805   1.222   2.087  0.0687  0.2258  0.7120
12934TIP3   OH260292   0.030   3.952  13.072 -0.2059 -0.6138  0.4459
12934TIP3    H160293   0.008   4.045  13.081  0.9437 -0.3152  0.2378
12934TIP3    H260294   0.048   3.940  12.979 -0.3640 -1.0555  0.4690
12935TIP3   OH260295   2.360   6.324  13.399 -0.2625  0.0057  0.2994
12935TIP3    H160296   2.404   6.390  13.452  0.0963  0.1764 -0.1963
12935TIP3    H260297   2.281   6.301  13.448 -0.3235  0.7119  0.5407
12936TIP3   OH260298   5.593   1.657  12.844  0.0990 -0.4555  0.3115
12936TIP3    H160299   5.641   1.739  12.857  0.6228 -0.7328  0.1636
12936TIP3    H260300   5.528   1.678  12.777 -2.2194  0.8275  2.7527
12937TIP3   OH260301   4.638   6.245  15.120 -1.0081 -0.2164  0.0914
12937TIP3    H160302   4.587   6.213  15.194 -1.6066 -0.9356 -0.6111
12937TIP3    H260303   4.592   6.324  15.092 -1.1129 -0.2647  0.1282
12938TIP3   OH260304   1.344   2.377  15.293 -0.3752 -0.2159  0.0631
12938TIP3    H160305   1.398   2.416  15.362 -0.7037  0.0426  0.1845
12938TIP3    H260306   1.302   2.452  15.251  1.3458 -0.1932 -1.7639
12939TIP3   OH260307   0.900   5.423  14.714  0.6129 -0.2487  0.3059
12939TIP3    H160308   0.854   5.394  14.793  0.6167 -0.7778  0.1116
12939TIP3    H260309   0.925   5.514  14.734 -0.2964 -0.0292  0.5075
12940TIP3   OH260310   1.577   3.301   6.802  0.2177  0.1873  0.5673
12940TIP3    H160311   1.663   3.329   6.834  1.7773 -1.8560 -1.5367
12940TIP3    H260312   1.558   3.360   6.729  0.8422 -0.6006 -0.2580
12941TIP3   OH260313   4.479   2.767  16.836 -0.3352  0.2420 -0.3664
12941TIP3    H160314   4.454   2.821  16.761 -1.3858 -0.2927 -0.4239
12941TIP3    H260315   4.502   2.830  16.904 -2.6067  0.8229 -0.0643
12942TIP3   OH260316   2.599   4.051   3.158 -0.0585  0.0824 -0.4207
12942TIP3    H160317   2.555   4.130   3.189  0.5468  0.4902 -0.5837
12942TIP3    H260318   2.593   3.990   3.232 -0.1403  0.4399 -0.1292
12943TIP3   OH260319   6.136   2.015   2.947 -0.0520 -0.4576  0.6101
12943TIP3    H160320   6.196   1.942   2.933  0.3020 -0.1138  0.3070
12943TIP3    H260321   6.138   2.030   3.042 -0.3857 -1.0558  0.7142
12944TIP3   OH260322   4.549   0.813   1.840 -0.0450 -0.0283 -0.1956
12944TIP3    H160323   4.564   0.873   1.913 -1.0519  0.1185 -0.0988
12944TIP3    H260324   4.487   0.858   1.784 -0.2548 -0.6785 -0.4984
12945TIP3   OH260325   1.959   1.154  15.686 -0.2519  0.5950  0.1114
12945TIP3    H160326   1.874   1.119  15.661 -0.5731  1.0026  0.6061
12945TIP3    H260327   1.950   1.249  15.672 -0.8529  1.0285  2.7886
12946TIP3   OH260328   1.786   1.073  13.066 -0.0314 -0.7655  0.1039
12946TIP3    H160329   1.877   1.095  13.085 -0.8495  2.4555  1.0209
12946TIP3    H260330   1.781   1.073  12.970  0.3291  2.8381 -0.0612
12947TIP3   OH260331   3.124   5.482   4.903  0.3777 -0.2296 -0.3001
12947TIP3    H160332   3.180   5.447   4.973  0.3083  0.4071  0.0847
12947TIP3    H260333   3.041   5.435   4.913 -0.8562  2.1365  2.2600
12948TIP3   OH260334   6.695   0.605  15.951  0.0123  0.5300 -0.2362
12948TIP3    H160335   6.720   0.547  16.024  1.8762  1.3624 -0.1400
12948TIP3    H260336   6.707   0.551  15.873  0.6754  0.4388 -0.0810
12949TIP3   OH260337   5.818   2.914  17.032 -0.6079  0.0856 -0.0846
12949TIP3    H160338   5.842   2.899  16.941 -2.1822 -0.0074 -0.5139
12949TIP3    H260339   5.861   2.843  17.080  0.1890  0.1019 -0.7486
12950TIP3   OH260340   1.302   0.026  12.942  0.3057  0.5254 -0.2368
12950TIP3    H160341   1.224   0.063  12.901  0.2818  0.3843 -0.3203
12950TIP3    H260342   1.306  -0.064  12.909  2.0310  1.2969 -2.4436
12951TIP3   OH260343   4.847   6.703  12.425 -0.4695  0.0368 -0.4701
12951TIP3    H160344   4.843   6.627  12.367  0.2308 -0.7066  0.4172
12951TIP3    H260345   4.758   6.713  12.459 -0.3222 -1.1318  0.3082
12952TIP3   OH260346   3.432   6.623   2.363 -0.3729 -0.6888  0.1053
12952TIP3    H160347   3.524   6.634   2.386 -0.6644 -0.4064  1.1874
12952TIP3    H260348   3.429   6.541   2.313  0.5997 -0.1877 -0.8158
12953TIP3   OH260349   6.527   4.094  12.411 -0.3156  0.3229  0.2758
12953TIP3    H160350   6.520   4.189  12.401 -1.7380  0.1041 -1.2414
12953TIP3    H260351   6.621   4.075  12.403 -0.2111  1.4106 -1.5828
12954TIP3   OH260352   3.712   3.238  16.604  0.0921 -0.3798  0.0633
12954TIP3    H160353   3.620   3.215  16.594  0.0783 -0.4054  0.2457
12954TIP3    H260354   3.746   3.239  16.515  0.0159 -0.8003  0.0263
12955TIP3   OH260355   3.152   0.279   5.380 -0.0816 -0.2514  0.0423
12955TIP3    H160356   3.065   0.314   5.400  0.3080  0.9431 -0.2348
12955TIP3    H260357   3.136   0.195   5.339 -1.1266  0.1512 -0.3945
12956TIP3   OH260358   3.753   2.190  12.053  0.3757 -0.2738  0.4687
12956TIP3    H160359   3.832   2.233  12.019 -1.3087  0.7853 -2.5168
12956TIP3    H260360   3.766   2.097  12.031  0.2796  0.0813 -1.2620
12957TIP3   OH260361   2.291   3.393  13.442  0.2126 -0.1419  0.5645
12957TIP3    H160362   2.267   3.485  13.458  1.1142  0.1951  0.0680
12957TIP3    H260363   2.288   3.353  13.529 -0.4415  0.2962  0.7514
12958TIP3   OH260364   1.008   4.689   6.036 -0.2394  0.1254 -0.3709
12958TIP3    H160365   0.960   4.606   6.029  1.3044 -0.7969 -0.3405
12958TIP3    H260366   1.096   4.664   6.063  0.3354  1.7686 -0.6207
12959TIP3   OH260367   4.228   0.059  10.466  0.6576 -0.3142  0.6836
12959TIP3    H160368   4.238   0.128  10.401 -0.8821 -2.6595 -2.2520
12959TIP3    H260369   4.155   0.088  10.521  2.1145  1.7909  1.6722
12960TIP3   OH260370   6.795   3.530   4.199 -0.5535 -0.6401  0.0043
12960TIP3    H160371   6.859   3.494   4.137 -0.0109 -1.5572  1.0603
12960TIP3    H260372   6.711   3.494   4.171 -0.4881 -0.1903 -0.8170
12961TIP3   OH260373   3.574   0.057   2.582  0.4715 -0.3055  0.3266
12961TIP3    H160374   3.511   0.001   2.626  0.0754 -0.5988 -0.5845
12961TIP3    H260375   3.535   0.075   2.496  1.4177 -0.1348 -0.0883
12962TIP3   OH260376   1.919   1.893   1.736 -0.2387  0.6716  0.3887
12962TIP3    H160377   1.891   1.809   1.699 -0.5672  1.1167 -0.4151
12962TIP3    H260378   1.905   1.884   1.830  1.4284 -0.8148  0.5554
12963TIP3   OH260379   5.127   1.561   2.877  0.1543  0.2311  0.2899
12963TIP3    H160380   5.188   1.529   2.812  0.6475  0.8043  0.4595
12963TIP3    H260381   5.090   1.483   2.918  0.0158 -0.1262 -0.5086
12964TIP3   OH260382   2.464   4.843   5.384 -0.3817 -0.4116 -0.1928
12964TIP3    H160383   2.473   4.860   5.291  0.1472  2.0021  0.2226
12964TIP3    H260384   2.544   4.796   5.408 -1.0792 -2.1436 -1.1240
12965TIP3   OH260385   0.658   4.985   0.043 -0.2649 -0.0362 -0.4763
12965TIP3    H160386   0.578   5.010   0.090  0.0346  1.7604 -0.8440
12965TIP3    H260387   0.691   4.909   0.090 -1.6780 -0.2269  0.2589
12966TIP3   OH260388   4.216   5.307   2.208 -0.2588  0.0969 -0.6675
12966TIP3    H160389   4.166   5.388   2.200  1.0028  0.7772 -2.0357
12966TIP3    H260390   4.153   5.244   2.244 -1.6474  1.3093 -0.8630
12967TIP3   OH260391   4.427   3.615   2.797 -0.1558  0.5081 -0.4921
12967TIP3    H160392   4.457   3.573   2.716 -1.7173  1.0591 -1.3933
12967TIP3    H260393   4.417   3.707   2.775 -0.7385  0.6462  0.2859
12968TIP3   OH260394   4.546   4.153  15.527 -0.2646 -0.7163 -0.1561
12968TIP3    H160395   4.621   4.212  15.519 -0.8642  0.5924  2.6716
12968TIP3    H260396   4.471   4.203  15.495 -0.4583 -0.7287  0.2736
12969TIP3   OH260397   3.366   1.832  10.586  0.1979  0.0605 -0.2980
12969TIP3    H160398   3.314   1.752  10.575  0.3237 -0.1365  0.5314
12969TIP3    H260399   3.307   1.893  10.631  0.2186  0.3211 -0.6215
12970TIP3   OH260400   6.740   4.298  16.645 -0.3775  0.0013 -0.5235
12970TIP3    H160401   6.702   4.383  16.621  0.6078  1.0904  1.4822
12970TIP3    H260402   6.691   4.271  16.722  0.1820 -0.6201 -0.3805
12971TIP3   OH260403   4.199   1.059  10.305  0.4162  0.2636  0.3058
12971TIP3    H160404   4.238   1.110  10.376  0.5493 -0.8187  1.0375
12971TIP3    H260405   4.121   1.109  10.280  1.4675  1.7177 -0.2138
12972TIP3   OH260406   1.434   5.119   1.884 -0.1478 -0.5403  0.4601
12972TIP3    H160407   1.512   5.086   1.929 -0.3895 -1.1675  0.4213
12972TIP3    H260408   1.391   5.176   1.948  0.3182 -0.2148  0.4914
12973TIP3   OH260409   1.106   1.786  10.273  0.4121  0.2686  0.3018
12973TIP3    H160410   1.174   1.725  10.304 -0.9730 -1.5782 -0.1202
12973TIP3    H260411   1.109   1.858  10.336  1.3753 -0.7559  1.4966
12974TIP3   OH260412   6.623   0.895  11.849 -0.9249 -0.0757  1.3754
12974TIP3    H160413   6.665   0.981  11.853  0.4573 -0.7444  2.2053
12974TIP3    H260414   6.691   0.837  11.814 -2.0227 -0.7441  0.2587
12975TIP3   OH260415   3.520   5.822   0.902 -0.0983  0.7529  0.0999
12975TIP3    H160416   3.448   5.878   0.870  0.7159  2.0564  0.4569
12975TIP3    H260417   3.476   5.755   0.954 -1.0752  1.5739  0.3875
12976TIP3   OH260418   2.120   2.915   5.776  0.0892 -0.3336  0.0029
12976TIP3    H160419   2.175   2.982   5.816  0.2105 -0.0160 -0.6702
12976TIP3    H260420   2.131   2.838   5.831 -0.0965  0.2139  0.8281
12977TIP3   OH260421   1.627   6.583   1.036 -0.3283  0.1128  0.4317
12977TIP3    H160422   1.606   6.654   0.976  0.8115 -0.2075 -0.3757
12977TIP3    H260423   1.722   6.585   1.044 -0.1244 -2.1576 -0.7088
12978TIP3   OH260424   4.328   5.250   5.011  0.3699  0.9722 -0.3691
12978TIP3    H160425   4.409   5.199   5.007 -0.4039 -0.2308 -2.3676
12978TIP3    H260426   4.280   5.213   5.085  1.7558  1.9494  1.0730
12979TIP3   OH260427   3.339   2.334  14.372 -0.3782 -0.5404  0.2945
12979TIP3    H160428   3.344   2.428  14.352  0.4071 -0.6249  0.0608
12979TIP3    H260429   3.265   2.303  14.320 -0.5221 -0.0880  0.2202
12980TIP3   OH260430   4.721   6.799   4.018 -0.1430  0.2526 -0.2949
12980TIP3    H160431   4.796   6.805   3.960 -0.0625  0.3434 -0.1807
12980TIP3    H260432   4.656   6.751   3.968  0.0664 -0.0089 -0.3157
12981TIP3   OH260433   3.303   2.061  12.221  0.2338  0.4294 -0.1473
12981TIP3    H160434   3.397   2.079  12.224  0.4635 -0.3192 -1.8174
12981TIP3    H260435   3.262   2.146  12.208  0.6739  0.7361  0.4368
12982TIP3   OH260436   3.303   4.876   2.368 -0.0663 -0.3631 -0.6534
12982TIP3    H160437   3.359   4.953   2.374  0.7152 -1.0087  0.7486
12982TIP3    H260438   3.310   4.849   2.277  0.8531  0.3373 -0.8048
12983TIP3   OH260439   0.594   5.341   2.108  0.2476  0.1325 -0.2052
12983TIP3    H160440   0.667   5.400   2.091  0.7244 -0.1096  0.9375
12983TIP3    H260441   0.634   5.267   2.154 -0.7165 -0.0205  0.3942
12984TIP3   OH260442   6.810   1.588   0.500 -0.3242 -0.1714 -0.3144
12984TIP3    H160443   6.814   1.588   0.596 -0.5585 -1.2355 -0.2944
12984TIP3    H260444   6.739   1.649   0.480 -2.1152 -1.9404  0.3184
12985TIP3   OH260445   5.376   1.262   2.791  0.1998 -0.0905  0.1226
12985TIP3    H160446   5.295   1.226   2.826 -0.0769  1.2490  0.9522
12985TIP3    H260447   5.432   1.275   2.868  0.5183  0.6601 -0.2241
12986TIP3   OH260448   4.485   4.631   5.979 -0.3871  0.0433 -0.1320
12986TIP3    H160449   4.418   4.685   6.019 -1.0401 -0.0986 -0.9943
12986TIP3    H260450   4.471   4.642   5.884  2.3782  2.0070 -0.4446
12987TIP3   OH260451   6.025   1.522   5.417 -0.3691  0.1555  0.2450
12987TIP3    H160452   5.961   1.590   5.440  0.2018  0.5470  0.7013
12987TIP3    H260453   5.974   1.457   5.368 -0.7839  1.2693 -0.8630
12988TIP3   OH260454   5.207   3.477  13.065 -0.6516 -0.6706  0.6409
12988TIP3    H160455   5.279   3.420  13.037 -1.2172 -0.5797 -1.1636
12988TIP3    H260456   5.171   3.511  12.983 -1.2313  1.1938  1.6119
12989TIP3   OH260457   6.025   6.303   5.303 -0.1465 -0.0210  0.0758
12989TIP3    H160458   5.985   6.341   5.225 -0.0634 -0.5432 -0.2205
12989TIP3    H260459   5.991   6.214   5.307 -0.3351  0.0736  0.7706
12990TIP3   OH260460   0.179   4.434  11.727  0.2729  0.5584 -0.2064
12990TIP3    H160461   0.163   4.380  11.805  0.1837 -1.2694 -1.4463
12990TIP3    H260462   0.096   4.434  11.680  0.8591  0.0357 -1.2574
12991TIP3   OH260463   1.817   2.000  10.470  0.5205 -0.1886  0.1147
12991TIP3    H160464   1.731   2.034  10.491 -0.0734 -1.0604 -0.7933
12991TIP3    H260465   1.801   1.911  10.439  1.9924 -1.3894  2.4883
12992TIP3   OH260466   5.528   2.702   3.841  0.7273 -0.0340  0.0054
12992TIP3    H160467   5.531   2.655   3.757 -0.7205 -1.0006  0.4663
12992TIP3    H260468   5.619   2.704   3.870  1.1351 -0.4626 -1.1803
12993TIP3   OH260469   0.074   4.933  16.931  0.6087 -0.3905 -0.2132
12993TIP3    H160470   0.010   4.989  16.887 -0.5114 -1.0328  0.5701
12993TIP3    H260471   0.042   4.844  16.919  0.9774 -0.6748  0.7551
12994TIP3   OH260472   2.110   5.378  12.197 -0.6272 -0.9505  0.0735
12994TIP3    H160473   2.182   5.344  12.144 -0.5320  0.1512 -0.5138
12994TIP3    H260474   2.140   5.462  12.229 -1.5170 -0.6328  0.1165
12995TIP3   OH260475   0.480   0.998  10.818 -0.3004 -0.8660  0.1522
12995TIP3    H160476   0.508   1.006  10.727 -1.5013  0.0659 -0.1510
12995TIP3    H260477   0.524   1.069  10.864 -0.9603 -0.3413 -0.0237
12996TIP3   OH260478   6.134   5.675  12.172  0.7799  0.1663 -0.3999
12996TIP3    H160479   6.109   5.766  12.154 -0.9844 -0.2417 -0.1708
12996TIP3    H260480   6.219   5.665  12.129  0.2210  1.4278 -1.8912
12997TIP3   OH260481   4.601   1.226  13.678  0.1271  0.1741 -0.6871
12997TIP3    H160482   4.562   1.254  13.595 -2.2261  1.7885  0.8217
12997TIP3    H260483   4.529   1.231  13.741  1.2566 -3.1279  1.1066
12998TIP3   OH260484   5.119   6.606   2.611 -0.0351 -0.3225  0.0910
12998TIP3    H160485   5.196   6.620   2.667  0.4651 -2.0642 -0.0996
12998TIP3    H260486   5.155   6.598   2.523 -0.5114 -0.4160 -0.0984
12999TIP3   OH260487   4.974   0.323   4.900  0.3940 -0.1563  0.2476
12999TIP3    H160488   4.975   0.348   4.992  1.6864 -0.9340  0.4650
12999TIP3    H260489   5.064   0.301   4.880 -0.2785 -2.5694 -0.4948
13000TIP3   OH260490   6.563   2.675  10.290 -0.1289  0.0540 -0.2476
13000TIP3    H160491   6.570   2.581  10.271 -0.6810 -0.0244 -0.0724
13000TIP3    H260492   6.551   2.680  10.385  1.6572  0.4001  0.0005
13001TIP3   OH260493   2.276   1.843  16.244  0.4327  0.0092 -0.7953
13001TIP3    H160494   2.303   1.761  16.203  1.8371  0.7395 -1.3815
13001TIP3    H260495   2.337   1.909  16.211  0.1813  1.0567  0.6850
13002TIP3   OH260496   1.142   6.110   5.446 -0.0398  0.4611 -0.2012
13002TIP3    H160497   1.096   6.191   5.468  0.1108  1.4729 -3.1685
13002TIP3    H260498   1.230   6.139   5.422  0.7759 -0.9090  0.9730
13003TIP3   OH260499   2.486   1.129   6.031 -0.6285  0.3735  0.1618
13003TIP3    H160500   2.413   1.152   6.089 -1.1057 -3.0530  1.1215
13003TIP3    H260501   2.563   1.136   6.087 -0.9162 -1.4542  0.8277
13004TIP3   OH260502   3.355   0.424   0.507 -0.2958 -0.3850  0.0921
13004TIP3    H160503   3.384   0.509   0.541 -1.4477 -0.3294  1.0028
13004TIP3    H260504   3.428   0.365   0.523  0.2955  0.3088 -0.0139
13005TIP3   OH260505   5.421   2.505   1.559  0.2783 -0.6917  0.0879
13005TIP3    H160506   5.384   2.417   1.552  0.8301 -0.8990 -0.3076
13005TIP3    H260507   5.416   2.527   1.652 -3.3738  0.4160 -0.2240
13006TIP3   OH260508   3.379   4.354   1.638  0.0722 -0.2876 -0.2040
13006TIP3    H160509   3.353   4.290   1.572 -0.2370  0.5762 -0.9398
13006TIP3    H260510   3.325   4.431   1.620  1.3756  0.6599 -0.2040
13007TIP3   OH260511   4.676   6.721   2.878  0.0410  0.0174 -0.3241
13007TIP3    H160512   4.646   6.809   2.902  1.3695  0.1440  1.0688
13007TIP3    H260513   4.759   6.736   2.832 -0.0837 -0.4713 -0.7055
13008TIP3   OH260514   3.583   4.414  11.953 -0.8501  0.1580  0.1436
13008TIP3    H160515   3.659   4.380  11.905 -0.8286  1.0447 -0.4658
13008TIP3    H260516   3.597   4.384  12.043 -0.4144 -0.7303 -0.2086
13009TIP3   OH260517   5.584   1.625  14.481 -0.0994 -0.1480  0.3223
13009TIP3    H160518   5.561   1.714  14.454  0.6184  0.3768  1.3516
13009TIP3    H260519   5.655   1.600  14.422  0.8625  0.6488  1.0930
13010TIP3   OH260520   6.692   6.332   4.737  0.0143 -0.2739  0.5281
13010TIP3    H160521   6.637   6.266   4.695  1.3610 -2.1132  1.5267
13010TIP3    H260522   6.756   6.356   4.670 -0.3867 -0.0555  0.2125
13011TIP3   OH260523   1.644   5.591   1.326  0.0295  0.5085 -0.2399
13011TIP3    H160524   1.731   5.607   1.291  0.3578 -0.0782  0.2969
13011TIP3    H260525   1.656   5.523   1.392 -0.9751 -0.2643 -0.8130
13012TIP3   OH260526   3.091   5.898  14.726  1.0979  0.2126 -0.1944
13012TIP3    H160527   3.138   5.977  14.700  1.0433 -0.3389 -2.1334
13012TIP3    H260528   3.099   5.896  14.822  3.9031  0.8344 -0.3118
13013TIP3   OH260529   0.302   5.729  15.846  0.0942  0.8732  0.2082
13013TIP3    H160530   0.375   5.706  15.903 -0.1092 -1.1499 -0.2535
13013TIP3    H260531   0.233   5.758  15.905  0.3306  0.0675  0.9024
13014TIP3   OH260532   2.803   6.254   4.869  0.0322 -0.3981  0.1649
13014TIP3    H160533   2.714   6.255   4.903 -0.3519  1.2913 -0.7597
13014TIP3    H260534   2.857   6.284   4.942 -0.7565  2.9805 -0.4377
13015TIP3   OH260535   3.504   5.424   0.124  0.0433 -0.3661 -0.3830
13015TIP3    H160536   3.556   5.497   0.158  0.3966 -0.3515 -0.9438
13015TIP3    H260537   3.437   5.464   0.069 -1.3754 -0.2952  1.3301
13016TIP3   OH260538   1.620   6.549  11.015  0.1872 -0.0285 -0.2595
13016TIP3    H160539   1.687   6.498  11.060  1.4450  1.4861 -0.3698
13016TIP3    H260540   1.636   6.532  10.922  0.9761  0.9876 -0.3206
13017TIP3   OH260541   4.899   0.734   6.088 -0.0563 -0.1515 -0.1294
13017TIP3    H160542   4.926   0.823   6.111 -0.7433  0.0988 -0.2648
13017TIP3    H260543   4.865   0.698   6.170  0.0797 -0.2313 -0.1091
13018TIP3   OH260544   3.987   1.826  14.414 -0.5714 -0.3315 -0.4941
13018TIP3    H160545   4.082   1.814  14.407 -0.5405  0.6819 -2.5304
13018TIP3    H260546   3.950   1.740  14.395 -0.1232  0.2693 -5.0859
13019TIP3   OH260547   0.114   4.357   2.977 -0.0887  0.4013  0.3210
13019TIP3    H160548   0.103   4.266   3.003  1.5936  0.4052  1.2129
13019TIP3    H260549   0.160   4.353   2.893 -1.6537  0.4414 -0.5737
13020TIP3   OH260550   1.919   4.563   4.677  0.3398  0.5157 -0.2108
13020TIP3    H160551   1.952   4.624   4.743  1.3838 -0.9807  0.7094
13020TIP3    H260552   1.934   4.476   4.715  0.1134 -0.3644 -2.0245
13021TIP3   OH260553   0.064   3.838   3.037  0.1071  0.7949 -0.3060
13021TIP3    H160554   0.083   3.781   3.111 -0.6923  0.9799  0.0569
13021TIP3    H260555   0.132   3.818   2.972  0.7848  0.5952  0.4524
13022TIP3   OH260556   1.533   4.825  16.633  0.4809 -0.0413 -0.0835
13022TIP3    H160557   1.585   4.760  16.585 -2.0275 -0.6501 -2.1625
13022TIP3    H260558   1.486   4.873  16.565 -2.3106 -0.1063  1.6757
13023TIP3   OH260559   5.021   1.727   5.104 -0.1104 -0.2672  0.2851
13023TIP3    H160560   5.068   1.800   5.144 -0.8950  0.2824  0.2333
13023TIP3    H260561   5.016   1.749   5.011 -2.7127  1.0217  0.6315
13024TIP3   OH260562   4.988   0.450   1.283  0.0363 -0.2525  0.7194
13024TIP3    H160563   4.963   0.463   1.374  2.1959 -0.3878  1.3860
13024TIP3    H260564   5.079   0.422   1.287 -0.3479 -2.1087 -1.3890
13025TIP3   OH260565   5.441   2.111   3.408  0.4904 -0.4143  0.4942
13025TIP3    H160566   5.372   2.146   3.464  1.6822 -0.1663  1.8899
13025TIP3    H260567   5.423   2.017   3.402  1.0932 -0.7148  2.5328
13026TIP3   OH260568   2.292   3.834   4.843 -0.3307  0.6377 -0.0700
13026TIP3    H160569   2.234   3.763   4.816  1.4407 -0.9931  0.2090
13026TIP3    H260570   2.254   3.913   4.804 -3.0265 -0.2464  0.5846
13027TIP3   OH260571   5.522   3.195   6.736  0.4112 -0.6431  0.7997
13027TIP3    H160572   5.546   3.143   6.659  1.5722  0.8300  0.1122
13027TIP3    H260573   5.428   3.181   6.746  0.0982 -0.4031 -1.2610
13028TIP3   OH260574   0.382   3.462   2.901  0.0661  0.5005  0.1158
13028TIP3    H160575   0.301   3.473   2.952 -0.2917 -1.7707  0.1419
13028TIP3    H260576   0.369   3.517   2.823 -2.9449 -2.1121 -1.4434
13029TIP3   OH260577   6.666   6.481  13.412  1.0565  0.2231 -0.7546
13029TIP3    H160578   6.648   6.571  13.383  0.4940  0.4660  0.2754
13029TIP3    H260579   6.757   6.466  13.388  0.7100  0.5057 -2.3283
13030TIP3   OH260580   5.620   1.488   0.680  0.0599  0.0055  0.0291
13030TIP3    H160581   5.602   1.430   0.754 -0.1474  2.6486  2.2031
13030TIP3    H260582   5.715   1.481   0.666  0.3165  0.3636  1.4164
13031TIP3   OH260583   5.152   3.580  11.395  0.0029 -0.1486  0.5195
13031TIP3    H160584   5.135   3.509  11.333  0.7458  0.6214 -0.5867
13031TIP3    H260585   5.102   3.654  11.362  1.1924  0.5596  0.2602
13032TIP3   OH260586   2.324   5.693  15.488 -0.4472 -0.2943 -0.1010
13032TIP3    H160587   2.359   5.660  15.405 -0.8101 -0.9561  0.0022
13032TIP3    H260588   2.402   5.709  15.542 -0.2236 -0.0884 -0.4887
13033TIP3   OH260589   6.307   5.926   6.104 -0.1081 -0.2360 -0.7072
13033TIP3    H160590   6.280   5.973   6.026 -0.1985 -1.2894 -1.3320
13033TIP3    H260591   6.355   5.991   6.156  0.0839  0.4399 -1.6980
13034TIP3   OH260592   2.998   0.146  16.159  0.5715  0.6115  0.1081
13034TIP3    H160593   2.916   0.097  16.159  0.2491  1.1446 -0.1391
13034TIP3    H260594   3.059   0.090  16.208  0.3348 -0.2247 -0.5335
13035TIP3   OH260595   4.953   0.730   0.305  0.2419 -0.3455 -0.2251
13035TIP3    H160596   4.985   0.640   0.296  0.2148 -0.3658 -0.1173
13035TIP3    H260597   4.865   0.721   0.341  0.2316 -0.2763 -0.2330
13036TIP3   OH260598   0.026   5.502  16.964 -0.2563  0.3960 -0.5663
13036TIP3    H160599   0.043   5.541  17.050 -2.7058 -0.8383  0.6070
13036TIP3    H260600   0.112   5.477  16.931  0.7515  0.7202  1.6359
13037TIP3   OH260601   6.458   0.162  12.189 -0.1846 -0.4529  0.6709
13037TIP3    H160602   6.505   0.084  12.161  3.8031  2.2465 -1.1516
13037TIP3    H260603   6.468   0.165  12.284 -0.8932 -2.3342  0.8341
13038TIP3   OH260604   5.769   0.158   3.814  0.1731  0.2324  0.0185
13038TIP3    H160605   5.822   0.223   3.860  1.2572 -2.3385  2.6780
13038TIP3    H260606   5.825   0.127   3.743 -0.8827  3.0097 -2.2413
13039TIP3   OH260607   2.480   4.023   4.163  0.2136  0.4023 -0.3874
13039TIP3    H160608   2.465   4.114   4.138 -0.9086 -0.1868 -2.0055
13039TIP3    H260609   2.392   3.985   4.165  0.5761 -0.4486  1.2043
13040TIP3   OH260610   2.625   2.888   0.804 -0.6043  0.8529  0.5913
13040TIP3    H160611   2.582   2.841   0.733 -0.5711  1.3322  0.2471
13040TIP3    H260612   2.571   2.870   0.881  0.0237 -0.6593  0.7172
13041TIP3   OH260613   5.316   4.149   0.707  0.3843  0.0422  0.5016
13041TIP3    H160614   5.257   4.218   0.737  1.2341  1.6235 -1.2180
13041TIP3    H260615   5.259   4.078   0.680 -0.7247  1.2170 -0.3652
13042TIP3   OH260616   3.435   3.068   2.401 -0.7317  0.5836  0.3113
13042TIP3    H160617   3.401   3.034   2.483 -2.3225  0.5023 -0.3375
13042TIP3    H260618   3.435   3.163   2.412 -1.4229  0.5987  0.2497
13043TIP3   OH260619   4.334   2.208   3.397 -0.4071  0.1337 -0.6704
13043TIP3    H160620   4.302   2.296   3.378  0.2795  0.2268 -1.4579
13043TIP3    H260621   4.262   2.165   3.443 -0.5731  1.2585  0.1503
13044TIP3   OH260622   5.799   5.955  12.609  0.0127  0.2234  0.2864
13044TIP3    H160623   5.822   5.997  12.691 -0.2792 -2.0510  1.6057
13044TIP3    H260624   5.882   5.925  12.572 -0.0757 -1.2747  1.2330
13045TIP3   OH260625   4.665   2.688  16.567  0.0399 -0.1938 -0.0521
13045TIP3    H160626   4.622   2.770  16.590  1.0351  0.3439 -0.0317
13045TIP3    H260627   4.715   2.665  16.645 -0.1161 -0.7484 -0.1117
13046TIP3   OH260628   5.158   1.906   2.559 -0.0326 -0.7816  0.2063
13046TIP3    H160629   5.082   1.913   2.616 -0.1300  0.6191 -0.0444
13046TIP3    H260630   5.166   1.993   2.518  1.9900 -0.7134  0.6094
13047TIP3   OH260631   1.990   0.851   0.142 -0.3220  0.4475  0.2124
13047TIP3    H160632   2.002   0.924   0.204  0.4517 -0.4656  1.1739
13047TIP3    H260633   2.045   0.875   0.067 -0.0181  0.8219  0.5469
13048TIP3   OH260634   2.839   5.990  12.695 -0.1765 -0.1067 -0.3312
13048TIP3    H160635   2.903   6.005  12.764 -0.8641  0.2752  0.2338
13048TIP3    H260636   2.890   5.993  12.614  1.0157 -2.5751  0.2250
13049TIP3   OH260637   4.399   4.352  14.147  0.6042  0.1178 -0.1445
13049TIP3    H160638   4.440   4.311  14.223  3.6191  1.8904 -0.6560
13049TIP3    H260639   4.447   4.317  14.072 -0.3227  0.6338 -1.0111
13050TIP3   OH260640   0.672   3.440  12.230 -0.2151 -0.1108  0.1160
13050TIP3    H160641   0.754   3.490  12.225 -0.7941  0.8044 -0.3469
13050TIP3    H260642   0.623   3.482  12.300 -1.8727  1.7773 -2.0602
13051TIP3   OH260643   5.060   5.767  14.882 -0.5032  0.1252 -0.4142
13051TIP3    H160644   5.047   5.827  14.809  0.4151  1.6323  0.6046
13051TIP3    H260645   5.083   5.823  14.956 -1.6244 -1.3228  1.1224
13052TIP3   OH260646   5.023   6.633  10.839  0.2938  0.6416 -0.2556
13052TIP3    H160647   5.018   6.539  10.859 -0.0581  0.6094 -0.4891
13052TIP3    H260648   4.995   6.675  10.920  1.6241  0.5825  0.2613
13053TIP3   OH260649   4.588   1.232  12.024 -0.3266 -0.3136 -0.8109
13053TIP3    H160650   4.518   1.243  12.088  0.6468 -0.3842  0.3094
13053TIP3    H260651   4.593   1.316  11.979 -0.3003  0.1147 -0.0257
13054TIP3   OH260652   0.689   5.344  15.566 -0.1634  0.3580  0.1117
13054TIP3    H160653   0.757   5.392  15.615  0.2401  2.2044 -2.0697
13054TIP3    H260654   0.610   5.397  15.577 -0.5299 -0.2036  0.2362
13055TIP3   OH260655   4.329   2.119   4.308 -0.7836 -0.4886  0.3682
13055TIP3    H160656   4.244   2.121   4.265  0.2468  0.3128 -1.8259
13055TIP3    H260657   4.350   2.211   4.325 -0.6849 -0.7297  1.6064
13056TIP3   OH260658   5.892   3.274  12.950  0.3945  0.3535  0.1635
13056TIP3    H160659   5.947   3.278  13.028  1.4635 -1.3572 -0.4736
13056TIP3    H260660   5.802   3.283  12.984  0.9273  1.3852  1.3778
13057TIP3   OH260661   6.470   3.592  14.185 -0.1711 -0.3959  0.2489
13057TIP3    H160662   6.521   3.542  14.122  2.9741  1.4342  1.1239
13057TIP3    H260663   6.474   3.541  14.266  0.0785 -0.3490  0.2654
13058TIP3   OH260664   1.335   5.050   2.890 -0.7730 -0.2625 -0.0769
13058TIP3    H160665   1.245   5.018   2.903 -0.9859  0.4013  0.1441
13058TIP3    H260666   1.330   5.105   2.812 -0.4397 -0.6538 -0.3777
13059TIP3   OH260667   1.317   3.259  14.593 -0.1584 -0.0108  0.4129
13059TIP3    H160668   1.287   3.253  14.684  0.3816  2.3059  0.8113
13059TIP3    H260669   1.413   3.257  14.600 -0.1035 -2.3156 -0.3742
13060TIP3   OH260670   6.619   1.006   4.297 -0.0236 -0.3958 -0.1192
13060TIP3    H160671   6.691   1.068   4.296  0.0139 -0.4416 -0.3430
13060TIP3    H260672   6.611   0.977   4.206 -2.0909  1.6347 -0.6830
13061TIP3   OH260673   1.600   6.653  14.312 -0.6142 -0.4505 -0.5155
13061TIP3    H160674   1.680   6.620  14.354 -0.3063  0.5248 -0.3054
13061TIP3    H260675   1.543   6.576  14.306 -0.1158 -0.9142  0.4132
13062TIP3   OH260676   0.185   2.118  14.592 -0.1474  0.5774 -0.3524
13062TIP3    H160677   0.147   2.140  14.507  3.1800  1.2245 -1.8249
13062TIP3    H260678   0.251   2.185  14.607  0.0069 -0.0648  2.3658
13063TIP3   OH260679   5.961   5.371   6.056 -0.1325 -0.0819  0.1086
13063TIP3    H160680   5.946   5.442   5.993 -1.3709 -0.0690  0.4041
13063TIP3    H260681   5.926   5.404   6.138 -0.1935 -0.8204  0.3812
13064TIP3   OH260682   3.561   6.018  12.412  0.1581  0.0457  0.8876
13064TIP3    H160683   3.647   5.977  12.413  0.5289  0.7884  0.3705
13064TIP3    H260684   3.500   5.947  12.430  0.6320 -1.0649 -1.5768
13065TIP3   OH260685   2.187   2.736   0.802  0.3174 -0.1744 -0.1318
13065TIP3    H160686   2.194   2.706   0.893 -1.4852 -1.3664 -0.3257
13065TIP3    H260687   2.120   2.804   0.804 -0.3629 -0.8047 -0.6600
13066TIP3   OH260688   2.933   5.191   1.885 -0.8978 -0.2820  0.6251
13066TIP3    H160689   2.884   5.122   1.839 -0.8803 -2.4875  3.5517
13066TIP3    H260690   2.956   5.254   1.817 -2.4601 -2.2686 -1.9579
13067TIP3   OH260691   4.426   4.516   1.714  0.2268 -0.2740 -0.7024
13067TIP3    H160692   4.522   4.509   1.714  0.2799  0.2624  0.2976
13067TIP3    H260693   4.406   4.566   1.793 -0.9207 -0.8617 -0.6133
13068TIP3   OH260694   5.985   1.836  17.031 -0.7112 -0.0778 -0.2151
13068TIP3    H160695   6.033   1.915  17.009 -1.4987  0.7137  0.7863
13068TIP3    H260696   5.895   1.855  17.007 -0.6059 -1.4543 -1.8501
13069TIP3   OH260697   0.028   6.164   5.641  0.1828  0.1060  0.2419
13069TIP3    H160698  -0.060   6.193   5.665  0.9032  1.3005  1.5579
13069TIP3    H260699   0.086   6.207   5.704  1.7797 -0.1823 -0.9689
13070TIP3   OH260700   1.092   1.541  14.495  0.7946  0.4025 -0.3497
13070TIP3    H160701   1.107   1.453  14.462 -0.7081  0.8528 -2.4238
13070TIP3    H260702   1.129   1.599  14.427  1.5039  1.3947  0.8374
13071TIP3   OH260703   1.488   3.091  12.897  0.1472  0.6058  0.1015
13071TIP3    H160704   1.494   3.185  12.915 -0.3410  0.6339  0.1169
13071TIP3    H260705   1.465   3.086  12.804 -1.2493  0.5329  0.4331
13072TIP3   OH260706   6.132   2.836   5.291 -0.1112 -0.1481 -0.1105
13072TIP3    H160707   6.084   2.847   5.209  0.5288  1.4281 -0.3076
13072TIP3    H260708   6.220   2.812   5.264 -0.8210 -3.8223  0.2643
13073TIP3   OH260709   4.080   1.455   2.561  0.2781 -0.1045 -0.3582
13073TIP3    H160710   4.089   1.496   2.647 -1.3988  0.2511 -0.3012
13073TIP3    H260711   4.099   1.363   2.576 -3.0717 -0.6944  1.1705
13074TIP3   OH260712   1.534   0.503   4.244  0.3583  0.4271  0.0907
13074TIP3    H160713   1.604   0.447   4.212 -0.5455 -0.6923  0.0275
13074TIP3    H260714   1.576   0.589   4.254  1.9374 -0.3655  0.7791
13075TIP3   OH260715   1.844   3.542  14.348 -0.1444  0.6073  0.1426
13075TIP3    H160716   1.850   3.491  14.428  2.6627 -0.8828 -0.8747
13075TIP3    H260717   1.831   3.477  14.279 -2.4373  1.8489 -0.6863
13076TIP3   OH260718   3.009   6.492  13.006  0.0963  0.0279  0.2163
13076TIP3    H160719   3.044   6.430  12.942  2.1164 -0.1317  1.3903
13076TIP3    H260720   2.918   6.506  12.978  0.8897  0.0734 -2.7267
13077TIP3   OH260721   6.492   4.554   3.667 -0.4181  0.0810 -0.4445
13077TIP3    H160722   6.419   4.576   3.609  0.0979  1.6428 -0.5365
13077TIP3    H260723   6.559   4.519   3.609 -0.7273 -0.4827 -0.4754
13078TIP3   OH260724   4.352   2.118   2.901 -0.4081  0.1419 -0.0513
13078TIP3    H160725   4.261   2.092   2.886 -0.2965 -0.3259  0.0734
13078TIP3    H260726   4.345   2.202   2.948 -0.7611  0.8203 -1.2842
13079TIP3   OH260727   4.578   0.492  14.693 -0.0856  0.0112  0.1711
13079TIP3    H160728   4.489   0.514  14.666  0.0746 -0.6456 -0.9805
13079TIP3    H260729   4.568   0.457  14.781 -0.9336  0.2314  0.1743
13080TIP3   OH260730   5.586   0.836   2.441  0.2964  0.4846 -0.1019
13080TIP3    H160731   5.662   0.849   2.385  0.8648 -1.3898  0.1896
13080TIP3    H260732   5.511   0.840   2.381  0.8236 -0.4315 -0.8344
13081TIP3   OH260733   1.861   1.533   4.653 -0.2773 -0.4905  0.6003
13081TIP3    H160734   1.779   1.485   4.659 -0.1618 -0.7290  0.2791
13081TIP3    H260735   1.837   1.623   4.676 -1.0446 -0.1227 -1.4199
13082TIP3   OH260736   4.457   1.920  14.315 -0.0992  0.7560  0.7229
13082TIP3    H160737   4.390   1.970  14.269 -0.9598  0.3493  1.5203
13082TIP3    H260738   4.533   1.923  14.256 -1.3461 -0.2997 -1.0549
13083TIP3   OH260739   4.021   3.380  12.322  0.0991 -0.2497 -0.2307
13083TIP3    H160740   4.103   3.329  12.318  0.4787  0.0856  1.9809
13083TIP3    H260741   4.033   3.450  12.258  1.2478 -0.6305 -0.4601
13084TIP3   OH260742   1.639   3.700   5.992  0.2687 -0.2390  0.9668
13084TIP3    H160743   1.734   3.709   5.989  0.2516 -0.2084  0.3709
13084TIP3    H260744   1.606   3.766   5.931 -0.1316 -0.3369  1.0699
13085TIP3   OH260745   5.767   5.663   4.949 -0.0711 -0.5586  0.7504
13085TIP3    H160746   5.726   5.635   5.031 -0.4092 -1.7210  0.2058
13085TIP3    H260747   5.813   5.586   4.918  1.9407  0.4975  0.9444
13086TIP3   OH260748   0.587   0.630  13.079 -0.0627 -0.1303 -0.3170
13086TIP3    H160749   0.567   0.558  13.020 -2.1414 -0.2098  0.3875
13086TIP3    H260750   0.568   0.709  13.028 -1.0947 -0.1832 -0.0392
13087TIP3   OH260751   5.516   2.878   2.289 -0.1487  0.2773 -0.3824
13087TIP3    H160752   5.488   2.853   2.377  0.0376 -0.6198 -0.5657
13087TIP3    H260753   5.522   2.973   2.292  3.8464  0.1869  1.8407
13088TIP3   OH260754   2.308   1.277   3.721 -1.0701 -0.1889  0.3577
13088TIP3    H160755   2.344   1.290   3.633 -0.9191  0.7165  0.5405
13088TIP3    H260756   2.340   1.191   3.747  0.4795  0.3336  0.2730
13089TIP3   OH260757   4.839   3.346  12.417 -0.1203  0.5586  0.1399
13089TIP3    H160758   4.930   3.342  12.444  0.4635  3.5424 -0.9450
13089TIP3    H260759   4.789   3.316  12.493  1.7143  0.2308  1.2649
13090TIP3   OH260760   3.819   0.746   2.991  0.4812 -0.0919  0.3126
13090TIP3    H160761   3.861   0.783   3.069 -1.1517  0.7835  0.8217
13090TIP3    H260762   3.834   0.651   2.999  2.5402  0.1821  0.3062
13091TIP3   OH260763   5.752   4.033  13.176 -0.5082  0.0277 -0.0588
13091TIP3    H160764   5.763   3.939  13.195 -0.8140  0.1349  0.6582
13091TIP3    H260765   5.742   4.036  13.081 -1.0487 -0.7268 -0.0401
13092TIP3   OH260766   2.527   4.012   5.559 -0.7278  0.6614 -0.3545
13092TIP3    H160767   2.456   3.950   5.545 -1.9980  2.1061 -0.6149
13092TIP3    H260768   2.519   4.037   5.651 -0.1733  0.3890 -0.2298
13093TIP3   OH260769   4.159   2.698  13.918  0.0584 -0.6960 -0.1004
13093TIP3    H160770   4.071   2.677  13.948  0.6152 -2.0642  0.6788
13093TIP3    H260771   4.215   2.631  13.957  1.3578 -0.2735 -1.1266
13094TIP3   OH260772   1.405   5.311  16.864 -0.0628  0.3306  0.5838
13094TIP3    H160773   1.413   5.252  16.940  0.8205 -2.7104 -1.6608
13094TIP3    H260774   1.496   5.336  16.845 -0.2594  0.8660  0.3578
13095TIP3   OH260775   2.307   6.121   2.774 -0.4963 -0.0999  0.0242
13095TIP3    H160776   2.249   6.045   2.776  0.2880 -0.8879 -2.6206
13095TIP3    H260777   2.394   6.085   2.789 -0.2104  0.3695 -0.4702
13096TIP3   OH260778   1.624   4.147  15.617 -0.0176 -0.0372 -0.7760
13096TIP3    H160779   1.541   4.142  15.665  0.4026  0.7861  0.0630
13096TIP3    H260780   1.637   4.240  15.602  0.4389 -0.2113 -1.4855
13097TIP3   OH260781   2.357   5.109  13.305  0.3237  0.5273  0.0942
13097TIP3    H160782   2.413   5.187  13.306  0.4941  0.4980 -2.0185
13097TIP3    H260783   2.419   5.035  13.311  0.3493  0.5227 -0.2245
13098TIP3   OH260784   3.834   5.441   3.651  0.2477 -0.4286 -0.1757
13098TIP3    H160785   3.884   5.506   3.602  2.8224 -2.1497 -0.0415
13098TIP3    H260786   3.755   5.487   3.678  1.0883  2.0696 -1.6063
13099TIP3   OH260787   2.145   6.579  11.370  0.0581 -0.7795  0.1664
13099TIP3    H160788   2.059   6.538  11.369  0.3184 -1.3729  0.8375
13099TIP3    H260789   2.183   6.560  11.284 -0.8499  0.3312 -0.5057
13100TIP3   OH260790   1.680   0.393  12.649 -0.1200  0.6603 -0.1690
13100TIP3    H160791   1.757   0.391  12.706 -0.1551  4.4544  0.2540
13100TIP3    H260792   1.611   0.353  12.702  1.0326 -0.7633  0.3193
13101TIP3   OH260793   4.147   1.905  13.997 -0.3478  0.1997  0.2871
13101TIP3    H160794   4.222   1.883  13.941  0.3817 -1.5313  1.8636
13101TIP3    H260795   4.074   1.917  13.935  0.7530 -0.1445 -1.1283
13102TIP3   OH260796   0.919   1.022   0.414 -0.2290 -0.1577  0.2601
13102TIP3    H160797   0.936   0.930   0.435  0.8849  0.0036  0.1063
13102TIP3    H260798   0.989   1.070   0.457 -1.0661  0.6741  0.7269
13103TIP3   OH260799   0.099   0.888   0.234 -0.2210 -0.5986 -0.3865
13103TIP3    H160800   0.075   0.912   0.324 -1.7197  1.9967 -1.3589
13103TIP3    H260801   0.015   0.876   0.190  0.4976 -1.9094 -1.4627
13104TIP3   OH260802   2.316   4.512  11.862 -0.3408 -0.3025  0.4904
13104TIP3    H160803   2.349   4.464  11.938 -0.7233 -1.3279  0.0350
13104TIP3    H260804   2.348   4.462  11.786 -1.3048 -0.2306  0.0183
13105TIP3   OH260805   3.654   0.355   4.144 -0.1072  0.0420 -0.1907
13105TIP3    H160806   3.727   0.326   4.089 -1.6207 -0.6165 -1.9941
13105TIP3    H260807   3.618   0.274   4.181 -0.1162  0.3280  0.4314
13106TIP3   OH260808   3.207   5.376   0.805  0.2457  0.5854  0.5780
13106TIP3    H160809   3.176   5.465   0.786 -0.2207  0.0212 -1.5228
13106TIP3    H260810   3.301   5.379   0.785 -0.0902  0.2044 -1.1775
13107TIP3   OH260811   0.606   1.579   0.553  0.5471  0.3393  0.5888
13107TIP3    H160812   0.579   1.488   0.554  2.3158 -0.2212  0.2913
13107TIP3    H260813   0.571   1.613   0.471 -1.3441  0.3596  1.3643
13108TIP3   OH260814   5.665   0.660  12.904 -0.1909 -0.1004  0.1662
13108TIP3    H160815   5.605   0.595  12.867 -1.5910  1.3220 -0.2317
13108TIP3    H260816   5.607   0.722  12.949  1.2284 -0.0496  2.0291
13109TIP3   OH260817   1.147   6.354  13.580  0.8203 -0.2543 -0.3690
13109TIP3    H160818   1.109   6.429  13.536  1.7354  0.0827 -0.6061
13109TIP3    H260819   1.194   6.307  13.511  2.4800  0.4134  0.2502
13110TIP3   OH260820   4.786   4.220   3.190 -0.1149  0.3296  0.0300
13110TIP3    H160821   4.801   4.298   3.244  0.1682  0.8322 -0.7576
13110TIP3    H260822   4.727   4.165   3.242  0.2091  0.7693  0.8760
13111TIP3   OH260823   4.994   1.729  12.049  0.2546 -0.0846  0.2475
13111TIP3    H160824   4.938   1.755  11.976  0.7994 -0.0539 -0.1635
13111TIP3    H260825   5.064   1.795  12.050  0.0764  0.1110  1.0034
13112TIP3   OH260826   1.554   5.060   1.489  0.0957 -0.4050 -0.1183
13112TIP3    H160827   1.554   5.134   1.428  1.3218 -0.6183 -0.3849
13112TIP3    H260828   1.468   5.020   1.478  0.6205 -1.0203 -2.4093
13113TIP3   OH260829   3.506   0.192   0.553  0.0657  0.3532 -0.1750
13113TIP3    H160830   3.578   0.232   0.602  0.4532 -0.8070  0.2446
13113TIP3    H260831   3.535   0.102   0.537 -1.4890 -0.2988  0.4440
13114TIP3   OH260832   2.769   5.189  14.641 -0.0741  0.7802  0.1945
13114TIP3    H160833   2.752   5.112  14.697 -0.7882 -0.2145 -1.3178
13114TIP3    H260834   2.721   5.260  14.684  0.0838  0.2484  1.2919
13115TIP3   OH260835   1.290   4.637   3.140 -0.2258  0.6472  0.4946
13115TIP3    H160836   1.321   4.570   3.201 -0.2143  0.9283  0.7981
13115TIP3    H260837   1.352   4.708   3.149  0.6037  0.1310 -0.8964
13116TIP3   OH260838   3.550   0.026  14.690 -0.7223  0.2371 -0.6397
13116TIP3    H160839   3.552   0.004  14.783  3.4290 -0.3042 -0.6499
13116TIP3    H260840   3.579   0.117  14.686 -0.9696  0.2898 -1.4020
13117TIP3   OH260841   3.425   4.982   3.753  0.8063  0.0538  0.2391
13117TIP3    H160842   3.459   5.053   3.697  1.8646  0.9767  1.9625
13117TIP3    H260843   3.498   4.961   3.811 -0.0861 -1.2444  0.9264
13118TIP3   OH260844   5.311   4.070  11.453  0.0465 -0.3930  0.5858
13118TIP3    H160845   5.405   4.085  11.442 -0.3297  1.3185 -0.7428
13118TIP3    H260846   5.304   3.975  11.466  1.9662 -0.5257  1.0045
13119TIP3   OH260847   3.207   0.399  12.143 -0.5729  0.2586  0.7885
13119TIP3    H160848   3.195   0.306  12.123 -1.3124  0.3382  0.8392
13119TIP3    H260849   3.275   0.428  12.082 -2.2054  0.3078 -1.1214
13120TIP3   OH260850   1.611   1.165  14.804 -0.0689  0.5940 -0.0881
13120TIP3    H160851   1.631   1.239  14.861 -1.5710  1.3399 -0.4740
13120TIP3    H260852   1.515   1.164  14.800 -0.0276 -0.5071 -1.2175
13121TIP3   OH260853   5.028   0.583   4.950  0.3048  0.1361 -0.5467
13121TIP3    H160854   4.938   0.601   4.975  0.6645  1.6380 -0.2343
13121TIP3    H260855   5.021   0.518   4.880 -0.8591 -1.7310  1.1990
13122TIP3   OH260856   0.060   3.969  13.375 -0.1678  0.1797  0.0809
13122TIP3    H160857   0.062   4.050  13.323  1.3440 -1.1322 -2.0704
13122TIP3    H260858  -0.001   3.912  13.329  2.0228 -1.4155 -1.0249
13123TIP3   OH260859   5.184   4.981   4.977  0.4437  0.2760  0.9251
13123TIP3    H160860   5.195   5.075   4.965 -1.6178  0.7017  1.8963
13123TIP3    H260861   5.167   4.947   4.889 -0.8365  1.1688  0.7918
13124TIP3   OH260862   1.997   5.615   2.594 -0.0841  0.4347 -0.5219
13124TIP3    H160863   1.947   5.541   2.559  2.2641 -2.3764  1.5567
13124TIP3    H260864   1.937   5.656   2.656 -1.7743  1.0079 -2.4040
13125TIP3   OH260865   3.404   3.975   1.687 -0.4577  0.2794 -0.1349
13125TIP3    H160866   3.389   4.063   1.652  0.2315  1.0985  1.5242
13125TIP3    H260867   3.332   3.923   1.652 -3.3868  2.4660  2.0966
13126TIP3   OH260868   4.083   0.026   5.278  0.3107 -0.2029 -0.4349
13126TIP3    H160869   3.997   0.062   5.302  0.7576 -0.1877  1.2808
13126TIP3    H260870   4.085  -0.060   5.321  0.6655 -0.7540 -1.5293
13127TIP3   OH260871   5.809   0.144   5.640 -0.9027  0.0060 -0.1252
13127TIP3    H160872   5.841   0.146   5.550 -2.0641 -1.4376 -0.6154
13127TIP3    H260873   5.842   0.061   5.675 -1.1398  0.1791  0.5225
13128TIP3   OH260874   1.320   2.517   0.316  0.2940 -0.2486 -0.1423
13128TIP3    H160875   1.281   2.553   0.237  0.5346  0.0948 -0.1094
13128TIP3    H260876   1.247   2.482   0.366 -0.0386  0.7925  0.1327
13129TIP3   OH260877   0.629   4.166  10.761  0.4343 -0.0320 -0.6500
13129TIP3    H160878   0.717   4.184  10.794  0.5457 -0.7700 -0.5175
13129TIP3    H260879   0.642   4.101  10.692 -0.1289 -1.5981  0.6301
13130TIP3   OH260880   0.087   1.219   4.064 -0.1763 -0.7841  0.2259
13130TIP3    H160881   0.067   1.141   4.013  1.6858 -0.6630 -0.7562
13130TIP3    H260882   0.182   1.229   4.058 -0.3342  1.4342  0.4953
13131TIP3   OH260883   1.103   4.804  13.881  0.5356  0.2953 -0.5205
13131TIP3    H160884   1.147   4.724  13.910 -0.8378 -0.3952 -0.2642
13131TIP3    H260885   1.048   4.775  13.807 -1.2055  0.6397  0.5865
13132TIP3   OH260886   2.816   4.608  14.515 -0.5467 -0.2074 -0.0414
13132TIP3    H160887   2.904   4.643  14.526  0.0893 -2.1545  1.7932
13132TIP3    H260888   2.810   4.587  14.422  0.0829  1.8902 -0.6197
13133TIP3   OH260889   3.764   5.389   4.034  0.3690  0.5131  0.0886
13133TIP3    H160890   3.740   5.334   3.960  0.5360 -0.0628  0.4534
13133TIP3    H260891   3.717   5.472   4.019 -0.4182  0.0399 -0.1262
13134TIP3   OH260892   6.083   3.051  15.664  0.3275 -0.0495 -0.5568
13134TIP3    H160893   6.039   2.979  15.709 -0.9411  0.0098 -1.6501
13134TIP3    H260894   6.146   3.084  15.728  0.1363 -1.3894  0.3683
13135TIP3   OH260895   2.554   2.679  11.423  0.3857  0.1042  0.5374
13135TIP3    H160896   2.615   2.723  11.483  0.1211  1.4264 -0.1180
13135TIP3    H260897   2.572   2.720  11.338 -0.5149 -0.4326  0.0801
13136TIP3   OH260898   3.165   2.107  17.032 -0.3806  0.6487  0.2431
13136TIP3    H160899   3.215   2.188  17.032  0.5475  0.0810  0.3401
13136TIP3    H260900   3.134   2.098  16.942 -0.5496  1.1444  0.2491
13137TIP3   OH260901   5.481   1.708   1.241 -0.3807  0.0393 -0.6876
13137TIP3    H160902   5.404   1.681   1.290 -0.2851  0.8441 -0.0683
13137TIP3    H260903   5.491   1.642   1.173  0.0297 -1.6532  0.9357
13138TIP3   OH260904   6.529   0.052   6.399  0.4637 -0.0630 -0.7440
13138TIP3    H160905   6.509   0.140   6.366  0.9424  0.4304  0.2332
13138TIP3    H260906   6.472  -0.006   6.349  0.0464  0.8190 -1.3165
13139TIP3   OH260907   5.625   5.621   4.517  0.3326 -0.8885 -0.2917
13139TIP3    H160908   5.709   5.666   4.529 -0.1316 -0.0549 -0.0887
13139TIP3    H260909   5.601   5.592   4.604 -0.7523  1.0237  0.0998
13140TIP3   OH260910   6.418   6.443  11.485 -0.0349  0.4859  0.7789
13140TIP3    H160911   6.361   6.384  11.436 -0.2951 -0.6931  2.4316
13140TIP3    H260912   6.378   6.529  11.476 -0.4657  0.1739 -0.4590
13141TIP3   OH260913   0.387   3.683   5.213 -0.3333  0.3008 -0.3172
13141TIP3    H160914   0.340   3.739   5.151  1.3372  1.8713 -0.2433
13141TIP3    H260915   0.446   3.631   5.159 -0.2509  0.2759 -0.2054
13142TIP3   OH260916   4.233   6.015   1.351 -0.5540  0.2635 -0.4235
13142TIP3    H160917   4.147   6.023   1.309 -0.9435  0.9001  0.4719
13142TIP3    H260918   4.248   6.100   1.392  0.3542  0.0459 -0.2809
13143TIP3   OH260919   4.345   0.534  12.464 -0.1177  0.3037  0.3186
13143TIP3    H160920   4.388   0.469  12.519 -0.8477 -0.3325  0.1611
13143TIP3    H260921   4.274   0.568  12.518 -0.0443  0.6032  0.2268
13144TIP3   OH260922   0.575   4.292  10.503 -0.0932 -0.3167 -0.0120
13144TIP3    H160923   0.540   4.320  10.587  0.9111 -0.0237  0.3204
13144TIP3    H260924   0.542   4.203  10.492  2.1119 -1.5031  2.1000
13145TIP3   OH260925   4.478   3.904   5.088 -0.2316 -0.7245  0.6403
13145TIP3    H160926   4.524   3.853   5.154  0.7403 -1.7191 -0.7527
13145TIP3    H260927   4.501   3.995   5.106  1.3222 -1.1155  0.7110
13146TIP3   OH260928   4.794   6.558  11.508 -0.3230 -0.3612 -0.3370
13146TIP3    H160929   4.873   6.523  11.550 -0.9449 -1.7149 -0.2388
13146TIP3    H260930   4.729   6.560  11.579 -0.7119 -0.4049 -0.6916
13147TIP3   OH260931   6.464   0.688  15.047  0.3870 -0.0480 -0.4781
13147TIP3    H160932   6.472   0.774  15.088 -0.8097 -0.4299  0.6252
13147TIP3    H260933   6.502   0.628  15.111  0.8104 -0.3966 -1.0486
13148TIP3   OH260934   5.985   1.084   0.352  0.2044  0.5878  0.1384
13148TIP3    H160935   5.992   1.157   0.291 -0.9682  1.3364  0.8721
13148TIP3    H260936   5.919   1.026   0.314  0.1188  0.6068  0.2581
13149TIP3   OH260937   0.247   1.051  16.109  0.5045  0.1720  0.4274
13149TIP3    H160938   0.175   0.999  16.073  0.4144 -0.2419  1.1759
13149TIP3    H260939   0.271   1.111  16.039 -0.1875 -0.0785 -0.0355
13150TIP3   OH260940   6.511   3.105   2.962 -0.0767 -0.0256 -0.1961
13150TIP3    H160941   6.477   3.031   3.014 -1.5901 -0.7207 -2.0595
13150TIP3    H260942   6.439   3.168   2.961  0.1685  0.2473 -0.9018
13151TIP3   OH260943   6.030   5.619   2.176  0.2476 -0.3231  0.1072
13151TIP3    H160944   5.997   5.622   2.265  0.3627 -0.7578  0.1638
13151TIP3    H260945   6.072   5.704   2.163 -0.1822 -0.0808  0.3057
13152TIP3   OH260946   6.232   0.957   2.163 -0.3063  0.4956  0.0316
13152TIP3    H160947   6.248   1.001   2.247 -1.5835  2.7157 -0.7996
13152TIP3    H260948   6.243   0.864   2.182 -0.0189  0.9657  2.5245
13153TIP3   OH260949   0.679   2.684   3.664  0.6286  0.0927  0.1964
13153TIP3    H160950   0.659   2.777   3.666  1.0484  0.2455 -1.4186
13153TIP3    H260951   0.775   2.680   3.669  0.6313 -0.2333 -0.0721
13154TIP3   OH260952   6.773   5.374   1.457 -0.5895  0.5431 -0.0564
13154TIP3    H160953   6.867   5.383   1.445  0.3669 -3.6015  2.2609
13154TIP3    H260954   6.751   5.292   1.412 -2.6805  0.4213  1.0627
13155TIP3   OH260955   6.311   1.305   6.330 -0.0552 -0.3953 -0.3673
13155TIP3    H160956   6.347   1.244   6.265 -1.4770 -1.8442  0.1252
13155TIP3    H260957   6.248   1.252   6.379  0.3505  0.8947  1.6335
13156TIP3   OH260958   0.396   3.964  15.113  0.2569  0.2238  0.4924
13156TIP3    H160959   0.318   3.991  15.160  1.3619 -1.5238  3.6018
13156TIP3    H260960   0.377   3.874  15.085 -0.0306  0.9225 -1.8106
13157TIP3   OH260961   1.161   2.776  12.997  0.2535 -0.1565 -0.2302
13157TIP3    H160962   1.147   2.696  12.946  0.9182  0.1179 -0.8547
13157TIP3    H260963   1.226   2.751  13.063 -1.1185 -0.7053  0.9761
13158TIP3   OH260964   3.028   0.947  12.532 -0.0619  0.0994 -0.4274
13158TIP3    H160965   3.050   0.959  12.440 -1.8688 -1.4552 -1.1277
13158TIP3    H260966   3.005   1.035  12.563 -0.5552  0.4805 -1.7868
13159TIP3   OH260967   4.306   4.235  11.669 -0.3158  0.9566  0.1399
13159TIP3    H160968   4.366   4.232  11.743  0.6524 -1.2370 -0.6528
13159TIP3    H260969   4.321   4.322  11.630  0.1173  1.6187  1.6830
13160TIP3   OH260970   4.686   3.575   4.665  0.4930 -0.6785  0.3277
13160TIP3    H160971   4.615   3.585   4.602  1.3073 -0.4994 -0.5910
13160TIP3    H260972   4.717   3.664   4.680  1.8835 -0.9136 -0.9172
13161TIP3   OH260973   3.689   2.131   1.592 -0.0024 -0.1909 -0.0808
13161TIP3    H160974   3.753   2.116   1.522  0.0489 -0.4363  0.0160
13161TIP3    H260975   3.711   2.218   1.626 -1.1063  0.6842 -1.4904
13162TIP3   OH260976   6.499   1.189  11.322  0.4644 -0.5625  1.0902
13162TIP3    H160977   6.472   1.100  11.298 -3.1872  0.6578  0.0217
13162TIP3    H260978   6.550   1.220  11.247 -1.2297 -0.6495 -0.1466
13163TIP3   OH260979   2.772   0.520  15.841  0.0363  0.2848  0.2054
13163TIP3    H160980   2.810   0.476  15.917 -0.2236  1.1331  0.8327
13163TIP3    H260981   2.681   0.489  15.839 -0.2410  1.0274  0.8447
13164TIP3   OH260982   2.480   0.713   2.811 -0.3742  0.7077 -0.2541
13164TIP3    H160983   2.534   0.636   2.822 -0.6026  0.5417 -0.2858
13164TIP3    H260984   2.464   0.718   2.716 -0.3637  0.7916 -0.2521
13165TIP3   OH260985   6.231   1.940   5.452 -0.4968 -0.3782 -0.0749
13165TIP3    H160986   6.305   1.945   5.513 -0.1658 -1.5562 -0.3706
13165TIP3    H260987   6.155   1.966   5.504 -0.3255 -2.0372  1.0400
13166TIP3   OH260988   4.913   3.615   1.407 -0.2944 -0.2848  0.1692
13166TIP3    H160989   4.959   3.581   1.483 -1.7745  1.1598  1.7962
13166TIP3    H260990   4.967   3.688   1.376 -0.3586 -0.0189  0.6792
13167TIP3   OH260991   1.597   0.139  15.963 -0.0550  0.5608  0.1047
13167TIP3    H160992   1.537   0.085  16.014 -0.4188 -0.2102 -1.0972
13167TIP3    H260993   1.670   0.156  16.023  0.2967 -1.6462  0.4068
13168TIP3   OH260994   1.623   4.393   1.362  0.3148  0.0047  0.2151
13168TIP3    H160995   1.661   4.478   1.340 -0.7007  0.4626  0.1859
13168TIP3    H260996   1.550   4.382   1.301  1.1692 -1.4634 -0.6119
13169TIP3   OH260997   1.465   3.368   3.724  0.1921 -0.0480 -0.3451
13169TIP3    H160998   1.443   3.310   3.797 -2.5815  0.9895 -0.2516
13169TIP3    H260999   1.441   3.318   3.646 -0.1440  0.1431 -0.3661
13170TIP3   OH261000   1.030   0.581   2.935 -0.3484  0.3539  0.3277
13170TIP3    H161001   1.021   0.486   2.939 -0.1420  0.3521  0.8014
13170TIP3    H261002   1.037   0.608   3.026 -0.5556  0.8404  0.2016
13171TIP3   OH261003   0.940   3.110  13.594  0.2400  0.0369  0.0242
13171TIP3    H161004   0.941   3.015  13.583 -0.0482  0.1261 -0.8479
13171TIP3    H261005   0.961   3.145  13.507 -1.0893  0.7869 -0.0219
13172TIP3   OH261006   1.265   0.813  12.489  0.0717 -0.9736  0.6812
13172TIP3    H161007   1.319   0.854  12.556  0.8421  2.8895 -1.9999
13172TIP3    H261008   1.294   0.722  12.488  3.9944  0.0829  1.8386
13173TIP3   OH261009   1.911   1.801  14.519 -0.2516  0.2627 -0.2954
13173TIP3    H161010   1.856   1.836  14.589 -1.0600  0.8521 -1.2002
13173TIP3    H261011   1.866   1.827  14.438  1.2033  0.5009 -1.0596
13174TIP3   OH261012   3.890   5.071   4.041 -0.2288  0.3310 -0.5149
13174TIP3    H161013   3.827   5.008   4.077  0.6006 -0.9188 -1.1583
13174TIP3    H261014   3.898   5.045   3.949  0.7102  0.9026 -0.6049
13175TIP3   OH261015   2.623   6.784   5.535 -0.3523 -0.2293 -0.3961
13175TIP3    H161016   2.642   6.738   5.454 -1.0905  1.4844 -1.5951
13175TIP3    H261017   2.541   6.744   5.566 -1.4857  0.8263 -1.9098
13176TIP3   OH261018   3.147   6.166   1.980 -0.4635 -0.2475 -0.0793
13176TIP3    H161019   3.098   6.084   1.986 -2.6161  0.9295 -0.9155
13176TIP3    H261020   3.156   6.182   1.886  1.4307 -0.3334  0.0449
13177TIP3   OH261021   5.733   3.518  13.300 -0.1976  0.7984 -0.4378
13177TIP3    H161022   5.721   3.601  13.345 -1.0766  0.3078  0.2722
13177TIP3    H261023   5.767   3.459  13.368 -0.4518  0.3422 -0.7021
13178TIP3   OH261024   4.617   0.495  10.586  0.7608  0.6373 -0.2240
13178TIP3    H161025   4.562   0.453  10.521 -0.1026  0.5810  0.5298
13178TIP3    H261026   4.640   0.425  10.647  1.0047  0.8331 -0.0876
13179TIP3   OH261027   0.841   0.665   2.335 -0.0540  0.3322  0.0874
13179TIP3    H161028   0.837   0.642   2.242  0.7069 -1.6586  0.5039
13179TIP3    H261029   0.907   0.734   2.340  1.2407 -0.7946 -0.6639
13180TIP3   OH261030   5.668   1.724  13.623 -0.3837  0.1961 -0.3622
13180TIP3    H161031   5.621   1.800  13.657 -0.5407 -0.7206  1.6317
13180TIP3    H261032   5.600   1.657  13.613  0.0034 -0.1777 -0.5248
13181TIP3   OH261033   5.091   3.633  10.410  0.6205 -0.3964 -0.5468
13181TIP3    H161034   5.013   3.634  10.466 -0.2055  0.1855 -1.6620
13181TIP3    H261035   5.165   3.640  10.471 -0.2382 -0.0158  0.4748
13182TIP3   OH261036   5.330   4.395  15.613  0.3254 -0.0130 -0.5431
13182TIP3    H161037   5.315   4.455  15.540 -0.9692  0.8819  0.4216
13182TIP3    H261038   5.245   4.356  15.631  0.2871  0.8229  1.3496
13183TIP3   OH261039   1.948   0.149  10.985 -0.2612 -0.5083 -0.0091
13183TIP3    H161040   1.930   0.057  11.008 -1.0079 -0.1996  0.6968
13183TIP3    H261041   1.880   0.198  11.031  1.8043  0.6670  2.0146
13184TIP3   OH261042   1.136   4.172  12.610  0.1547  0.3042 -0.2943
13184TIP3    H161043   1.196   4.106  12.645  0.0394 -0.3842 -1.3340
13184TIP3    H261044   1.193   4.244  12.582  0.4196  0.0450 -0.4255
13185TIP3   OH261045   6.193   1.124   1.521  0.7953  0.3016 -0.1033
13185TIP3    H161046   6.104   1.158   1.518  0.5612 -0.3714 -1.3806
13185TIP3    H261047   6.235   1.160   1.443  1.2496 -0.4373 -0.2083
13186TIP3   OH261048   6.714   2.200   5.813 -0.7253  0.0612  0.0985
13186TIP3    H161049   6.664   2.279   5.791  0.8486  0.9177 -0.5481
13186TIP3    H261050   6.805   2.227   5.804 -0.1393 -1.4789  1.1834
13187TIP3   OH261051   1.485   0.573   5.072  0.1899  0.6136  0.2298
13187TIP3    H161052   1.472   0.551   4.980  1.0051  0.7883  0.0688
13187TIP3    H261053   1.396   0.576   5.108 -0.0667 -0.8712 -0.2026
13188TIP3   OH261054   3.170   4.068   0.829 -0.3786 -0.1211  0.0342
13188TIP3    H161055   3.137   4.095   0.744 -0.5374  0.3405  0.2386
13188TIP3    H261056   3.265   4.063   0.817 -0.4402 -0.5290 -0.2983
13189TIP3   OH261057   5.330   4.967   5.872 -0.5363 -0.2986 -0.9009
13189TIP3    H161058   5.374   4.910   5.809  2.0371  1.6737 -1.0950
13189TIP3    H261059   5.302   5.043   5.820 -0.2241  0.4285 -0.0399
13190TIP3   OH261060   2.838   4.866  15.289 -0.1561  0.1036  0.3321
13190TIP3    H161061   2.908   4.808  15.319  0.2310 -0.0387 -0.8138
13190TIP3    H261062   2.861   4.952  15.323  0.1383 -0.1034  0.6586
13191TIP3   OH261063   4.998   2.948  10.820  0.1703 -0.0034  0.6087
13191TIP3    H161064   4.903   2.943  10.836  0.0047  0.1119 -0.3106
13191TIP3    H261065   5.019   2.867  10.774  0.3137  0.4811 -0.1928
13192TIP3   OH261066   0.943   2.795   0.040  0.2323  0.6256 -0.1488
13192TIP3    H161067   0.915   2.810  -0.050 -1.5180  0.2767  0.3078
13192TIP3    H261068   0.930   2.880   0.084 -0.5345  0.3564  0.1605
13193TIP3   OH261069   2.871   0.871  15.871 -0.0917 -0.5600  0.0676
13193TIP3    H161070   2.950   0.844  15.824 -0.0231 -0.7277  0.2764
13193TIP3    H261071   2.811   0.797  15.862 -0.2375 -0.4195 -0.1189
13194TIP3   OH261072   1.150   4.726  15.887  0.1565  0.3933  0.1564
13194TIP3    H161073   1.182   4.802  15.935  1.3028  1.4360 -2.0803
13194TIP3    H261074   1.056   4.743  15.874  0.2602  1.0799  0.2847
13195TIP3   OH261075   5.923   2.463  10.977  0.3478  0.1922 -0.5749
13195TIP3    H161076   5.975   2.540  10.957 -0.1537  0.3930 -1.1598
13195TIP3    H261077   5.917   2.416  10.893  1.7034 -1.1573  0.0286
13196TIP3   OH261078   3.544   5.879  12.978 -0.1469  1.2123 -0.3462
13196TIP3    H161079   3.567   5.917  12.894 -1.8662  2.3252 -0.3693
13196TIP3    H261080   3.608   5.915  13.040 -0.4335  2.4897 -0.7544
13197TIP3   OH261081   5.689   3.524  15.868 -0.2010 -0.0829  0.3956
13197TIP3    H161082   5.626   3.566  15.810  0.9020  0.9882 -0.0756
13197TIP3    H261083   5.773   3.530  15.821  0.1702 -2.0230  0.7145
13198TIP3   OH261084   5.413   1.771   6.431 -0.0220  0.7782 -0.1372
13198TIP3    H161085   5.348   1.711   6.394 -1.0515  2.7840 -1.7889
13198TIP3    H261086   5.483   1.714   6.463 -2.8054 -1.5831  2.4343
13199TIP3   OH261087   2.092   0.230   1.022  0.5148  0.3371 -0.3996
13199TIP3    H161088   2.113   0.259   0.934  2.9340 -1.5531 -0.5500
13199TIP3    H261089   2.175   0.235   1.070  0.2286 -2.4671  0.5924
13200TIP3   OH261090   1.661   0.799  12.283  0.0953 -0.2180 -0.1620
13200TIP3    H161091   1.664   0.892  12.264  2.7820 -0.2417 -0.2402
13200TIP3    H261092   1.654   0.794  12.378 -0.8487  0.0338 -0.2119
13201TIP3   OH261093   2.035   1.160  15.938  0.4468  0.1872  0.0903
13201TIP3    H161094   2.121   1.202  15.938 -0.0590  1.2901 -0.8807
13201TIP3    H261095   2.011   1.157  15.845 -0.6329  0.0624  0.3683
13202TIP3   OH261096   5.256   0.542  11.324  0.0468 -0.3821 -0.2112
13202TIP3    H161097   5.338   0.563  11.370 -0.7436 -0.7252  1.4234
13202TIP3    H261098   5.253   0.446  11.324  0.5217 -0.4429 -1.9512
13203TIP3   OH261099   1.369   6.278  17.150  0.7567  0.2768 -0.1331
13203TIP3    H161100   1.404   6.190  17.136  0.7811 -0.3661  3.1849
13203TIP3    H261101   1.279   6.274  17.117  0.7064 -1.0347  0.1384
13204TIP3   OH261102   3.571   6.266   5.988  0.0015 -0.0720  0.0784
13204TIP3    H161103   3.496   6.213   5.961  0.7483 -1.7244  1.0866
13204TIP3    H261104   3.544   6.306   6.071  0.3503 -0.9748  0.6377
13205TIP3   OH261105   0.033   2.680   2.335  0.1809  0.4869  0.1840
13205TIP3    H161106  -0.029   2.751   2.316  0.3243  0.2517 -1.2948
13205TIP3    H261107   0.069   2.701   2.421 -2.3482  0.3425  1.3565
13206TIP3   OH261108   3.484   0.318   3.750 -0.2485  0.5050  0.2148
13206TIP3    H161109   3.479   0.344   3.658  0.6041  0.7133  0.2221
13206TIP3    H261110   3.552   0.374   3.787  0.4241 -0.5650  0.6334
13207TIP3   OH261111   0.864   3.487  13.486 -0.0245  0.2676 -0.0552
13207TIP3    H161112   0.879   3.520  13.397  1.0998  0.9528  0.3660
13207TIP3    H261113   0.929   3.418  13.497 -0.3093  0.0315  0.1592
13208TIP3   OH261114   3.609   3.726   0.522 -0.0834  0.1334 -0.2970
13208TIP3    H161115   3.602   3.819   0.546 -1.3479  0.0232 -0.2044
13208TIP3    H261116   3.579   3.722   0.431  0.7836 -0.0753 -0.5893
13209TIP3   OH261117   4.894   1.839   1.270  0.0918 -0.1712 -0.0383
13209TIP3    H161118   4.970   1.894   1.250 -1.8045  2.3258 -0.9093
13209TIP3    H261119   4.849   1.885   1.341 -2.2473  0.2060 -1.6449
13210TIP3   OH261120   6.326   3.056   4.261 -0.0745 -0.3257  0.3184
13210TIP3    H161121   6.309   3.038   4.353 -0.6915  2.7201  0.9208
13210TIP3    H261122   6.401   3.000   4.238 -0.5746 -1.9050  2.3290
13211TIP3   OH261123   0.996   3.708   1.965 -0.1080 -0.0862  0.1273
13211TIP3    H161124   0.936   3.639   1.935 -0.2859 -0.7284  1.8118
13211TIP3    H261125   1.044   3.733   1.887 -0.4146 -1.7643 -0.6626
13212TIP3   OH261126   2.847   4.381   3.413 -0.2558  0.7053  0.1373
13212TIP3    H161127   2.826   4.307   3.469  0.9481 -0.7951 -1.2802
13212TIP3    H261128   2.836   4.458   3.469 -0.7171 -0.5874  1.9097
13213TIP3   OH261129   3.843   1.970   5.665  0.0073 -0.0334 -0.2164
13213TIP3    H161130   3.862   2.064   5.664  0.6019 -0.1512 -0.7590
13213TIP3    H261131   3.842   1.945   5.573 -1.3091 -0.3402 -0.1293
13214TIP3   OH261132   6.398   3.992   0.521  0.3699 -0.4277  0.6840
13214TIP3    H161133   6.351   4.057   0.468  1.9634 -1.2860 -1.9740
13214TIP3    H261134   6.465   4.042   0.566  2.2949 -0.1817 -2.1830
13215TIP3   OH261135   0.761   4.780   0.211  0.6439 -0.5838 -0.1400
13215TIP3    H161136   0.773   4.703   0.155 -1.0946 -0.9133 -0.1298
13215TIP3    H261137   0.703   4.749   0.281  2.2054  0.0161  1.4858
13216TIP3   OH261138   0.596   3.414  14.333  0.2271 -0.3208 -0.0880
13216TIP3    H161139   0.517   3.446  14.291 -0.5908  1.8663  2.7751
13216TIP3    H261140   0.664   3.477  14.308  0.3553 -0.5040 -0.2032
13217TIP3   OH261141   5.198   6.323   1.180 -0.2132  0.3666 -0.3975
13217TIP3    H161142   5.197   6.356   1.270 -0.0889 -0.1546 -0.1985
13217TIP3    H261143   5.107   6.299   1.162 -0.3939  1.2751 -0.7195
13218TIP3   OH261144   4.832   5.599  14.170  0.3545  0.5024  0.1828
13218TIP3    H161145   4.864   5.687  14.150  1.2585  0.0145 -0.5822
13218TIP3    H261146   4.755   5.589  14.114  1.7230 -0.1126 -1.6577
13219TIP3   OH261147   0.004   5.794   0.240  0.0166 -0.3828  0.0630
13219TIP3    H161148   0.015   5.712   0.191  0.2834 -0.0150 -0.5017
13219TIP3    H261149  -0.087   5.791   0.271  0.5809 -1.8019  1.7379
13220TIP3   OH261150   6.095   6.162  11.961  0.1929 -0.2721  0.4475
13220TIP3    H161151   6.036   6.237  11.959 -0.4427 -0.7621  0.6613
13220TIP3    H261152   6.108   6.138  11.870 -2.1103 -1.8299  0.4414
13221TIP3   OH261153   5.031   4.939   0.698  0.4517 -0.7179 -0.4217
13221TIP3    H161154   5.009   4.924   0.790 -1.3385 -1.7741 -0.9747
13221TIP3    H261155   5.116   4.896   0.686  1.7659  1.2314  1.1784
13222TIP3   OH261156   0.545   0.716   3.562 -0.0486 -0.0137  0.2281
13222TIP3    H161157   0.631   0.701   3.601  0.0632 -0.4201 -0.1568
13222TIP3    H261158   0.534   0.811   3.564  1.0927  0.1801 -1.1328
13223TIP3   OH261159   3.380   5.993   1.847 -0.1056  0.6098 -0.0113
13223TIP3    H161160   3.463   5.946   1.843 -0.1004  0.4506  1.4236
13223TIP3    H261161   3.324   5.937   1.901 -0.3200  1.9000  1.1414
13224TIP3   OH261162   4.075   6.275  16.552  0.1243  0.3298  0.2416
13224TIP3    H161163   4.115   6.216  16.488  0.6436  1.3977 -0.4604
13224TIP3    H261164   4.013   6.327  16.501 -0.3947  0.3236  0.8637
13225TIP3   OH261165   1.530   0.476   3.899 -0.0334 -0.1101  0.0758
13225TIP3    H161166   1.485   0.517   3.973 -0.8197  1.4016 -1.2104
13225TIP3    H261167   1.468   0.412   3.865 -0.4813  0.6439 -0.5347
13226TIP3   OH261168   1.683   4.098  12.067  0.9894  0.3557  0.3090
13226TIP3    H161169   1.613   4.162  12.057  0.9072  0.4018  1.0863
13226TIP3    H261170   1.751   4.127  12.006  0.2418  0.1656 -0.6402
13227TIP3   OH261171   0.203   4.717   1.168  0.2157  0.5809 -0.4186
13227TIP3    H161172   0.197   4.812   1.170  1.1804  0.6649 -0.8665
13227TIP3    H261173   0.203   4.695   1.075  1.3346  0.2492 -0.3485
13228TIP3   OH261174   6.478   5.592   2.245  0.5052 -0.0334 -0.2942
13228TIP3    H161175   6.441   5.537   2.314 -1.5139 -0.3636 -1.5559
13228TIP3    H261176   6.446   5.680   2.265 -0.1066 -0.1342 -0.7908
13229TIP3   OH261177   6.029   5.298   0.273 -0.3589 -0.4271 -0.1314
13229TIP3    H161178   6.001   5.348   0.350 -3.5458 -0.5909 -1.0586
13229TIP3    H261179   5.949   5.287   0.221  0.9822 -3.2672 -1.8175
13230TIP3   OH261180   0.297   2.813  12.577  0.6748 -0.0624 -0.4871
13230TIP3    H161181   0.254   2.898  12.571 -1.0686 -0.8056  0.7225
13230TIP3    H261182   0.227   2.749  12.565  1.6244 -1.3304  0.3734
13231TIP3   OH261183   5.078   6.799  16.783  0.5246 -0.9065 -0.2198
13231TIP3    H161184   5.161   6.844  16.767  1.4854 -2.7005 -0.5184
13231TIP3    H261185   5.014   6.848  16.731  1.4836  0.1928 -0.4085
13232TIP3   OH261186   4.110   2.322   3.239 -0.0335  0.1162 -0.1878
13232TIP3    H161187   4.085   2.230   3.225  2.4853 -0.7664  0.5427
13232TIP3    H261188   4.058   2.348   3.316 -1.1438 -0.5089 -0.6914
13233TIP3   OH261189   6.658   5.140  14.897  0.2770  0.3420  0.8275
13233TIP3    H161190   6.587   5.200  14.917  1.5159  1.8143  0.9147
13233TIP3    H261191   6.677   5.095  14.980  0.7062  1.3289  1.2743
13234TIP3   OH261192   0.112   2.551   5.654 -0.2672 -0.0269 -0.0611
13234TIP3    H161193   0.177   2.489   5.686 -0.5261 -1.2410 -1.7680
13234TIP3    H261194   0.029   2.503   5.656 -0.8979  1.0328  0.7256
13235TIP3   OH261195   0.615   0.640   5.114 -0.6683  0.2338 -0.0548
13235TIP3    H161196   0.654   0.595   5.189 -0.6454 -1.7830 -1.2043
13235TIP3    H261197   0.687   0.651   5.052 -1.3611 -1.2712 -1.1787
13236TIP3   OH261198   1.804   5.265   2.595  0.3059 -0.6417 -0.3449
13236TIP3    H161199   1.795   5.350   2.553 -1.5694 -1.2410 -1.2117
13236TIP3    H261200   1.776   5.201   2.530  2.2040 -2.0319  0.0814
13237TIP3   OH261201   0.587   0.740   0.823  0.7159 -0.4390 -0.3202
13237TIP3    H161202   0.615   0.748   0.914 -0.7744  0.4562  0.0890
13237TIP3    H261203   0.617   0.822   0.782 -1.2112  0.5519  0.1344
13238TIP3   OH261204   1.424   4.050  12.404  0.2113  0.2629 -0.0291
13238TIP3    H161205   1.384   3.975  12.448  2.0508 -0.3113  0.7764
13238TIP3    H261206   1.518   4.036  12.415  0.6083  2.8421  0.3880
13239TIP3   OH261207   5.611   5.005   2.888  0.2786  0.4327  0.0884
13239TIP3    H161208   5.607   4.998   2.983 -0.9432 -0.0102  0.0203
13239TIP3    H261209   5.705   5.006   2.868  0.5790 -1.0928  1.1998
13240TIP3   OH261210   3.042   0.608  12.297  0.7994  0.0157 -0.4205
13240TIP3    H161211   3.097   0.555  12.239  0.2599 -1.1775  0.1295
13240TIP3    H261212   2.994   0.544  12.349  0.9880  1.0650  1.0854
13241TIP3   OH261213   3.858   1.861  12.076 -0.2330  0.5461  0.1774
13241TIP3    H161214   3.933   1.921  12.075 -0.0735  0.3469 -0.2723
13241TIP3    H261215   3.844   1.839  11.984 -1.1915  1.0038  0.1941
13242TIP3   OH261216   4.381   4.568  12.061 -0.1067  0.3870  0.3753
13242TIP3    H161217   4.391   4.543  12.153  3.5964 -0.9975 -0.2240
13242TIP3    H261218   4.318   4.506  12.026  0.7455 -1.0935  1.3605
13243TIP3   OH261219   4.493   3.972  14.683 -0.2959 -0.3663  0.1635
13243TIP3    H161220   4.478   3.937  14.770 -3.6071 -0.7059 -0.4061
13243TIP3    H261221   4.448   3.910  14.624 -0.0626  1.0136 -1.5532
13244TIP3   OH261222   5.810   5.324  16.777  0.2911 -0.9474 -0.2892
13244TIP3    H161223   5.830   5.234  16.750  1.3778 -0.7958 -0.0279
13244TIP3    H261224   5.836   5.327  16.870  2.8636  0.3661 -0.9664
13245TIP3   OH261225   0.663   1.121   6.039  0.2782 -0.4894 -0.0336
13245TIP3    H161226   0.611   1.044   6.061 -0.0396 -0.1017  0.6270
13245TIP3    H261227   0.602   1.194   6.044  0.9173  0.0056  1.0008
13246TIP3   OH261228   6.118   1.144   3.933  0.2179  0.0836  0.4805
13246TIP3    H161229   6.206   1.123   3.963  0.5873 -0.3431 -0.8299
13246TIP3    H261230   6.112   1.103   3.847 -1.0578  0.6131  0.2976
13247TIP3   OH261231   1.034   2.452   2.337  0.0850 -0.4412 -0.2402
13247TIP3    H161232   0.989   2.524   2.293 -0.6331  1.2903  3.0005
13247TIP3    H261233   1.118   2.489   2.364 -0.3257 -0.6921  1.5422
13248TIP3   OH261234   1.112   5.174   3.204  0.2322 -0.1943 -0.0474
13248TIP3    H161235   1.195   5.127   3.214  0.4966  0.1232 -0.6355
13248TIP3    H261236   1.124   5.254   3.255  0.9578  0.6589 -1.4876
13249TIP3   OH261237   0.894   1.685  16.017 -0.3044 -0.2412  0.1160
13249TIP3    H161238   0.970   1.692  15.959  0.7235 -0.9159  1.3264
13249TIP3    H261239   0.923   1.625  16.086 -2.1506 -0.9853  0.2834
13250TIP3   OH261240   0.758   3.578  12.817 -0.4399  0.0685  0.2303
13250TIP3    H161241   0.786   3.510  12.877  1.0453 -0.1941 -0.7166
13250TIP3    H261242   0.686   3.539  12.767  0.5416 -0.8974 -0.4546
13251TIP3   OH261243   6.080   3.595  11.905  0.9087  0.4410 -0.0829
13251TIP3    H161244   6.135   3.626  11.977  1.5440  0.6049 -0.6263
13251TIP3    H261245   6.006   3.655  11.903  0.0128 -0.5392  1.4780
13252TIP3   OH261246   0.335   2.630  12.784 -0.7821  0.3840 -0.2877
13252TIP3    H161247   0.363   2.682  12.708 -0.5837  0.8142  0.0736
13252TIP3    H261248   0.352   2.686  12.859  1.2643 -0.8855  0.2959
13253TIP3   OH261249   5.250   4.646  14.713  0.0092 -0.0551  0.1472
13253TIP3    H161250   5.249   4.598  14.631 -0.6072  0.4960 -0.1769
13253TIP3    H261251   5.252   4.738  14.687  0.3052  0.1148  0.7497
13254TIP3   OH261252   1.732   0.608  13.810 -0.2039 -0.1928  0.3242
13254TIP3    H161253   1.686   0.642  13.733  0.5740  0.3128  0.0735
13254TIP3    H261254   1.804   0.669  13.824  0.2251 -0.8121  0.8789
13255TIP3   OH261255   4.531   2.559   2.184 -0.2923 -0.1624  0.2611
13255TIP3    H161256   4.460   2.513   2.229 -0.4082  0.5687  0.8432
13255TIP3    H261257   4.561   2.624   2.247  1.7353 -1.2488  0.5075
13256TIP3   OH261258   6.279   2.237   2.877  0.0211  0.2881  0.3139
13256TIP3    H161259   6.294   2.286   2.957  0.4178 -0.1492  0.5131
13256TIP3    H261260   6.247   2.151   2.906  0.3822  0.0489  0.0210
13257TIP3   OH261261   1.185   3.700   4.416  0.1332  0.4818  0.2893
13257TIP3    H161262   1.206   3.702   4.323  1.4500 -0.0385  0.5595
13257TIP3    H261263   1.090   3.686   4.419 -0.0194  1.1920 -0.9659
13258TIP3   OH261264   3.364   3.751  14.855 -0.0833  0.4027  0.3278
13258TIP3    H161265   3.451   3.790  14.864  0.4936 -0.0312 -2.5720
13258TIP3    H261266   3.307   3.824  14.831 -0.0904  0.3217  0.1032
13259TIP3   OH261267   5.901   5.614  13.137  0.2615 -0.1931  0.2150
13259TIP3    H161268   5.884   5.607  13.043  0.3877  1.9077 -0.0132
13259TIP3    H261269   5.835   5.675  13.169  0.9634  0.0562  1.2613
13260TIP3   OH261270   1.585   6.777   0.849  0.1892  0.7191  0.7866
13260TIP3    H161271   1.522   6.827   0.797 -0.5128 -0.5102  0.4073
13260TIP3    H261272   1.632   6.843   0.900 -0.1263  1.8174 -0.3075
13261TIP3   OH261273   6.586   4.153  16.826  0.1348  0.1359  0.2124
13261TIP3    H161274   6.614   4.132  16.915  1.3058 -0.4784 -0.2899
13261TIP3    H261275   6.574   4.068  16.784  0.0422  0.4255 -0.3611
13262TIP3   OH261276   4.854   3.339   1.893 -0.5624  0.1437 -0.1964
13262TIP3    H161277   4.840   3.346   1.987 -3.6545 -1.6522 -0.4082
13262TIP3    H261278   4.921   3.271   1.884  0.7291  1.2383  0.6605
13263TIP3   OH261279   1.400   3.992   0.596 -0.2123  0.4932  0.5566
13263TIP3    H161280   1.434   3.931   0.530 -0.7686  0.5242  0.2355
13263TIP3    H261281   1.448   3.969   0.676  2.2319  2.0198 -0.3463
13264TIP3   OH261282   1.172   3.860  15.313  0.4743  1.2072  0.6385
13264TIP3    H161283   1.146   3.795  15.248  1.6756  1.5238 -0.1936
13264TIP3    H261284   1.148   3.821  15.397 -1.1198  0.7984  0.0326
13265TIP3   OH261285   5.335   1.536   2.681 -0.2213 -0.2222  0.1869
13265TIP3    H161286   5.257   1.537   2.625 -0.2557 -0.5454  0.2294
13265TIP3    H261287   5.346   1.444   2.706 -1.0885  0.1173  1.9505
13266TIP3   OH261288   2.337   1.368  16.504 -0.1359  0.0520  0.2125
13266TIP3    H161289   2.407   1.429  16.480  0.7752 -0.6067  1.0767
13266TIP3    H261290   2.382   1.300  16.554 -0.9958 -1.7374 -1.3603
13267TIP3   OH261291   1.044   3.559  11.318 -0.4780 -0.5412 -0.1758
13267TIP3    H161292   1.003   3.587  11.236 -0.2374  0.1015 -0.0826
13267TIP3    H261293   1.064   3.641  11.364 -0.8354 -0.9026  0.6377
13268TIP3   OH261294   2.945   3.945   2.424  0.0326 -0.1250  0.3467
13268TIP3    H161295   2.876   4.007   2.400 -0.6943 -0.1036  2.2596
13268TIP3    H261296   3.013   4.000   2.464  0.5276 -0.3099 -0.2212
13269TIP3   OH261297   2.758   5.786  13.450  0.1038 -0.0875  0.3220
13269TIP3    H161298   2.780   5.874  13.419 -2.0037  0.1602 -0.6014
13269TIP3    H261299   2.786   5.786  13.542 -0.0859  1.6264  0.4092
13270TIP3   OH261300   3.299   3.724  11.718  0.0156  0.1215 -0.2718
13270TIP3    H161301   3.393   3.741  11.719 -0.0649  1.3058  3.5346
13270TIP3    H261302   3.289   3.640  11.764 -0.7713 -0.3065 -1.1947
13271TIP3   OH261303   1.365   4.203   1.266  0.0491  0.7662 -0.2144
13271TIP3    H161304   1.331   4.271   1.323 -0.9270 -0.0133  0.1744
13271TIP3    H261305   1.397   4.249   1.189  0.1757  1.7222  0.3991
13272TIP3   OH261306   6.491   2.417  15.808 -0.8328 -0.4407  0.5489
13272TIP3    H161307   6.547   2.355  15.763 -1.4674 -0.8651  0.3219
13272TIP3    H261308   6.489   2.386  15.899 -0.3323 -0.1521  0.6612
13273TIP3   OH261309   6.722   1.954   6.069 -0.2861 -0.1539 -0.4754
13273TIP3    H161310   6.633   1.960   6.033 -0.2905  1.0771 -0.2817
13273TIP3    H261311   6.709   1.934   6.161 -0.2841 -2.6030 -0.9189
13274TIP3   OH261312   4.523   4.065   2.608  0.7470 -0.1705 -0.6408
13274TIP3    H161313   4.436   4.104   2.610  1.4517  1.5698 -1.5755
13274TIP3    H261314   4.559   4.080   2.696  0.8850  1.0650 -0.8907
13275TIP3   OH261315   2.809   2.575   0.247  0.0496  0.7580 -0.1056
13275TIP3    H161316   2.764   2.618   0.320  1.2848  0.4205  0.8917
13275TIP3    H261317   2.876   2.521   0.289 -0.3226 -0.7950 -1.4091
13276TIP3   OH261318   0.379   3.376   0.470  0.0880 -0.0751  0.1115
13276TIP3    H161319   0.342   3.444   0.415 -1.8135 -0.3423  0.9902
13276TIP3    H261320   0.326   3.379   0.550  1.5938 -0.9048  1.1879
13277TIP3   OH261321   0.061   2.306  11.413 -0.0453 -0.1979 -0.3405
13277TIP3    H161322   0.045   2.250  11.337  0.0809 -2.3711  1.1411
13277TIP3    H261323   0.124   2.372  11.381  0.6509 -1.5380 -1.8971
13278TIP3   OH261324   2.775   3.619   0.651 -0.5385  0.1687  0.4444
13278TIP3    H161325   2.837   3.690   0.633 -1.2090  0.9743  1.2408
13278TIP3    H261326   2.768   3.617   0.746  1.2135 -2.5195  0.6254
13279TIP3   OH261327   4.111   1.463   4.566 -1.0168 -0.1392  0.4193
13279TIP3    H161328   4.130   1.458   4.472  0.8861  0.9699  0.6882
13279TIP3    H261329   4.021   1.432   4.574 -0.4985 -2.4627 -1.4755
13280TIP3   OH261330   2.094   1.532   5.723  0.1009  0.5889 -0.2158
13280TIP3    H161331   2.025   1.472   5.752  0.5894  0.5936  1.0247
13280TIP3    H261332   2.136   1.487   5.650 -1.5177  0.8026 -1.3252
13281TIP3   OH261333   3.008   5.659   0.423 -0.4818 -0.0007  0.3485
13281TIP3    H161334   2.948   5.733   0.433 -1.0163 -0.6158  2.1411
13281TIP3    H261335   3.059   5.658   0.503 -0.2185 -1.3394  0.1955
13282TIP3   OH261336   3.142   5.872   5.774  0.5309 -0.2850 -0.2644
13282TIP3    H161337   3.232   5.895   5.799 -0.2628  2.1049  0.6724
13282TIP3    H261338   3.126   5.921   5.693  0.3651 -1.4720 -0.9672
13283TIP3   OH261339   2.253   0.673  11.085  0.2932  0.5379  0.3517
13283TIP3    H161340   2.275   0.675  10.992  0.1273 -1.0595  0.2454
13283TIP3    H261341   2.331   0.706  11.129  1.1312 -0.5372 -0.2722
13284TIP3   OH261342   5.072   1.271   0.469 -0.3397  0.0801 -0.5533
13284TIP3    H161343   5.105   1.355   0.501  0.5183 -0.0215 -1.1359
13284TIP3    H261344   5.144   1.210   0.483 -1.5738 -0.9974  1.5461
13285TIP3   OH261345   4.759   1.661   0.710  0.0662  0.2643 -0.0637
13285TIP3    H161346   4.699   1.733   0.690  1.3025  0.9792 -1.4662
13285TIP3    H261347   4.703   1.593   0.748 -1.4309  1.3066 -0.2926
13286TIP3   OH261348   6.068   2.487  13.483  0.1330  0.0812  0.8044
13286TIP3    H161349   6.054   2.449  13.570 -0.3371  0.3095  0.8304
13286TIP3    H261350   6.060   2.581  13.497  0.5480  0.1495  0.6001
13287TIP3   OH261351   2.678   4.942   3.038  0.4102 -0.0815 -0.1624
13287TIP3    H161352   2.645   5.032   3.041  2.3089  0.6275  0.4354
13287TIP3    H261353   2.690   4.924   2.945 -0.7399 -0.0316 -0.3377
13288TIP3   OH261354   5.354   0.837   2.294 -0.3692  0.7962  0.4542
13288TIP3    H161355   5.384   0.885   2.217  2.6136 -1.4190  0.0552
13288TIP3    H261356   5.289   0.775   2.260  1.7879 -0.9942 -0.6386
13289TIP3   OH261357   0.707   2.972   3.731  0.3245 -0.2081  0.0978
13289TIP3    H161358   0.650   3.022   3.790  1.1938  0.0499  0.7407
13289TIP3    H261359   0.763   3.038   3.691  0.5247 -0.5204 -0.1376
13290TIP3   OH261360   0.303   4.168   6.436 -0.1524  0.2477 -0.1744
13290TIP3    H161361   0.384   4.164   6.384 -0.3868 -0.5237 -0.4898
13290TIP3    H261362   0.248   4.098   6.401 -0.7304  0.3869  0.4308
13291TIP3   OH261363   2.634   6.059  13.095  0.0592 -0.0236  0.3842
13291TIP3    H161364   2.658   6.150  13.077 -0.4485  0.3002  1.2925
13291TIP3    H261365   2.567   6.065  13.163  0.1215 -1.0868  0.5499
13292TIP3   OH261366   2.834   4.778   2.388 -0.0036  0.2237 -0.2887
13292TIP3    H161367   2.743   4.757   2.407  0.1222  0.6581  0.8744
13292TIP3    H261368   2.835   4.874   2.380  0.8481  0.5611  2.8131
13293TIP3   OH261369   4.691   2.410   3.672 -0.5094 -0.0767  0.0976
13293TIP3    H161370   4.718   2.366   3.753 -0.5783  1.0039  0.7378
13293TIP3    H261371   4.769   2.408   3.617  0.2309  1.0638  1.0543
13294TIP3   OH261372   2.115   1.029  16.813 -0.7658 -0.0409  0.1487
13294TIP3    H161373   2.175   0.975  16.761 -0.8054  0.9097 -0.9003
13294TIP3    H261374   2.131   1.118  16.784 -2.2722  0.2954  0.2856
13295TIP3   OH261375   0.542   5.599   1.617 -0.2624  0.0026 -0.0979
13295TIP3    H161376   0.592   5.561   1.545  1.6380  0.8517  0.7277
13295TIP3    H261377   0.514   5.685   1.585 -0.7152 -0.2273 -0.3381
13296TIP3   OH261378   5.957   4.479  14.217  0.2975 -0.2564 -0.0359
13296TIP3    H161379   6.043   4.463  14.256  0.1998 -0.2997  0.1579
13296TIP3    H261380   5.938   4.571  14.237 -0.1116 -0.5020  0.7046
13297TIP3   OH261381   4.713   5.408   1.754 -0.4566  0.8430  0.1819
13297TIP3    H161382   4.800   5.368   1.743 -0.9647  0.0019 -1.0147
13297TIP3    H261383   4.670   5.395   1.670 -2.1082  0.3813  1.0506
13298TIP3   OH261384   5.039   0.767  16.431  0.4135 -0.2713 -0.5447
13298TIP3    H161385   5.127   0.737  16.451  0.5984 -0.0058 -0.9424
13298TIP3    H261386   4.993   0.689  16.399  0.2526 -0.5941  0.4364
13299TIP3   OH261387   2.845   1.129   2.279 -0.7788 -0.5196 -0.1861
13299TIP3    H161388   2.750   1.131   2.288 -0.7817 -2.7836  0.7472
13299TIP3    H261389   2.872   1.047   2.319  1.5976  0.0823 -0.3971
13300TIP3   OH261390   3.335   6.545   1.833  0.1123 -0.4710  0.5771
13300TIP3    H161391   3.415   6.515   1.876  1.8771 -0.1179 -2.1599
13300TIP3    H261392   3.331   6.493   1.752 -1.2244  0.9833 -0.3516
13301TIP3   OH261393   5.012   2.687  14.701 -0.0345  0.5368 -0.3159
13301TIP3    H161394   5.056   2.760  14.745  0.7556 -0.0094 -0.1702
13301TIP3    H261395   4.975   2.725  14.622 -0.8037  1.3749  0.4317
13302TIP3   OH261396   4.514   3.666   3.773 -0.4204  0.2005  0.2715
13302TIP3    H161397   4.445   3.644   3.711 -1.7258 -0.5530  1.8936
13302TIP3    H261398   4.469   3.712   3.844  0.7497 -0.1748  1.2986
13303TIP3   OH261399   6.326   1.485  15.635  0.2255 -0.4040 -0.5984
13303TIP3    H161400   6.295   1.412  15.581  1.2556 -2.1607  1.0632
13303TIP3    H261401   6.246   1.520  15.675 -0.5131  0.7389 -2.9296
13304TIP3   OH261402   1.734   0.433   1.118  0.1446 -0.4450 -0.7498
13304TIP3    H161403   1.704   0.433   1.208  0.7118 -4.0015 -0.4079
13304TIP3    H261404   1.826   0.461   1.123  0.5351 -1.7649  0.0172
13305TIP3   OH261405   0.261   6.694  15.077  0.1409 -0.1639 -0.2899
13305TIP3    H161406   0.281   6.602  15.096 -0.0812 -0.2898 -0.6600
13305TIP3    H261407   0.270   6.701  14.982 -0.2411  0.1026 -0.3079
13306TIP3   OH261408   1.744   2.405   2.100  0.5128  0.3394  0.0489
13306TIP3    H161409   1.649   2.393   2.106  0.7614 -1.5958  0.8015
13306TIP3    H261410   1.756   2.463   2.025 -1.2569  0.5623 -0.1087
13307TIP3   OH261411   3.096   4.094   1.602 -0.0820  0.0720 -0.4973
13307TIP3    H161412   3.025   4.152   1.633 -0.7295  0.0366 -1.8418
13307TIP3    H261413   3.116   4.126   1.514  0.7497 -0.6819 -0.5918
13308TIP3   OH261414   1.765   5.517   2.466 -0.4054  0.1238 -0.1428
13308TIP3    H161415   1.681   5.550   2.497  0.7732  0.5989  2.8788
13308TIP3    H261416   1.788   5.573   2.392 -0.8362  2.8468  1.6453
13309TIP3   OH261417   6.211   1.923  16.522 -0.0532 -0.1679  0.3517
13309TIP3    H161418   6.140   1.900  16.582 -0.9291  0.2211 -0.5099
13309TIP3    H261419   6.205   2.018  16.514 -1.1901 -0.3685 -1.7988
13310TIP3   OH261420   4.838   4.759  17.021 -0.5496 -0.0132 -0.1975
13310TIP3    H161421   4.809   4.816  17.092 -0.2213  0.3422 -0.3483
13310TIP3    H261422   4.866   4.678  17.065 -0.3729  0.1953  0.0771
13311TIP3   OH261423   3.554   5.144  13.846 -0.2575 -0.0442 -0.2660
13311TIP3    H161424   3.600   5.062  13.862 -0.0241  0.3360  1.1732
13311TIP3    H261425   3.477   5.119  13.795  0.2536 -1.0327 -0.5648
13312TIP3   OH261426   5.685   4.289  16.442 -0.1009  0.8315 -0.2531
13312TIP3    H161427   5.652   4.307  16.354  0.4531  1.2473 -0.3770
13312TIP3    H261428   5.778   4.268  16.429  0.7541  3.7166  0.5039
13313TIP3   OH261429   0.155   5.749   2.314 -0.2134  0.6019 -0.1816
13313TIP3    H161430   0.091   5.819   2.304 -1.9484 -0.4699  2.3950
13313TIP3    H261431   0.236   5.794   2.339 -1.1066  1.7657  0.7222
13314TIP3   OH261432   1.020   1.707  13.654  0.0241 -0.2038  0.8597
13314TIP3    H161433   1.011   1.648  13.578  0.2307 -0.6005  1.1385
13314TIP3    H261434   0.946   1.767  13.646  0.2431 -0.0191  0.1493
13315TIP3   OH261435   4.743   5.393  11.474  0.3057 -0.2810  0.2032
13315TIP3    H161436   4.754   5.481  11.510  0.2360 -0.5111  0.8007
13315TIP3    H261437   4.729   5.407  11.380  1.7308  0.2658  0.0402
13316TIP3   OH261438   1.323   6.106   0.460  0.4009 -0.5699  0.3410
13316TIP3    H161439   1.269   6.030   0.440  0.0425 -0.5637  1.2135
13316TIP3    H261440   1.353   6.138   0.375 -0.3463 -1.0315 -0.1063
13317TIP3   OH261441   6.784   5.688  11.027  0.2506  0.0477  0.1137
13317TIP3    H161442   6.721   5.718  11.093  0.2416 -0.9914  0.5959
13317TIP3    H261443   6.729   5.660  10.953  0.1442 -0.6332  0.4415
13318TIP3   OH261444   1.509   4.243  16.243  0.2095  0.5632  0.3257
13318TIP3    H161445   1.516   4.319  16.301  0.8575  0.4862  0.3574
13318TIP3    H261446   1.500   4.281  16.155  0.7579  0.6839  0.3164
13319TIP3   OH261447   5.455   3.012  12.415  0.0025  0.0500 -0.4163
13319TIP3    H161448   5.472   2.919  12.428  0.6460  0.1016 -0.8698
13319TIP3    H261449   5.392   3.034  12.484 -0.7247 -0.8836 -0.7642
13320TIP3   OH261450   0.666   2.682  13.082 -0.2859 -0.2182 -0.4619
13320TIP3    H161451   0.720   2.754  13.114 -2.5414  1.2026  0.4419
13320TIP3    H261452   0.631   2.641  13.161 -0.3205 -1.2790 -1.0128
13321TIP3   OH261453   5.128   2.947   1.999 -0.1434  0.1179 -0.5007
13321TIP3    H161454   5.101   2.893   2.073  0.4405 -0.6706 -0.8454
13321TIP3    H261455   5.143   2.884   1.928 -0.5422  0.8379 -1.2514
13322TIP3   OH261456   5.378   4.758  11.969 -0.1062 -0.2200  0.4058
13322TIP3    H161457   5.392   4.776  11.876 -2.8403  0.8062  0.1106
13322TIP3    H261458   5.374   4.844  12.010 -0.4281 -0.6101  1.2147
13323TIP3   OH261459   2.849   0.997   5.788  0.0445  0.3769 -0.6375
13323TIP3    H161460   2.806   0.911   5.784 -0.6688  0.7288 -0.7122
13323TIP3    H261461   2.880   1.013   5.699  0.1205  0.2305 -0.6383
13324TIP3   OH261462   1.102   6.186  15.817 -0.4322  0.7397  0.3181
13324TIP3    H161463   1.178   6.138  15.784 -0.6329  2.4213 -2.9863
13324TIP3    H261464   1.139   6.251  15.877  0.7990  1.4781 -1.1688
13325TIP3   OH261465   3.182   2.276   5.229 -0.4057  0.3772  0.6523
13325TIP3    H161466   3.183   2.213   5.301  1.5829  1.2025  1.4369
13325TIP3    H261467   3.135   2.351   5.264 -2.4388 -0.4434 -0.1524
13326TIP3   OH261468   2.149   0.576   5.786  0.0650 -0.7435 -0.9377
13326TIP3    H161469   2.113   0.534   5.708 -0.0202 -1.0006 -0.7608
13326TIP3    H261470   2.079   0.571   5.851  0.1515 -0.5711 -0.8290
13327TIP3   OH261471   5.883   6.668   3.986 -0.0960  0.3837 -0.3234
13327TIP3    H161472   5.923   6.676   3.900 -0.0356 -0.8265 -0.4188
13327TIP3    H261473   5.924   6.738   4.038  1.1065  0.0600 -0.8081
13328TIP3   OH261474   4.714   1.710  16.080 -0.7318  0.1314 -0.5009
13328TIP3    H161475   4.733   1.778  16.016  0.6355  0.3587  0.1072
13328TIP3    H261476   4.800   1.680  16.109 -1.2973 -2.1011 -0.9925
13329TIP3   OH261477   1.067   6.672  12.551 -0.0378  0.6674 -0.2599
13329TIP3    H161478   1.040   6.763  12.556  1.8744  1.2451  0.3457
13329TIP3    H261479   1.097   6.661  12.461 -2.5190 -0.0987 -1.0659
13330TIP3   OH261480   5.519   4.600   3.212 -0.2358  0.4371  0.0145
13330TIP3    H161481   5.542   4.597   3.120 -0.6386 -0.0232 -0.0787
13330TIP3    H261482   5.430   4.564   3.216 -0.3148  0.6706  0.5516
13331TIP3   OH261483   3.233   5.330   2.780 -0.1168 -0.1948  0.3084
13331TIP3    H161484   3.216   5.299   2.691  0.3653 -1.1973  0.5526
13331TIP3    H261485   3.304   5.274   2.812  0.5647  0.9510  0.8904
13332TIP3   OH261486   4.585   0.710   1.521 -0.0367 -0.5848 -0.1907
13332TIP3    H161487   4.554   0.651   1.590  1.5352  1.5350  2.5396
13332TIP3    H261488   4.634   0.778   1.568  0.6055  1.3664 -3.3885
13333TIP3   OH261489   5.940   2.915  11.907 -0.0116  0.1129 -0.0706
13333TIP3    H161490   5.982   2.832  11.928 -0.1098  0.3342  1.1004
13333TIP3    H261491   5.926   2.957  11.992 -1.1664  0.7398 -0.5456
13334TIP3   OH261492   2.074   3.320  13.651  0.0098 -0.4644 -0.0741
13334TIP3    H161493   2.002   3.354  13.704 -0.0869 -0.8241  0.0215
13334TIP3    H261494   2.127   3.270  13.713 -0.6317 -1.7066 -0.5174
13335TIP3   OH261495   3.196   4.175  13.963  0.3592  0.1265 -0.0444
13335TIP3    H161496   3.175   4.228  14.040  0.3882 -0.6979  0.5393
13335TIP3    H261497   3.117   4.125  13.945  0.0974  0.8458 -1.0138
13336TIP3   OH261498   3.107   0.613  13.391  0.4948  0.4386 -0.4895
13336TIP3    H161499   3.182   0.644  13.442  0.7355  0.8596 -1.0921
13336TIP3    H261500   3.116   0.656  13.306 -0.2068  0.1734 -0.7063
13337TIP3   OH261501   4.822   6.813   0.949 -0.6470 -0.4966  0.1850
13337TIP3    H161502   4.882   6.818   0.875  0.6034  4.0643  1.1442
13337TIP3    H261503   4.735   6.825   0.910 -0.2324 -0.3706 -0.7379
13338TIP3   OH261504   2.551   5.665  15.832  0.4452  0.3711 -0.3256
13338TIP3    H161505   2.481   5.625  15.883  0.7552 -0.6422 -0.6622
13338TIP3    H261506   2.611   5.700  15.898 -0.0128  0.6061 -0.0259
13339TIP3   OH261507   4.268   1.401   4.784  0.0478  0.1532 -0.7350
13339TIP3    H161508   4.338   1.346   4.748 -0.8772 -1.2813 -0.4371
13339TIP3    H261509   4.231   1.446   4.709  0.7201  0.2420 -1.0157
13340TIP3   OH261510   2.648   6.677   4.701 -0.0742 -0.4854 -0.8783
13340TIP3    H161511   2.735   6.713   4.681  0.3129 -1.8448 -1.7573
13340TIP3    H261512   2.597   6.693   4.621 -0.2876 -0.7115 -0.7865
13341TIP3   OH261513   0.657   3.180   1.340 -0.1743 -0.5334  0.5070
13341TIP3    H161514   0.644   3.265   1.297  0.8497 -1.0407 -0.8607
13341TIP3    H261515   0.613   3.117   1.284 -1.9415 -0.8319  2.1182
13342TIP3   OH261516   0.478   6.507   0.082  0.4087  0.2350  0.3354
13342TIP3    H161517   0.504   6.552   0.002 -0.2002 -1.4169 -0.8442
13342TIP3    H261518   0.526   6.424   0.081 -1.4754 -0.9180  0.3543
13343TIP3   OH261519   5.886   5.811   0.673  0.0080  0.2464  0.0953
13343TIP3    H161520   5.812   5.839   0.619  0.4067 -1.1349 -1.2380
13343TIP3    H261521   5.865   5.720   0.696  0.5330  0.3630  1.0748
13344TIP3   OH261522   0.167   1.836  11.073 -0.4320  0.2902 -0.0858
13344TIP3    H161523   0.203   1.770  11.133 -1.1479 -0.0624 -0.0248
13344TIP3    H261524   0.239   1.897  11.058 -0.2476  0.4109  1.1710
13345TIP3   OH261525   6.814   2.074  15.644 -0.2925 -0.3473 -0.0771
13345TIP3    H161526   6.870   2.028  15.581  0.8668 -0.1569  0.7767
13345TIP3    H261527   6.857   2.061  15.729 -0.5297  1.3750  0.3487
13346TIP3   OH261528   5.077   2.826  11.540  0.2077  0.1768 -0.7745
13346TIP3    H161529   5.097   2.919  11.534 -0.7569  0.6800  2.2218
13346TIP3    H261530   5.135   2.793  11.608 -1.4060 -0.7537  0.2135
13347TIP3   OH261531   3.997   1.178   0.035 -0.1803 -0.5295  0.2073
13347TIP3    H161532   3.949   1.232  -0.028  1.5790 -0.2141 -0.9266
13347TIP3    H261533   4.035   1.108  -0.018  0.2605 -1.0090  1.1409
13348TIP3   OH261534   0.074   5.278  11.418  0.4193 -0.3832 -0.2714
13348TIP3    H161535   0.012   5.341  11.454  0.6392  0.0513 -0.6466
13348TIP3    H261536   0.031   5.193  11.431 -0.1934 -0.1022 -0.3952
13349TIP3   OH261537   3.514   4.938   1.337 -0.7435 -0.1377  0.3059
13349TIP3    H161538   3.477   4.947   1.425  0.5851 -1.5983  1.0762
13349TIP3    H261539   3.527   4.844   1.326  1.5160  0.1936 -0.3848
13350TIP3   OH261540   3.776   3.894  13.268  0.3395  0.0903 -0.2089
13350TIP3    H161541   3.778   3.929  13.357 -3.7917 -0.6966  0.3891
13350TIP3    H261542   3.810   3.965  13.214  0.7732  1.4731  1.7569
13351TIP3   OH261543   1.586   3.918   3.039 -0.2164  0.7034  0.4871
13351TIP3    H161544   1.555   3.827   3.039 -0.7107  0.8639 -0.1246
13351TIP3    H261545   1.680   3.911   3.027 -0.4071  0.3015 -0.9787
13352TIP3   OH261546   2.457   3.438  16.210 -0.2604  0.2074 -0.0981
13352TIP3    H161547   2.507   3.473  16.136 -2.2939  0.0850 -1.6605
13352TIP3    H261548   2.435   3.515  16.262  2.2752  0.1533  1.1881
13353TIP3   OH261549   2.462   4.444   5.239 -0.2715 -0.3121  0.3226
13353TIP3    H161550   2.533   4.384   5.217  0.5505  0.4622  0.8005
13353TIP3    H261551   2.466   4.511   5.171 -0.1949  0.0328  0.6678
13354TIP3   OH261552   1.015   1.843   0.141  0.3867 -0.3545 -0.0129
13354TIP3    H161553   1.054   1.896   0.072  1.4220 -2.3248 -1.0243
13354TIP3    H261554   1.046   1.883   0.222  0.7506  0.8437 -0.7190
13355TIP3   OH261555   2.004   4.509   6.835 -0.3256 -0.2270 -0.0149
13355TIP3    H161556   1.913   4.517   6.805 -1.0123  1.3979  2.2388
13355TIP3    H261557   2.048   4.462   6.764 -2.0576  2.1292 -2.9135
13356TIP3   OH261558   2.756   4.346   4.325  0.0294 -0.2176 -0.1305
13356TIP3    H161559   2.661   4.342   4.323 -0.0194  0.3552 -2.5905
13356TIP3    H261560   2.785   4.257   4.306  0.0798 -0.7342  2.0708
13357TIP3   OH261561   0.878   0.025   0.211 -0.7955  0.1860  0.2718
13357TIP3    H161562   0.971   0.041   0.198 -0.8539  1.2105  0.9834
13357TIP3    H261563   0.834   0.076   0.142 -0.8911  1.3524  1.1628
13358TIP3   OH261564   3.149   1.076  13.574  0.2415 -0.1745 -0.2111
13358TIP3    H161565   3.084   1.109  13.513 -0.1193 -0.3912  0.0528
13358TIP3    H261566   3.114   1.097  13.660  1.6639  1.9080 -0.0761
13359TIP3   OH261567   5.775   1.767   0.439  0.1537  0.6994 -0.2207
13359TIP3    H161568   5.747   1.708   0.369  2.1283 -1.6037  0.7650
13359TIP3    H261569   5.795   1.849   0.394  0.5868 -0.4374 -2.2539
13360TIP3   OH261570   5.914   4.059   0.757 -0.0493  0.5826  0.1808
13360TIP3    H161571   5.901   3.965   0.758 -1.5651  0.7616  0.3182
13360TIP3    H261572   5.898   4.085   0.665  1.2311  0.6120 -0.0457
13361TIP3   OH261573   3.248   1.478   4.322  0.1846  0.4737 -0.3591
13361TIP3    H161574   3.174   1.535   4.298  0.1866  1.1550  1.0957
13361TIP3    H261575   3.266   1.427   4.244 -2.3458 -0.2734 -0.5533
13362TIP3   OH261576   0.673   6.173   0.676 -0.8744  0.1544 -0.1766
13362TIP3    H161577   0.720   6.238   0.625  0.0829  0.1598  0.6730
13362TIP3    H261578   0.621   6.225   0.738 -1.2005  0.1309 -0.4298
13363TIP3   OH261579   6.451   5.902  13.151 -0.1072 -0.0602  0.4955
13363TIP3    H161580   6.382   5.947  13.103 -1.7855 -3.3614 -0.5193
13363TIP3    H261581   6.469   5.823  13.099  2.4317 -0.7520  2.2041
13364TIP3   OH261582   4.085   0.082  15.224  0.2241 -0.0002 -0.2125
13364TIP3    H161583   4.001   0.123  15.201  0.1590 -0.4413 -0.8023
13364TIP3    H261584   4.068   0.039  15.308 -0.9879 -2.4012 -1.5793
13365TIP3   OH261585   3.236   1.987  13.967  0.0879  0.0935  0.0286
13365TIP3    H161586   3.232   2.083  13.972  1.2568  0.2068 -0.8690
13365TIP3    H261587   3.150   1.961  13.933  0.1851  0.9219 -0.8911
13366TIP3   OH261588   4.047   0.283  11.544 -0.1082  0.1897 -0.3884
13366TIP3    H161589   4.120   0.334  11.510  1.9909 -2.8142 -0.8641
13366TIP3    H261590   3.973   0.306  11.488  1.0569  1.6772 -1.4001
13367TIP3   OH261591   6.356   3.498   4.661  0.3987 -0.4922  1.0340
13367TIP3    H161592   6.407   3.418   4.648  1.2210  0.2748 -0.9909
13367TIP3    H261593   6.303   3.505   4.581 -0.4607  0.4384  1.6625
13368TIP3   OH261594   0.859   5.484   0.428 -0.3844  0.0319 -0.3202
13368TIP3    H161595   0.864   5.537   0.507  1.8257  0.9230 -0.9757
13368TIP3    H261596   0.811   5.538   0.365 -0.3139  0.2258 -0.2080
13369TIP3   OH261597   3.212   6.450   2.984 -0.3551  0.1895  0.0271
13369TIP3    H161598   3.188   6.540   2.961 -0.2559  0.2427  0.1305
13369TIP3    H261599   3.227   6.454   3.079 -1.7521 -0.2318  0.2976
13370TIP3   OH261600   1.247   5.856   2.745  0.2418 -0.6982 -0.4282
13370TIP3    H161601   1.285   5.936   2.708 -1.4582  0.6333  0.5533
13370TIP3    H261602   1.236   5.875   2.838 -2.0608 -1.2660 -0.5275
13371TIP3   OH261603   2.440   2.547   5.125  0.0835 -0.6720 -0.2844
13371TIP3    H161604   2.371   2.573   5.063 -0.0016 -1.5720 -0.5776
13371TIP3    H261605   2.417   2.593   5.206 -0.9646 -1.0839 -0.3261
13372TIP3   OH261606   0.134   4.799  11.375 -0.4689 -0.2191 -0.1261
13372TIP3    H161607   0.128   4.729  11.440  0.2368  0.2363  0.4481
13372TIP3    H261608   0.224   4.831  11.383 -0.4861  0.0913 -1.0743
13373TIP3   OH261609   0.266   4.668  14.095 -0.3045  0.1896  0.3936
13373TIP3    H161610   0.294   4.586  14.055 -0.6420  0.2678 -0.0211
13373TIP3    H261611   0.293   4.735  14.033 -1.9824  0.2134 -0.3684
13374TIP3   OH261612   5.511   2.741  15.748 -0.0766 -0.2555 -0.6094
13374TIP3    H161613   5.455   2.666  15.731  1.5159 -1.4761 -0.6597
13374TIP3    H261614   5.471   2.784  15.823 -0.8468 -1.3113 -0.3905
13375TIP3   OH261615   6.582   4.264   0.328  0.1679 -0.6651 -0.4910
13375TIP3    H161616   6.571   4.359   0.318  0.8492 -0.6943 -1.8586
13375TIP3    H261617   6.575   4.249   0.422 -0.7730  0.6286 -0.3245
13376TIP3   OH261618   5.268   0.918   2.854 -0.4708  0.4190 -0.0985
13376TIP3    H161619   5.176   0.907   2.830 -0.2058 -2.6229 -0.1271
13376TIP3    H261620   5.317   0.873   2.786  1.0476  1.5704  0.1712
13377TIP3   OH261621   5.885   0.132  15.583 -0.2478  0.1375  0.5411
13377TIP3    H161622   5.870   0.089  15.499  1.5787  0.8359 -0.2066
13377TIP3    H261623   5.815   0.100  15.640 -1.2297 -0.7477 -1.0915
13378TIP3   OH261624   5.652   2.027  14.665  0.3587 -0.1632 -0.1252
13378TIP3    H161625   5.679   2.117  14.685  1.5979 -0.7811  1.2089
13378TIP3    H261626   5.569   2.016  14.710  1.1583 -0.2550  1.4063
13379TIP3   OH261627   4.732   6.169  14.243 -0.3620 -0.5350 -0.5168
13379TIP3    H161628   4.713   6.134  14.330  0.8331  0.1433  0.0451
13379TIP3    H261629   4.647   6.172  14.199 -1.0059 -0.7416  0.6777
13380TIP3   OH261630   4.332   3.202   4.096 -0.4601 -0.0518  0.0048
13380TIP3    H161631   4.386   3.268   4.054 -2.3107  1.4705 -0.1036
13380TIP3    H261632   4.275   3.169   4.027 -0.8148 -0.4266  0.4625
13381TIP3   OH261633   0.916   6.111  14.332  0.2533  0.4064 -0.1565
13381TIP3    H161634   0.973   6.188  14.331  0.8062  0.0069 -1.2072
13381TIP3    H261635   0.888   6.101  14.241  1.5541 -1.6103 -0.3998
13382TIP3   OH261636   1.958   6.517  16.160 -0.0172  0.3051  0.2055
13382TIP3    H161637   1.936   6.536  16.251 -0.3833 -1.6625  0.5768
13382TIP3    H261638   2.053   6.528  16.155  0.0390  0.1792  0.9061
13383TIP3   OH261639   3.982   5.435   3.262 -0.2592 -0.5474 -0.0931
13383TIP3    H161640   4.070   5.458   3.231 -0.7222  1.3114 -0.1685
13383TIP3    H261641   3.997   5.363   3.323  1.4788  0.4267  0.7416
13384TIP3   OH261642   4.916   5.213  12.130 -0.0265  0.5001 -0.2942
13384TIP3    H161643   4.916   5.265  12.211 -0.9575 -0.2197  0.1894
13384TIP3    H261644   5.006   5.183  12.121  0.4558  1.8898 -0.3954
13385TIP3   OH261645   2.565   6.620  16.852  0.4261  0.7539  0.2534
13385TIP3    H161646   2.661   6.622  16.852  0.4296  0.9530  1.3860
13385TIP3    H261647   2.542   6.562  16.925 -0.3119 -0.9830 -1.2633
13386TIP3   OH261648   6.680   1.034  16.642 -0.5430 -0.8127 -0.3414
13386TIP3    H161649   6.726   1.062  16.563 -1.0150  0.6842 -0.1295
13386TIP3    H261650   6.749   1.012  16.704 -0.1557 -1.1684 -0.8914
13387TIP3   OH261651   2.611   4.768   0.323 -0.0424 -0.1394 -0.0074
13387TIP3    H161652   2.678   4.699   0.332  0.4240  0.2363 -0.5132
13387TIP3    H261653   2.617   4.795   0.232 -0.1555  0.6406  0.2076
13388TIP3   OH261654   5.156   6.086   5.471  0.0451 -0.1271  0.2658
13388TIP3    H161655   5.212   6.163   5.464 -0.7615  0.3928 -0.6131
13388TIP3    H261656   5.155   6.049   5.382  0.0425 -0.8769  0.5715
13389TIP3   OH261657   4.851   6.450  12.811  0.3522  0.1109  0.2483
13389TIP3    H161658   4.894   6.520  12.761  0.3131 -0.1257 -0.1145
13389TIP3    H261659   4.758   6.472  12.808  0.3250 -0.0460  0.0015
13390TIP3   OH261660   4.057   5.352  13.862 -0.2485 -0.1291 -0.1950
13390TIP3    H161661   4.104   5.405  13.798 -1.0716 -0.5448 -1.1733
13390TIP3    H261662   4.089   5.263  13.847  0.2381 -0.1041  0.6208
13391TIP3   OH261663   4.750   5.669  11.571 -0.0901  0.5691  0.1187
13391TIP3    H161664   4.845   5.684  11.571  0.2450 -1.2662 -0.7892
13391TIP3    H261665   4.720   5.705  11.487  0.2221 -1.0055 -0.6928
13392TIP3   OH261666   0.166   4.105   5.633 -0.0313 -0.2114 -0.4616
13392TIP3    H161667   0.191   4.198   5.627 -1.3218  0.3853  1.9607
13392TIP3    H261668   0.245   4.061   5.664 -0.6705  1.1164  3.8498
13393TIP3   OH261669   3.200   0.732   5.796  0.2376  0.5778  0.3762
13393TIP3    H161670   3.277   0.686   5.763  0.2251 -0.2265  1.3988
13393TIP3    H261671   3.128   0.701   5.741  0.5886  1.1384 -0.4176
13394TIP3   OH261672   2.551   3.398  13.294 -0.3031 -0.4464  0.2098
13394TIP3    H161673   2.523   3.337  13.226 -1.9535 -2.4456  2.4858
13394TIP3    H261674   2.472   3.416  13.344  0.4146  2.6496  0.4186
13395TIP3   OH261675   1.107   4.281  14.599 -0.5843  1.1758  0.0763
13395TIP3    H161676   1.012   4.273  14.586 -0.3512 -2.9318 -0.4564
13395TIP3    H261677   1.118   4.269  14.694 -0.5752  0.2937 -0.0245
13396TIP3   OH261678   5.651   4.388   1.783 -0.1817  0.3845 -0.1515
13396TIP3    H161679   5.607   4.345   1.710  0.2823 -1.7958  0.7636
13396TIP3    H261680   5.744   4.370   1.769  0.0586  1.3119  0.1619
13397TIP3   OH261681   0.003   3.214  16.772  1.0111 -0.0155  0.4515
13397TIP3    H161682  -0.003   3.298  16.817  2.4975 -0.3998  1.4621
13397TIP3    H261683  -0.024   3.232  16.682 -0.6247  1.0897  1.1320
13398TIP3   OH261684   4.770   2.701  12.502 -0.7629 -0.5728 -0.0249
13398TIP3    H161685   4.753   2.788  12.466 -0.3634 -1.0249 -1.3567
13398TIP3    H261686   4.735   2.640  12.437 -0.6188 -1.4127  0.6647
13399TIP3   OH261687   3.322   4.254   0.409 -0.3958 -0.0037  0.6647
13399TIP3    H161688   3.306   4.189   0.340  0.4733 -0.5968  1.0066
13399TIP3    H261689   3.275   4.220   0.485  1.1545 -0.9534  1.2302
13400TIP3   OH261690   4.555   5.697   0.804 -0.5277 -1.0582 -0.9729
13400TIP3    H161691   4.563   5.712   0.898 -4.2587 -0.0224 -0.6739
13400TIP3    H261692   4.641   5.720   0.769  1.0401 -1.5875  2.1293
13401TIP3   OH261693   0.871   2.190   3.507  0.3076  0.2349  0.0807
13401TIP3    H161694   0.775   2.192   3.505  0.2242 -1.0230  1.6562
13401TIP3    H261695   0.896   2.185   3.414 -1.1722 -0.3211 -0.3182
13402TIP3   OH261696   1.092   2.539   1.266  0.5683 -0.0687 -0.0560
13402TIP3    H161697   1.085   2.453   1.225 -0.6418  0.0288 -0.0954
13402TIP3    H261698   1.069   2.600   1.196  0.8076  0.2406  0.1389
13403TIP3   OH261699   2.160   5.855  10.867 -0.2678 -0.1072 -0.1960
13403TIP3    H161700   2.204   5.774  10.844  1.4485  1.1337 -1.6152
13403TIP3    H261701   2.069   5.842  10.842  0.1953 -1.2439 -1.3746
13404TIP3   OH261702   4.634   3.364  12.626 -0.1957 -0.0311  0.6644
13404TIP3    H161703   4.601   3.380  12.714 -0.8817  1.7008  0.1173
13404TIP3    H261704   4.616   3.271  12.611 -0.5905 -0.2207  2.1160
13405TIP3   OH261705   6.621   2.967  12.251 -0.2386 -0.4984  0.3088
13405TIP3    H161706   6.668   2.965  12.168  0.0420 -1.0091  0.4791
13405TIP3    H261707   6.621   2.876  12.281  0.9266 -0.1029  1.5739
13406TIP3   OH261708   2.446   3.210   2.476  0.5944 -0.2590 -0.4462
13406TIP3    H161709   2.449   3.218   2.571  1.1549  0.5562 -0.5221
13406TIP3    H261710   2.537   3.204   2.449  0.4465 -0.2767 -0.9528
13407TIP3   OH261711   2.869   6.795   4.629 -0.9314  0.3784 -0.0187
13407TIP3    H161712   2.941   6.785   4.567 -1.7507 -1.6604 -0.7535
13407TIP3    H261713   2.894   6.868   4.685  0.9625  0.7083 -1.2291
13408TIP3   OH261714   5.788   1.929   6.597 -0.0844 -0.2052 -0.3312
13408TIP3    H161715   5.835   1.883   6.527 -0.7734  1.3313 -1.8759
13408TIP3    H261716   5.713   1.873   6.616  1.0518 -1.5174  0.5038
13409TIP3   OH261717   6.425   0.081   1.566 -0.1635  0.1266  0.0171
13409TIP3    H161718   6.447   0.032   1.487  0.0536 -1.6890  1.1548
13409TIP3    H261719   6.509   0.100   1.606 -0.3417 -0.6191  0.7603
13410TIP3   OH261720   1.955   1.746  11.971  0.7043 -0.1330 -0.5059
13410TIP3    H161721   2.003   1.798  12.036 -0.4163  0.6278 -0.2557
13410TIP3    H261722   2.017   1.737  11.898  1.4026  0.4116  0.0022
13411TIP3   OH261723   2.559   0.364  14.303  0.6022 -0.0289 -0.4242
13411TIP3    H161724   2.604   0.449  14.300  0.1653  0.2389  0.3143
13411TIP3    H261725   2.597   0.314  14.230  1.5357  0.4650 -0.2916
13412TIP3   OH261726   6.054   0.612   2.533 -0.6941  0.0732 -0.1304
13412TIP3    H161727   6.079   0.698   2.567  1.8513 -0.6797  0.0605
13412TIP3    H261728   6.043   0.558   2.611 -1.7904  0.0610 -0.2746
13413TIP3   OH261729   0.779   6.022  12.540 -0.3626 -0.4130 -0.2415
13413TIP3    H161730   0.707   5.981  12.491 -1.2474  0.1090  0.5775
13413TIP3    H261731   0.751   6.016  12.631  0.6831 -0.2535  0.0934
13414TIP3   OH261732   1.833   4.974   0.958  0.0099  0.0320 -0.5261
13414TIP3    H161733   1.763   4.965   0.894  1.1592 -0.9908 -1.6956
13414TIP3    H261734   1.819   5.061   0.997 -1.1791  0.3470 -1.5871
13415TIP3   OH261735   6.408   4.971  16.171  0.2387  0.1082 -0.3213
13415TIP3    H161736   6.471   5.043  16.166  1.5834 -1.0817 -1.4374
13415TIP3    H261737   6.365   4.983  16.256  0.0376  2.4921 -0.6953
13416TIP3   OH261738   4.322   4.295  16.756 -0.0791 -0.1470  0.5057
13416TIP3    H161739   4.247   4.350  16.777 -0.1643 -0.5530  1.2979
13416TIP3    H261740   4.341   4.249  16.837  0.9733 -0.1124  0.2932
13417TIP3   OH261741   5.030   3.954   4.267 -0.7032 -0.8681  0.0025
13417TIP3    H161742   4.946   3.987   4.236 -0.9342  0.1210  1.5714
13417TIP3    H261743   5.008   3.902   4.344  0.0901 -0.9585  0.1730
13418TIP3   OH261744   4.372   2.947   4.656 -0.2773  0.3435  0.2344
13418TIP3    H161745   4.280   2.951   4.683 -0.3680  1.6051 -0.1967
13418TIP3    H261746   4.372   2.981   4.566  0.5706  0.0837  0.1254
13419TIP3   OH261747   1.222   5.373  14.928  0.0311  0.3887 -0.0546
13419TIP3    H161748   1.144   5.395  14.978 -0.4417  1.5003 -1.2604
13419TIP3    H261749   1.256   5.457  14.898  0.8437 -0.1971 -0.8088
13420TIP3   OH261750   0.070   0.151  13.259 -0.9457  0.0693 -0.2462
13420TIP3    H161751   0.143   0.092  13.279 -0.4969 -0.1110 -2.2268
13420TIP3    H261752   0.088   0.230  13.311 -1.3998 -1.3440  2.2004
13421TIP3   OH261753   5.652   3.001   5.577 -0.1738  0.5727 -0.4316
13421TIP3    H161754   5.641   3.095   5.560 -0.8355  0.5428 -0.1882
13421TIP3    H261755   5.666   2.963   5.491  0.5771  0.9534 -0.4870
13422TIP3   OH261756   2.669   6.007   2.326  0.1935  0.3242  0.5934
13422TIP3    H161757   2.580   6.044   2.322  0.2241  0.5369  1.7076
13422TIP3    H261758   2.693   6.012   2.418  0.3580 -2.1215  0.7439
13423TIP3   OH261759   5.702   4.980  10.706  0.1647 -0.1442  0.4648
13423TIP3    H161760   5.782   5.007  10.752 -0.0449 -0.2637  0.9133
13423TIP3    H261761   5.660   4.920  10.767  0.0694 -0.6088 -0.0535
13424TIP3   OH261762   1.133   4.889  16.116  0.2056  0.1258 -0.1213
13424TIP3    H161763   1.098   4.819  16.172  0.2618 -0.1780 -0.4673
13424TIP3    H261764   1.196   4.935  16.172  0.7327 -0.5738 -0.1386
13425TIP3   OH261765   2.259   1.812   3.235  1.1846 -0.4159  0.1112
13425TIP3    H161766   2.271   1.906   3.244  0.3813 -0.1114 -1.5652
13425TIP3    H261767   2.192   1.790   3.300 -0.8486  0.7620 -1.4622
13426TIP3   OH261768   0.735   4.193   6.152 -0.1899  0.4122  0.2760
13426TIP3    H161769   0.810   4.203   6.211  0.8666  0.1744 -0.9702
13426TIP3    H261770   0.774   4.162   6.069 -1.6357  0.5537 -0.4846
13427TIP3   OH261771   2.028   3.772   4.224  0.0020  0.4353 -0.0394
13427TIP3    H161772   1.988   3.693   4.259  1.4939 -0.6291 -0.6034
13427TIP3    H261773   2.013   3.838   4.291 -0.5187 -0.5512  0.8530
13428TIP3   OH261774   1.269   2.032  15.320  0.2360 -0.4822 -0.3679
13428TIP3    H161775   1.242   2.041  15.412 -1.5066  3.3926 -1.0601
13428TIP3    H261776   1.357   2.070  15.317  0.8186 -1.7698 -0.1481
13429TIP3   OH261777   6.240   1.150  17.074 -0.2342  0.7811 -0.6926
13429TIP3    H161778   6.289   1.115  17.148  1.5499  1.1840 -1.6065
13429TIP3    H261779   6.176   1.209  17.113 -0.7163 -0.5582  0.6189
13430TIP3   OH261780   5.163   1.702   4.338 -0.3177 -0.2883 -0.1917
13430TIP3    H161781   5.076   1.722   4.305 -0.3061  0.3369  0.1243
13430TIP3    H261782   5.149   1.641   4.411 -0.5621  0.4067  0.3563
13431TIP3   OH261783   5.342   5.475   0.888 -0.3708  0.4013  0.1538
13431TIP3    H161784   5.338   5.429   0.804  2.6178 -0.2750  0.2724
13431TIP3    H261785   5.276   5.433   0.942 -0.9453 -0.5446 -1.2314
13432TIP3   OH261786   3.873   5.955   2.892  0.3206  0.1369  0.0531
13432TIP3    H161787   3.927   6.029   2.865 -0.2509  0.2744 -0.7493
13432TIP3    H261788   3.785   5.991   2.900 -0.0317 -0.5146 -0.6806
13433TIP3   OH261789   6.370   5.377  10.934  0.6090 -0.2631  0.0136
13433TIP3    H161790   6.295   5.431  10.909  1.4952  1.8086  1.5784
13433TIP3    H261791   6.410   5.351  10.851 -1.2531 -0.6159 -0.8269
13434TIP3   OH261792   5.839   3.358   4.165 -0.4013  0.6381  0.3755
13434TIP3    H161793   5.774   3.293   4.192  1.2435 -1.2304  0.0218
13434TIP3    H261794   5.888   3.378   4.245  0.0942  0.2620  0.1675
13435TIP3   OH261795   5.324   1.286   1.290  0.1414  0.2546  0.3752
13435TIP3    H161796   5.314   1.198   1.327 -2.2147 -0.5117 -1.8114
13435TIP3    H261797   5.395   1.278   1.227 -1.1249 -0.5656 -0.9942
13436TIP3   OH261798   2.754   3.074   1.006 -0.2045  0.0355 -0.0868
13436TIP3    H161799   2.733   2.991   0.963 -0.4870 -0.3301  0.7372
13436TIP3    H261800   2.816   3.050   1.075  2.0631  0.9070 -1.6591
13437TIP3   OH261801   0.179   3.188   1.964  0.2082  0.3691 -0.6390
13437TIP3    H161802   0.240   3.243   1.915 -0.5156  0.0482 -1.9396
13437TIP3    H261803   0.110   3.168   1.901 -1.4415  1.0296  0.8797
13438TIP3   OH261804   0.205   3.224   2.803  1.0257  0.6301 -0.4649
13438TIP3    H161805   0.202   3.187   2.714 -3.2757  0.0486 -0.3125
13438TIP3    H261806   0.224   3.148   2.859  0.1757  0.2362 -0.6894
13439TIP3   OH261807   6.732   3.194  10.967 -0.4575 -0.0429  0.0365
13439TIP3    H161808   6.785   3.270  10.945 -0.0697 -0.2788  0.1532
13439TIP3    H261809   6.736   3.137  10.890  0.1349 -0.4371  0.3503
13440TIP3   OH261810   6.418   4.735   3.342  0.3634  0.2101  0.2537
13440TIP3    H161811   6.385   4.717   3.254  1.1546  0.2725 -0.0666
13440TIP3    H261812   6.471   4.658   3.364 -0.9142 -0.4266  1.2346
13441TIP3   OH261813   0.786   4.098  15.643  0.4634 -0.5211 -0.2108
13441TIP3    H161814   0.743   4.180  15.669 -2.5432 -2.4696  1.4773
13441TIP3    H261815   0.854   4.126  15.581 -0.5714  3.1859  0.0630
13442TIP3   OH261816   0.474   1.746  11.313 -0.6023  0.8282  0.0440
13442TIP3    H161817   0.405   1.681  11.325  0.5199 -0.2410  0.8958
13442TIP3    H261818   0.469   1.801  11.392  0.2752 -0.0019  0.7007
13443TIP3   OH261819   5.508   5.471   2.877  0.2265 -0.0156 -0.3820
13443TIP3    H161820   5.424   5.512   2.898  0.7029 -0.0497  1.9255
13443TIP3    H261821   5.489   5.377   2.875  0.3878 -0.1270  1.4602
13444TIP3   OH261822   2.089   1.040  14.028 -0.3225 -0.2288  0.2700
13444TIP3    H161823   2.157   1.032  14.096 -0.1956  0.0394  0.1770
13444TIP3    H261824   2.028   1.105  14.063  1.5306  2.5443 -1.3111
13445TIP3   OH261825   5.718   1.222  14.472  0.4106 -0.3877 -0.3632
13445TIP3    H161826   5.703   1.275  14.551 -0.1498 -0.2316 -0.5721
13445TIP3    H261827   5.769   1.279  14.414  1.3256 -0.7066  0.1089
13446TIP3   OH261828   3.650   6.327   2.455 -0.0349 -0.3967 -0.0347
13446TIP3    H161829   3.607   6.358   2.535 -0.7173 -1.1850 -0.0877
13446TIP3    H261830   3.653   6.232   2.465  1.2218 -0.3957 -0.2814
13447TIP3   OH261831   0.741   0.821   5.647 -0.4785  0.1829  0.5488
13447TIP3    H161832   0.670   0.769   5.685 -0.3906  0.7974  1.6156
13447TIP3    H261833   0.766   0.774   5.568 -0.8451 -1.0367  1.1264
13448TIP3   OH261834   1.574   2.775  15.153  0.3721 -0.0040 -0.1926
13448TIP3    H161835   1.639   2.810  15.214  0.5698  1.9918 -1.4541
13448TIP3    H261836   1.546   2.692  15.192  0.7352  1.0101  2.4156
13449TIP3   OH261837   5.371   6.044   3.838  0.1104 -0.1123 -0.0932
13449TIP3    H161838   5.338   6.087   3.918 -0.4494 -1.3534  0.3616
13449TIP3    H261839   5.462   6.075   3.831 -0.1201  0.7580  0.4871
13450TIP3   OH261840   1.529   4.324   5.083  0.8031 -0.2117 -0.1408
13450TIP3    H161841   1.579   4.280   5.015 -0.7418 -0.8920 -0.8982
13450TIP3    H261842   1.481   4.393   5.037  0.4550 -0.0664  0.4193
13451TIP3   OH261843   5.999   6.629  11.552  0.4407  0.0154  0.0068
13451TIP3    H161844   6.069   6.687  11.523 -0.8554  1.2351 -0.7713
13451TIP3    H261845   6.004   6.632  11.648  1.6023 -0.1276 -0.0358
13452TIP3   OH261846   4.248   3.061  12.589  0.4594 -0.7499  0.1095
13452TIP3    H161847   4.248   3.091  12.498  2.2995 -1.6994 -0.2432
13452TIP3    H261848   4.246   2.966  12.583 -1.4280 -0.8223  1.1505
13453TIP3   OH261849   6.246   2.039  15.323 -0.4194  0.0527 -0.2419
13453TIP3    H161850   6.286   2.117  15.284 -2.5985  0.7954 -1.1434
13453TIP3    H261851   6.152   2.053  15.314 -0.9087 -3.0463 -1.1718
13454TIP3   OH261852   3.570   2.595  14.144 -0.0552 -0.0168  0.0819
13454TIP3    H161853   3.571   2.506  14.111  1.1234 -1.1191  2.7799
13454TIP3    H261854   3.618   2.646  14.078  0.7293 -1.7029 -0.7005
13455TIP3   OH261855   1.145   5.535  14.098  0.4272 -0.2972  0.0811
13455TIP3    H161856   1.202   5.604  14.133 -0.7648  1.2952 -0.9515
13455TIP3    H261857   1.142   5.469  14.167  0.4089  1.4095  1.8035
13456TIP3   OH261858   1.082   4.944   2.403  0.1776 -0.1865  0.3337
13456TIP3    H161859   1.084   4.975   2.494  1.4212  1.3724 -0.1799
13456TIP3    H261860   1.071   4.849   2.411  0.3541 -0.0951  2.1255
13457TIP3   OH261861   2.570   4.106   2.562 -0.6585 -0.4138 -0.2462
13457TIP3    H161862   2.632   4.178   2.574  0.7679 -1.4921 -0.8686
13457TIP3    H261863   2.582   4.050   2.639 -0.7397 -0.7140 -0.4473
13458TIP3   OH261864   1.102   2.315   2.608 -0.4749  0.8791  0.9035
13458TIP3    H161865   1.015   2.354   2.621 -0.8425  0.6420 -0.6169
13458TIP3    H261866   1.139   2.364   2.535 -0.6867 -1.1177 -0.6213
13459TIP3   OH261867   2.937   5.237  12.383  0.3896 -0.3853  0.1001
13459TIP3    H161868   3.002   5.298  12.419 -0.2010  0.2970  0.0426
13459TIP3    H261869   2.988   5.177  12.329  0.8668  0.7227 -0.7148
13460TIP3   OH261870   4.067   2.073   5.993  0.2999  0.3922 -0.2289
13460TIP3    H161871   4.063   2.114   6.079  0.8803 -0.1072  0.0395
13460TIP3    H261872   4.110   1.989   6.008 -1.2968 -0.5656 -0.6697
13461TIP3   OH261873   1.178   5.410   4.345  0.3519 -0.1343 -0.0323
13461TIP3    H161874   1.128   5.407   4.427  0.9031  0.8774  0.3593
13461TIP3    H261875   1.253   5.353   4.361  1.8073  1.9647  1.1414
13462TIP3   OH261876   0.420   0.715  14.875 -0.1178 -0.0455  0.2778
13462TIP3    H161877   0.467   0.724  14.958 -1.3935  0.5266  0.9603
13462TIP3    H261878   0.351   0.652  14.893  1.1615 -1.9592 -1.1040
13463TIP3   OH261879   6.595   0.524  16.307  0.2374  0.6733  0.0040
13463TIP3    H161880   6.592   0.428  16.303  2.1923  0.5900 -0.6622
13463TIP3    H261881   6.686   0.546  16.287  0.2601  2.6064  1.9095
13464TIP3   OH261882   1.220   0.198   2.483  0.1926 -0.3768 -0.4386
13464TIP3    H161883   1.276   0.186   2.407  0.4703 -0.4223 -0.2291
13464TIP3    H261884   1.256   0.138   2.549  0.9955  0.8474  0.2893
13465TIP3   OH261885   3.082   4.491  11.345  0.0282  0.0854 -0.5031
13465TIP3    H161886   3.126   4.434  11.282  1.5414 -0.6745  1.1575
13465TIP3    H261887   3.150   4.551  11.375 -0.8793  1.0112 -0.2306
13466TIP3   OH261888   6.262   5.679   0.946  0.2411  0.4952  0.6186
13466TIP3    H161889   6.240   5.692   1.038 -2.3465 -2.3628  0.5464
13466TIP3    H261890   6.335   5.618   0.947  0.0312  0.2423  0.8063
13467TIP3   OH261891   3.195   2.962  13.603  0.9075 -0.5607  0.6953
13467TIP3    H161892   3.160   3.028  13.663 -0.4607  1.4028 -2.0342
13467TIP3    H261893   3.274   3.002  13.566  0.4397 -0.6685 -0.4874
13468TIP3   OH261894   4.709   5.125   6.034  0.2789 -0.0515 -0.5834
13468TIP3    H161895   4.717   5.209   6.078  0.9627 -0.6094  0.4017
13468TIP3    H261896   4.740   5.061   6.098  0.7781 -0.9577 -1.6868
13469TIP3   OH261897   4.228   5.761   2.495 -0.0955 -0.0834 -0.3374
13469TIP3    H161898   4.250   5.677   2.536  0.2824 -0.2872 -0.9378
13469TIP3    H261899   4.284   5.825   2.539  0.2461 -0.2881 -0.4615
13470TIP3   OH261900   1.994   4.755   3.892  0.0664 -0.0716 -0.6410
13470TIP3    H161901   2.050   4.738   3.968  0.1351  1.0465 -0.4226
13470TIP3    H261902   1.927   4.687   3.895  1.2116 -1.2462 -0.7249
13471TIP3   OH261903   0.622   3.975  12.200  0.4251  0.5777  0.1502
13471TIP3    H161904   0.685   4.045  12.179  0.2868  0.7075  0.1634
13471TIP3    H261905   0.560   4.016  12.260  1.0053  0.1115  1.0926
13472TIP3   OH261906   3.217   4.244   3.709 -0.0133 -0.4037  0.2546
13472TIP3    H161907   3.288   4.301   3.737 -0.5011  1.1664 -1.4698
13472TIP3    H261908   3.155   4.245   3.782  0.3576  0.6383  0.5730
13473TIP3   OH261909   4.426   3.168  15.592 -0.3790 -0.0840 -0.3675
13473TIP3    H161910   4.371   3.125  15.527 -1.5675  2.1612 -0.9311
13473TIP3    H261911   4.515   3.159  15.557 -0.3977 -2.7998  0.0229
13474TIP3   OH261912   6.392   3.607   2.243 -0.3626 -0.3097  0.1749
13474TIP3    H161913   6.447   3.615   2.320  1.8519 -0.8417 -1.2618
13474TIP3    H261914   6.383   3.512   2.230 -1.4829 -0.2277  0.2690
13475TIP3   OH261915   1.945   6.106  15.435 -0.4435 -0.1148 -0.9371
13475TIP3    H161916   1.894   6.028  15.417 -1.8157  1.1431 -2.8801
13475TIP3    H261917   1.887   6.161  15.489  0.6847 -0.5706  0.8224
13476TIP3   OH261918   6.448   2.324   1.294  0.5255 -0.3800  0.2185
13476TIP3    H161919   6.428   2.337   1.201 -1.9176 -0.3578  0.6799
13476TIP3    H261920   6.534   2.364   1.306 -0.0326  1.5525 -1.5968
13477TIP3   OH261921   1.196   4.641   1.437 -0.5231  0.1073 -0.1964
13477TIP3    H161922   1.123   4.696   1.407 -1.5096 -1.1596 -0.2064
13477TIP3    H261923   1.217   4.673   1.524 -1.6861 -0.0531  0.1550
13478TIP3   OH261924   2.211   0.145   5.200 -0.2375  0.2762  0.1383
13478TIP3    H161925   2.217   0.240   5.190  0.6328  0.1496 -0.8402
13478TIP3    H261926   2.300   0.118   5.224 -0.3720 -0.3190 -0.0177
13479TIP3   OH261927   6.435   2.863   3.074  0.2005 -0.1748 -0.2567
13479TIP3    H161928   6.376   2.856   2.999  0.1193  0.5534 -0.2658
13479TIP3    H261929   6.498   2.792   3.061 -0.9600 -1.3122  0.0321
13480TIP3   OH261930   1.905   4.202   3.154 -0.5449  0.2489 -0.0306
13480TIP3    H161931   1.844   4.201   3.228 -1.5470  1.3092 -0.8123
13480TIP3    H261932   1.976   4.260   3.182  0.0220 -0.7868  0.7820
13481TIP3   OH261933   4.004   5.839  15.746 -0.7256  0.0016 -0.0789
13481TIP3    H161934   4.088   5.880  15.725 -0.1825 -1.0098  0.0312
13481TIP3    H261935   3.959   5.902  15.801 -0.6768  1.2053 -1.3602
13482TIP3   OH261936   2.399   0.456   4.425 -0.2435  0.4994 -0.3171
13482TIP3    H161937   2.477   0.495   4.465 -1.5196  1.9250  0.8954
13482TIP3    H261938   2.357   0.408   4.497  0.0381 -1.1569 -1.2193
13483TIP3   OH261939   5.024   1.402   3.898 -0.0010 -0.6060  0.2126
13483TIP3    H161940   5.077   1.466   3.851  0.4785  0.3907  2.0114
13483TIP3    H261941   4.983   1.349   3.829  0.7097  0.7198 -1.2883
13484TIP3   OH261942   3.831   1.334  13.436  0.6075 -0.3482  0.3106
13484TIP3    H161943   3.900   1.309  13.375 -1.5249 -0.7406 -2.0721
13484TIP3    H261944   3.833   1.430  13.438  0.0255 -0.2849 -1.2531
13485TIP3   OH261945   1.854   2.072   0.646 -0.5471  0.2721  0.5739
13485TIP3    H161946   1.770   2.098   0.682  0.0696  2.2657  0.6644
13485TIP3    H261947   1.843   2.079   0.551 -0.0149  2.2451  0.6202
13486TIP3   OH261948   1.628   0.359   2.126  0.5086  0.0049 -0.1913
13486TIP3    H161949   1.629   0.446   2.164 -1.8907  0.4698 -1.0727
13486TIP3    H261950   1.584   0.304   2.192 -0.3215  0.0282 -0.7177
13487TIP3   OH261951   0.457   3.055   2.004  0.0092 -0.7445  0.3655
13487TIP3    H161952   0.448   3.150   1.996 -1.3625 -0.9565 -1.4340
13487TIP3    H261953   0.378   3.027   2.051 -0.1344 -1.0714 -0.0570
13488TIP3   OH261954   4.861   1.667   1.011 -0.0943  0.3162  0.0745
13488TIP3    H161955   4.868   1.660   1.107  2.1818 -2.9930 -0.1579
13488TIP3    H261956   4.794   1.603   0.988 -0.4240  0.8902 -0.5934
13489TIP3   OH261957   0.602   6.214   5.471 -0.3833 -0.1648  0.1282
13489TIP3    H161958   0.584   6.251   5.385 -0.1020  1.6274  0.7875
13489TIP3    H261959   0.530   6.246   5.526  0.9122  1.1207  1.1721
13490TIP3   OH261960   0.044   4.836  12.913 -0.0281  0.1447 -0.0186
13490TIP3    H161961   0.059   4.752  12.868 -1.2402 -0.7704  1.1850
13490TIP3    H261962   0.103   4.834  12.987  0.4162  0.6747 -0.3507
13491TIP3   OH261963   1.242   4.048   4.493  0.2572  0.4516 -0.3145
13491TIP3    H161964   1.207   3.961   4.473  0.9826  0.4079 -1.4920
13491TIP3    H261965   1.253   4.090   4.407 -0.4244  1.8552  0.2501
13492TIP3   OH261966   1.540   3.647  15.263  0.4952  0.2389  0.2691
13492TIP3    H161967   1.575   3.582  15.323  3.2742  1.2121 -0.1564
13492TIP3    H261968   1.473   3.600  15.213 -0.2607 -1.2056  2.4856
13493TIP3   OH261969   3.148   1.505   0.017  0.8986 -0.0757 -0.0009
13493TIP3    H161970   3.107   1.421   0.036  1.1914  0.2029  2.1090
13493TIP3    H261971   3.222   1.483  -0.040  0.6114 -1.1688  0.0296
13494TIP3   OH261972   4.461   6.379   1.656 -0.1763  0.6482 -0.1650
13494TIP3    H161973   4.458   6.475   1.649  0.0109  0.6177 -0.6889
13494TIP3    H261974   4.546   6.361   1.696  0.1794  0.6623 -0.8943
13495TIP3   OH261975   5.624   1.557   4.637 -0.0002 -0.5042  0.5290
13495TIP3    H161976   5.536   1.594   4.638  0.4394  0.7088 -0.9455
13495TIP3    H261977   5.611   1.463   4.629 -1.1731 -0.3200  0.0328
13496TIP3   OH261978   1.110   4.894  12.692 -0.3013 -0.3706  0.4114
13496TIP3    H161979   1.048   4.890  12.619  0.5905  1.1481 -0.4747
13496TIP3    H261980   1.192   4.862  12.655 -0.0956 -0.5978  1.0623
13497TIP3   OH261981   5.652   3.710  12.304  0.0697 -0.8991  0.1627
13497TIP3    H161982   5.674   3.625  12.342  1.2103  0.4535  2.7619
13497TIP3    H261983   5.734   3.741  12.265 -0.0569 -0.5636  0.1581
13498TIP3   OH261984   3.006   3.640   3.742  0.0796 -0.0853  0.0858
13498TIP3    H161985   2.998   3.619   3.835 -0.4682  0.4420  0.1583
13498TIP3    H261986   3.057   3.721   3.740  1.4634 -0.9381 -0.1572
13499TIP3   OH261987   1.197   2.137  15.070  0.5800 -0.3859  0.3570
13499TIP3    H161988   1.172   2.125  15.162  1.3723 -1.6609  0.4364
13499TIP3    H261989   1.213   2.048  15.038  2.5581  0.1663 -0.3566
13500TIP3   OH261990   4.259   0.555  16.305 -1.0298 -0.0160  0.3876
13500TIP3    H161991   4.326   0.605  16.258 -0.6469 -0.5976  0.2958
13500TIP3    H261992   4.303   0.524  16.384 -1.1796 -0.4140  0.3201
13501TIP3   OH261993   2.393   5.857   5.296  0.6537  0.2151  0.5140
13501TIP3    H161994   2.480   5.827   5.269 -0.2888 -0.6180 -1.9117
13501TIP3    H261995   2.387   5.833   5.389  3.3601  1.2882  1.0486
13502TIP3   OH261996   5.297   5.345  13.047 -0.5895 -0.3058  0.0217
13502TIP3    H161997   5.210   5.356  13.007  0.1407  0.4049 -1.4591
13502TIP3    H261998   5.358   5.371  12.978  0.8724 -2.1247  0.5568
13503TIP3   OH261999   2.007   6.108   6.306  0.1270  0.5541  0.2221
13503TIP3    H162000   1.979   6.195   6.280  0.2450  1.3197  2.5121
13503TIP3    H262001   1.930   6.068   6.346 -0.1899 -0.7907 -1.5659
13504TIP3   OH262002   5.127   0.424  12.808 -0.4571  0.4510 -0.8652
13504TIP3    H162003   5.147   0.368  12.733  1.8102  0.0453 -0.0633
13504TIP3    H262004   5.111   0.362  12.880 -0.3778  0.8287 -0.5193
13505TIP3   OH262005   0.954   4.998  12.904 -0.4640  0.0575 -0.3763
13505TIP3    H162006   0.903   4.924  12.937 -0.6916  0.9824  1.4440
13505TIP3    H262007   0.995   4.965  12.824 -0.7921 -1.9213  0.2310
13506TIP3   OH262008   5.716   0.721  13.794  0.2645  0.0649 -0.0139
13506TIP3    H162009   5.798   0.767  13.775  0.0081  0.5551  0.0587
13506TIP3    H262010   5.655   0.790  13.819 -0.3413 -0.2355 -0.6343
13507TIP3   OH262011   5.159   5.532  10.359 -0.1433 -0.1650  0.2251
13507TIP3    H162012   5.198   5.591  10.423  1.3585 -0.1223 -0.6898
13507TIP3    H262013   5.228   5.469  10.338 -0.3581  0.1907 -1.7741
13508TIP3   OH262014   3.143   0.075   3.579 -0.7353 -0.3152  0.2524
13508TIP3    H162015   3.148   0.096   3.672  0.7250  0.4012  0.0409
13508TIP3    H262016   3.219   0.020   3.562 -0.3781  0.4329 -0.7049
13509TIP3   OH262017   0.645   0.730  16.380  0.2069  0.0347  0.3508
13509TIP3    H162018   0.679   0.785  16.451 -2.2177  2.2176 -0.0068
13509TIP3    H262019   0.662   0.781  16.301  0.7069 -1.2488 -0.3865
13510TIP3   OH262020   2.108   4.662  11.622 -0.2389 -0.3965  0.2681
13510TIP3    H162021   2.195   4.632  11.647 -0.0360 -1.6102 -1.7313
13510TIP3    H262022   2.094   4.741  11.675  1.6321 -0.7370  1.3532
13511TIP3   OH262023   1.651   4.440   2.456 -0.0025 -0.2601  0.3024
13511TIP3    H162024   1.559   4.466   2.467  0.1523 -0.2658  1.8667
13511TIP3    H262025   1.666   4.378   2.527  1.6367  0.9368  1.0493
13512TIP3   OH262026   0.929   6.274  12.764 -0.1533 -0.6218 -0.3357
13512TIP3    H162027   0.967   6.358  12.740  0.1777 -0.9916 -1.1397
13512TIP3    H262028   0.928   6.224  12.683  0.8615 -1.8677  0.3815
13513TIP3   OH262029   1.255   3.813  13.079 -0.1815 -0.0031  0.1765
13513TIP3    H162030   1.331   3.814  13.022  0.9183 -0.6826  1.5744
13513TIP3    H262031   1.263   3.733  13.130 -2.0583 -0.3017  0.1049
13514TIP3   OH262032   0.956   1.973   0.975 -0.3875  0.0043 -0.3424
13514TIP3    H162033   1.027   1.928   1.020 -0.8349 -0.8718 -0.4893
13514TIP3    H262034   0.878   1.952   1.026 -0.4419  1.6426  0.2993
13515TIP3   OH262035   2.058   6.611   4.342  0.1335  0.4442  0.3601
13515TIP3    H162036   2.005   6.652   4.410 -0.1408 -0.3561  0.6457
13515TIP3    H262037   1.996   6.554   4.295  0.4591  0.5038 -0.1402
13516TIP3   OH262038   4.962   4.027  16.146 -0.2729  0.1969 -0.4087
13516TIP3    H162039   4.969   4.097  16.212 -0.4549 -1.3025  1.2893
13516TIP3    H262040   4.897   3.967  16.183  0.6527 -1.3996 -1.3078
13517TIP3   OH262041   6.059   1.867   0.251 -0.0926  0.5498  0.1904
13517TIP3    H162042   6.083   1.933   0.186 -0.2922 -1.0086 -1.5540
13517TIP3    H262043   5.984   1.822   0.213 -1.2216  0.5738  2.2440
13518TIP3   OH262044   0.941   0.081  16.705 -0.4963 -0.5470 -0.3930
13518TIP3    H162045   0.950   0.016  16.775 -1.6297 -2.0934 -1.6065
13518TIP3    H262046   0.972   0.037  16.626  2.3482  1.7084 -0.7059
13519TIP3   OH262047   1.397   4.024  10.496  0.5192 -0.2136 -0.5901
13519TIP3    H162048   1.474   3.980  10.461  0.4501 -0.3437 -0.5788
13519TIP3    H262049   1.377   4.092  10.433  1.5070  0.7671  0.1219
13520TIP3   OH262050   3.265   5.493  17.150 -0.3423 -0.7803  0.5241
13520TIP3    H162051   3.266   5.406  17.111 -0.2159 -0.7943  0.5586
13520TIP3    H262052   3.185   5.494  17.204 -0.3238 -0.8875  0.5546
13521TIP3   OH262053   2.739   4.417   5.855 -0.0684  0.0719  0.3225
13521TIP3    H162054   2.669   4.394   5.793 -0.3199  0.6967  0.3685
13521TIP3    H262055   2.737   4.513   5.859  1.1117  0.1287 -0.0399
13522TIP3   OH262056   4.304   2.201  15.420  0.5135 -0.0723  0.5897
13522TIP3    H162057   4.263   2.281  15.453  1.2941  0.9009 -0.7717
13522TIP3    H262058   4.230   2.140  15.408 -0.4107  1.2194 -0.5840
13523TIP3   OH262059   5.416   0.050  12.460 -0.1867  0.0697  0.3290
13523TIP3    H162060   5.335   0.098  12.444 -0.1912 -0.4685 -1.3557
13523TIP3    H262061   5.484   0.104  12.421  0.0615 -0.3129  0.2259
13524TIP3   OH262062   2.879   0.875  13.281 -0.1440 -0.3010 -0.1438
13524TIP3    H162063   2.812   0.881  13.212 -0.2088 -2.2010 -0.3153
13524TIP3    H262064   2.833   0.834  13.355  0.3751  0.0716  0.3917
13525TIP3   OH262065   5.406   3.848   0.492 -0.0040  0.0750 -0.0438
13525TIP3    H162066   5.465   3.856   0.567 -0.5689 -0.3862  0.4616
13525TIP3    H262067   5.330   3.903   0.515  0.2618  0.7579 -0.7389
13526TIP3   OH262068   4.078   4.060   0.666  0.2900  0.4264  0.3886
13526TIP3    H162069   4.060   4.138   0.718  1.1258  1.2911 -0.5558
13526TIP3    H262070   4.145   4.013   0.715  0.7578  1.0039  0.3072
13527TIP3   OH262071   5.503   1.012   4.663  0.0167  0.3666 -0.3986
13527TIP3    H162072   5.430   1.003   4.725 -0.7129  0.5415 -1.2041
13527TIP3    H262073   5.467   0.980   4.580  1.9110 -2.8934 -0.1414
13528TIP3   OH262074   2.347   6.096   4.203 -0.2554  0.2914  0.0372
13528TIP3    H162075   2.345   6.129   4.293 -0.1938  1.7113 -0.4572
13528TIP3    H262076   2.268   6.043   4.195 -1.0875  1.4401  0.4601
13529TIP3   OH262077   2.199   1.367   4.848  0.1710  0.1466 -1.0217
13529TIP3    H162078   2.277   1.406   4.888 -0.4694  1.4092 -0.9701
13529TIP3    H262079   2.194   1.279   4.888  0.7056  0.6144  0.1315
13530TIP3   OH262080   1.631   3.557   3.630 -0.5544  0.1544 -0.2943
13530TIP3    H162081   1.584   3.564   3.547  1.8232 -0.5468 -1.7916
13530TIP3    H262082   1.587   3.486   3.677 -3.8847  2.5022  0.5420
13531TIP3   OH262083   2.140   0.499   2.168  0.5563  0.1429 -0.0102
13531TIP3    H162084   2.050   0.468   2.167  1.4626 -2.7665 -0.1979
13531TIP3    H262085   2.133   0.592   2.191 -2.5178  0.3111 -1.1424
13532TIP3   OH262086   4.168   1.024   1.174  0.3483 -0.2922  0.4366
13532TIP3    H162087   4.162   1.119   1.180 -0.2657 -0.3012  0.1463
13532TIP3    H262088   4.085   0.993   1.212 -0.1087 -0.6391 -0.7751
13533TIP3   OH262089   0.055   4.898   0.060 -0.1996  0.4641  1.1353
13533TIP3    H162090   0.119   4.838   0.022 -1.0797  0.0895  0.1644
13533TIP3    H262091   0.089   4.985   0.041 -0.5634  0.2932 -0.5428
13534TIP3   OH262092   3.047   2.385   6.419  0.3269 -0.3984 -0.0090
13534TIP3    H162093   3.135   2.382   6.458  1.4110 -0.5105 -2.3089
13534TIP3    H262094   3.001   2.311   6.459  1.1227 -0.0905  1.5410
13535TIP3   OH262095   2.245   2.379  16.296 -0.2140  0.3470  0.5824
13535TIP3    H162096   2.325   2.403  16.249 -0.8120 -0.3774 -0.8501
13535TIP3    H262097   2.175   2.423  16.248 -1.0566 -2.0668 -0.5111
13536TIP3   OH262098   4.388   3.245  14.029 -0.1908 -0.2830  0.1193
13536TIP3    H162099   4.331   3.169  14.032  0.3238 -0.6915 -0.3009
13536TIP3    H262100   4.463   3.217  13.976 -1.2169  1.3463 -2.3945
13537TIP3   OH262101   1.053   2.141   5.319 -0.0991 -0.0755  0.9181
13537TIP3    H162102   1.130   2.121   5.373 -0.9051  0.0805  2.1778
13537TIP3    H262103   0.982   2.152   5.383 -1.1446 -0.1227 -0.2121
13538TIP3   OH262104   3.013   3.881  11.076 -0.5540 -0.6132  0.4508
13538TIP3    H162105   2.988   3.972  11.092 -1.3401 -0.3803 -1.6940
13538TIP3    H262106   3.105   3.885  11.052 -0.2208 -0.5776  1.7018
13539TIP3   OH262107   3.609   1.638   3.705  0.3170  0.3548 -0.3608
13539TIP3    H162108   3.561   1.557   3.691  1.0814 -0.0339 -0.8349
13539TIP3    H262109   3.544   1.700   3.737 -0.3761 -0.3049 -0.4681
13540TIP3   OH262110   6.365   1.082   0.969 -0.3163 -0.2333  0.0599
13540TIP3    H162111   6.308   1.075   0.892 -0.0066  0.8778 -0.2952
13540TIP3    H262112   6.430   1.013   0.957  0.8452  1.0738 -1.6663
13541TIP3   OH262113   5.171   5.021   2.877 -0.0416  0.6536 -0.0275
13541TIP3    H162114   5.100   5.082   2.897 -0.2727  0.2062  0.5125
13541TIP3    H262115   5.142   4.976   2.797  0.3671  1.6128 -0.7423
13542TIP3   OH262116   5.132   4.251  16.244  0.3127  0.1843  0.4285
13542TIP3    H162117   5.089   4.225  16.325  0.9532  0.2172  0.7837
13542TIP3    H262118   5.162   4.340  16.260 -0.9665  0.8085 -0.4260
13543TIP3   OH262119   4.916   4.834   1.342  0.2208 -0.0129  0.7000
13543TIP3    H162120   4.948   4.924   1.333  0.1974 -0.0440  0.2833
13543TIP3    H262121   4.832   4.834   1.295  0.7691 -0.5423 -0.3097
13544TIP3   OH262122   6.730   4.496   5.528  0.4318 -0.3544 -0.1603
13544TIP3    H162123   6.806   4.466   5.477  0.8334  1.1863 -0.5075
13544TIP3    H262124   6.655   4.478   5.472  0.8091  0.7172 -1.0384
13545TIP3   OH262125   0.110   6.726  13.542  0.1518  0.0230 -0.4642
13545TIP3    H162126   0.029   6.774  13.562 -0.6638 -1.0634 -1.0969
13545TIP3    H262127   0.170   6.793  13.510 -0.2140  0.9729  0.7443
13546TIP3   OH262128   4.329   6.346  14.999  0.2698  0.0629  1.0360
13546TIP3    H162129   4.401   6.386  14.950 -0.9751  1.2028  0.0618
13546TIP3    H262130   4.250   6.391  14.967 -0.9004 -1.2554  1.9398
13547TIP3   OH262131   5.858   6.682   5.671  0.0005 -0.3701  0.1277
13547TIP3    H162132   5.860   6.659   5.578  0.5998  0.4465 -0.0706
13547TIP3    H262133   5.802   6.615   5.711 -0.3356 -0.6761 -0.8307
13548TIP3   OH262134   0.951   0.519  16.590  0.1023 -0.2231  0.0515
13548TIP3    H162135   1.039   0.487  16.571  0.3769  1.1433 -1.2424
13548TIP3    H262136   0.899   0.440  16.606  1.4958 -1.0635  0.5771
13549TIP3   OH262137   1.327   1.734   1.330  0.5278 -0.1418  0.0411
13549TIP3    H162138   1.389   1.780   1.387  0.3800  0.3482 -0.1901
13549TIP3    H262139   1.349   1.765   1.242 -0.6340  0.7261  0.0421
13550TIP3   OH262140   6.138   2.053  13.894  0.4497 -0.2372  0.4435
13550TIP3    H162141   6.101   1.984  13.949 -1.0777  1.6879  1.9645
13550TIP3    H262142   6.210   2.088  13.945  2.6789 -2.0153 -1.2624
13551TIP3   OH262143   3.374   5.696   0.197  0.7738  0.1451 -0.5267
13551TIP3    H162144   3.371   5.637   0.272  2.9993  3.0037  2.1077
13551TIP3    H262145   3.452   5.668   0.148 -0.0562 -1.0502 -1.2048
13552TIP3   OH262146   4.822   5.995   5.497 -0.3693 -0.0138  0.2618
13552TIP3    H162147   4.888   5.939   5.455 -0.3562 -0.8578  1.3584
13552TIP3    H262148   4.750   5.999   5.434 -0.4978 -1.5409  0.2678
13553TIP3   OH262149   2.876   4.017  14.248 -0.7883  0.1322 -0.5715
13553TIP3    H162150   2.956   3.965  14.240 -1.7863 -1.7724  0.9884
13553TIP3    H262151   2.898   4.085  14.312 -0.0687  0.4493 -1.1329
13554TIP3   OH262152   0.451   5.330  13.232  0.4987 -0.0735  0.5614
13554TIP3    H162153   0.533   5.285  13.212 -0.0420 -1.2821  0.9059
13554TIP3    H262154   0.383   5.270  13.200 -0.2648  0.4501  1.1507
13555TIP3   OH262155   2.258   1.189   5.773 -0.1792  0.0693  0.1512
13555TIP3    H162156   2.343   1.211   5.810 -1.0016  1.7735  1.1245
13555TIP3    H262157   2.194   1.224   5.835 -1.6130 -1.0366 -0.6216
13556TIP3   OH262158   4.634   5.608  13.995 -0.3161 -0.3554 -0.0055
13556TIP3    H162159   4.625   5.539  13.929 -1.4067 -0.9432  0.7229
13556TIP3    H262160   4.551   5.656  13.991 -0.2126 -0.1127  0.6334
13557TIP3   OH262161   3.104   2.976  15.531 -0.1166  0.2834  0.3840
13557TIP3    H162162   3.055   2.929  15.598 -1.9399  1.7163  0.1255
13557TIP3    H262163   3.116   3.064  15.568 -1.7148  1.3002 -1.3701
13558TIP3   OH262164   2.673   5.514   0.579 -0.5602  0.2206  0.4281
13558TIP3    H162165   2.721   5.479   0.504  1.5933 -0.0436  1.8653
13558TIP3    H262166   2.604   5.449   0.596  0.6296 -1.0997  0.3274
13559TIP3   OH262167   5.021   6.649  12.634 -0.0703  0.2388  0.0677
13559TIP3    H162168   4.972   6.696  12.567 -0.5437  0.9056  0.8600
13559TIP3    H262169   5.038   6.563  12.595 -1.1454  0.2844 -0.5518
13560TIP3   OH262170   4.578   1.579  12.881 -0.2534  0.2585  0.4764
13560TIP3    H162171   4.499   1.532  12.854 -0.1668  0.6457 -0.4527
13560TIP3    H262172   4.575   1.662  12.834  1.3178 -0.2123 -0.5187
13561TIP3   OH262173   5.430   0.976  15.876  0.1508  0.2195 -0.1482
13561TIP3    H162174   5.489   1.051  15.867 -0.0334  0.1561 -2.3193
13561TIP3    H262175   5.361   0.991  15.812  0.2896 -1.9385 -0.9048
13562TIP3   OH262176   6.576   1.510  10.947  0.5159  0.6944 -0.2333
13562TIP3    H162177   6.523   1.518  10.868 -2.1078  1.3723  1.4594
13562TIP3    H262178   6.637   1.584  10.943 -0.8137  1.8104 -0.7677
13563TIP3   OH262179   5.713   0.990   4.840  1.0890  0.6328 -0.0475
13563TIP3    H162180   5.635   1.010   4.789 -1.4627 -0.0200  3.3139
13563TIP3    H262181   5.761   1.074   4.843 -0.8159  1.7788 -0.0601
13564TIP3   OH262182   1.465   5.113   4.997 -0.0389 -0.2375 -0.3507
13564TIP3    H162183   1.559   5.127   4.983  0.2923 -0.1103  1.6669
13564TIP3    H262184   1.457   5.093   5.090 -1.9831 -0.6841 -0.5627
13565TIP3   OH262185   3.875   1.333   1.148 -0.3656 -0.1065  0.0910
13565TIP3    H162186   3.845   1.336   1.239 -0.9036 -1.0943 -0.0431
13565TIP3    H262187   3.825   1.402   1.104  0.0548  0.5193  0.5750
13566TIP3   OH262188   2.741   6.771  12.055 -0.0197 -0.1818 -0.0605
13566TIP3    H162189   2.820   6.793  12.005 -0.0270  0.2191  0.0946
13566TIP3    H262190   2.767   6.696  12.109  0.3335  0.1054  0.1743
13567TIP3   OH262191   6.031   3.189  14.845  0.2996 -0.5246 -0.4969
13567TIP3    H162192   6.038   3.170  14.938  0.2008 -2.3199 -0.8162
13567TIP3    H262193   5.949   3.149  14.818  0.6650 -0.6331 -1.4930
13568TIP3   OH262194   1.781   0.671   0.546  0.0275 -0.2202  0.0917
13568TIP3    H162195   1.859   0.721   0.523  0.1426  0.5212  1.9263
13568TIP3    H262196   1.812   0.608   0.611 -0.2795 -2.2122 -1.5654
13569TIP3   OH262197   6.211   3.339  12.420  0.3818 -0.1075 -0.0586
13569TIP3    H162198   6.244   3.416  12.375 -0.9092  0.4171 -0.1602
13569TIP3    H262199   6.277   3.271  12.405  0.4916  0.3572 -1.8177
13570TIP3   OH262200   1.163   3.535  11.650 -0.0796  0.2827 -0.4527
13570TIP3    H162201   1.131   3.584  11.574 -1.9880 -1.1296 -0.6176
13570TIP3    H262202   1.155   3.443  11.625  1.1071 -0.1898  0.7628
13571TIP3   OH262203   3.157   2.274   1.946 -0.4869  0.8816  0.2221
13571TIP3    H162204   3.097   2.202   1.930 -0.0128  0.7527 -1.0487
13571TIP3    H262205   3.232   2.233   1.990  1.1751 -0.0841 -3.1566
13572TIP3   OH262206   6.177   3.782   2.367 -0.0197 -0.1276  0.5545
13572TIP3    H162207   6.200   3.697   2.329  0.4133 -0.9992  2.5963
13572TIP3    H262208   6.225   3.846   2.315  1.7208 -1.3764  0.5253
13573TIP3   OH262209   4.341   0.176   4.993 -0.7078  0.1482 -0.4134
13573TIP3    H162210   4.384   0.116   4.931  0.8760  0.3315  0.4393
13573TIP3    H262211   4.349   0.132   5.077 -1.3405  0.6565 -0.0868
13574TIP3   OH262212   3.379   2.532  10.650 -0.0509  0.1114  0.0198
13574TIP3    H162213   3.390   2.465  10.717  0.2007  0.3048  0.1744
13574TIP3    H262214   3.404   2.614  10.693  1.6172  0.0341 -0.7415
13575TIP3   OH262215   0.191   2.274  13.939  0.0603  0.2633 -0.1911
13575TIP3    H162216   0.271   2.323  13.959 -0.1435  1.0703 -1.3351
13575TIP3    H262217   0.127   2.306  14.002  0.0407  1.1889 -0.6703
13576TIP3   OH262218   1.493   4.116  12.967  1.1411  0.0919  0.3206
13576TIP3    H162219   1.546   4.169  13.027 -0.1356  1.2489  0.4811
13576TIP3    H262220   1.557   4.068  12.915  2.2996 -0.5792  2.2459
13577TIP3   OH262221   0.955   2.360  12.125 -0.2612  0.0557 -0.0477
13577TIP3    H162222   0.880   2.360  12.065 -0.4115  1.4571  0.1157
13577TIP3    H262223   1.011   2.431  12.094  0.0452  0.2838  0.9960
13578TIP3   OH262224   6.657   5.825  12.489  0.5369  0.9741  0.0299
13578TIP3    H162225   6.708   5.786  12.418 -1.1142 -1.3363 -0.0136
13578TIP3    H262226   6.571   5.841  12.451  0.1469  1.3872  1.0529
13579TIP3   OH262227   4.665   2.083  13.564  0.1824 -0.2989  0.8312
13579TIP3    H162228   4.698   2.069  13.653 -1.8603 -1.6965  1.4424
13579TIP3    H262229   4.731   2.043  13.507  1.2932  0.2059  1.7253
13580TIP3   OH262230   6.038   0.344  15.676  0.9055  0.0676 -0.3320
13580TIP3    H162231   5.991   0.285  15.616  0.0565  0.5514 -0.1454
13580TIP3    H262232   6.122   0.359  15.632  1.1078 -1.1939 -0.4385
13581TIP3   OH262233   5.852   1.625  14.159 -0.0608 -0.3830  0.9189
13581TIP3    H162234   5.794   1.628  14.083 -0.3029  0.6545  1.1258
13581TIP3    H262235   5.940   1.627  14.122 -0.1579  2.0422  0.6665
13582TIP3   OH262236   2.675   4.003   5.325 -0.5096 -0.2961 -0.0058
13582TIP3    H162237   2.630   4.028   5.406  2.6768  0.7338  1.6293
13582TIP3    H262238   2.700   3.912   5.339  0.5093  0.0408  0.4536
13583TIP3   OH262239   6.420   1.124   5.844 -0.3565  0.4964  0.7980
13583TIP3    H162240   6.488   1.076   5.797  0.6435  0.3191  2.3739
13583TIP3    H262241   6.432   1.215   5.818 -0.3767  0.2990  0.0703
13584TIP3   OH262242   1.680   5.089   0.507  0.0155 -0.2815 -0.1443
13584TIP3    H162243   1.707   5.147   0.436 -1.5312  0.5538 -0.1011
13584TIP3    H262244   1.659   5.006   0.464 -1.6710  0.4486 -0.8347
13585TIP3   OH262245   1.203   2.785   0.132  0.0129  0.0489  0.0821
13585TIP3    H162246   1.118   2.787   0.088 -0.0777 -0.5359  0.2199
13585TIP3    H262247   1.255   2.722   0.081  0.2192  0.0808  0.2514
13586TIP3   OH262248   0.894   6.183  12.239 -0.6200  0.4161 -0.6519
13586TIP3    H162249   0.875   6.274  12.218 -2.5294  1.0027  2.9189
13586TIP3    H262250   0.808   6.140  12.239  0.2065 -1.3955 -1.9333
13587TIP3   OH262251   2.868   2.683  14.322  0.2572  0.4799  0.2664
13587TIP3    H162252   2.787   2.651  14.282 -0.1431  1.3315  0.3708
13587TIP3    H262253   2.852   2.679  14.416 -0.3737  2.3191  0.2844
13588TIP3   OH262254   5.943   3.845   0.317 -0.0794  0.3246 -0.2824
13588TIP3    H162255   5.855   3.816   0.296  0.1110 -0.8282  0.4166
13588TIP3    H262256   5.962   3.914   0.253 -1.5805  0.7906 -0.2626
13589TIP3   OH262257   6.000   1.570  16.976  0.2293 -0.3245 -0.5943
13589TIP3    H162258   6.022   1.524  17.057  1.4711  0.3061 -0.5586
13589TIP3    H262259   5.986   1.661  17.003  0.7897 -0.0801 -1.1033
13590TIP3   OH262260   4.585   2.440  16.022  0.3193  0.2444  0.2589
13590TIP3    H162261   4.655   2.399  15.972  0.2183 -0.1796  0.4529
13590TIP3    H262262   4.578   2.386  16.102 -0.1227  0.3679  0.3090
13591TIP3   OH262263   1.619   1.965   0.915 -0.3418  0.0487 -0.5067
13591TIP3    H162264   1.647   1.944   0.825  0.4640  1.2552 -0.5589
13591TIP3    H262265   1.668   1.903   0.969 -0.4016 -0.3116 -0.8548
13592TIP3   OH262266   5.157   1.075  15.399 -0.0291  0.2194  0.1645
13592TIP3    H162267   5.234   1.067  15.343 -0.0956  1.3090 -0.0955
13592TIP3    H262268   5.102   1.001  15.374  0.7334 -0.3296  0.0573
13593TIP3   OH262269   6.227   6.090  13.119  0.6721 -0.1676  0.1909
13593TIP3    H162270   6.262   6.119  13.035 -0.5855  0.1837 -0.2328
13593TIP3    H262271   6.205   6.171  13.165 -1.5483 -0.3748 -0.4240
13594TIP3   OH262272   4.862   6.686  17.073 -0.1178 -0.2423  0.7144
13594TIP3    H162273   4.878   6.602  17.030  0.3474  0.2121 -0.0267
13594TIP3    H262274   4.774   6.711  17.046  0.5632  0.5444 -0.8668
13595TIP3   OH262275   6.351   3.543   1.676  0.2691 -0.4805  0.1427
13595TIP3    H162276   6.300   3.466   1.701 -2.0713 -0.0441 -2.7440
13595TIP3    H262277   6.390   3.519   1.592 -0.5932  1.4289 -0.8587
13596TIP3   OH262278   4.953   1.565  16.345 -0.1404 -0.2543 -0.1018
13596TIP3    H162279   4.864   1.557  16.380 -0.3066 -0.2719 -0.5204
13596TIP3    H262280   4.948   1.637  16.282 -0.2162 -1.1996 -1.2178
13597TIP3   OH262281   2.033   3.870  12.478  0.1352  0.6204 -0.3116
13597TIP3    H162282   2.066   3.888  12.390 -0.3356  3.0713 -0.0637
13597TIP3    H262283   1.996   3.953  12.507 -0.1200 -0.2351  2.0486
13598TIP3   OH262284   2.415   4.507  12.780 -0.0308  0.2910  0.0540
13598TIP3    H162285   2.413   4.597  12.748  1.2856 -0.2337 -1.7296
13598TIP3    H262286   2.504   4.496  12.814 -0.0247 -0.4532 -0.1781
13599TIP3   OH262287   6.520   2.290   4.781  0.0997 -0.4907 -0.0029
13599TIP3    H162288   6.524   2.209   4.731 -1.1286 -0.0485 -0.8657
13599TIP3    H262289   6.432   2.291   4.819 -0.1497  0.7442 -0.5537
13600TIP3   OH262290   0.097   4.920   4.804 -0.1919 -0.1184 -0.4838
13600TIP3    H162291   0.002   4.915   4.805 -0.2199 -0.7259 -2.6076
13600TIP3    H262292   0.118   4.983   4.736  0.9206 -2.0802 -2.0682
13601TIP3   OH262293   5.586   5.584   0.006  0.3214  0.0497 -0.7426
13601TIP3    H162294   5.504   5.585  -0.044  0.6460  0.4019 -1.2783
13601TIP3    H262295   5.610   5.677   0.014 -0.7249  0.1703  1.7560
13602TIP3   OH262296   1.116   5.982  15.621  0.5882  0.4020 -0.2907
13602TIP3    H162297   1.080   6.054  15.567 -0.6266  0.9920  1.2294
13602TIP3    H262298   1.086   6.002  15.709  1.6091 -1.1450  0.4310
13603TIP3   OH262299   2.862   3.577  16.543  0.2338  0.2635  0.6445
13603TIP3    H162300   2.881   3.662  16.503  0.7479 -0.6931 -1.2770
13603TIP3    H262301   2.939   3.558  16.598  0.0079  1.1233  1.2706
13604TIP3   OH262302   4.435   2.182   4.875 -0.2140  0.7302 -0.0573
13604TIP3    H162303   4.355   2.211   4.831 -0.9754 -0.2376  0.6180
13604TIP3    H262304   4.405   2.112   4.934  1.3487 -0.6449 -0.8086
13605TIP3   OH262305   3.444   0.629  13.904  0.4266 -0.0366  0.2558
13605TIP3    H162306   3.380   0.698  13.892 -0.8259 -1.2642 -0.3713
13605TIP3    H262307   3.421   0.588  13.988 -0.0969 -0.9418 -0.3113
13606TIP3   OH262308   6.761   1.659   3.627 -0.1634  0.6731 -0.1816
13606TIP3    H162309   6.730   1.667   3.537 -0.6122  2.0365  0.0592
13606TIP3    H262310   6.852   1.687   3.623 -0.1426  0.5951 -0.2456
13607TIP3   OH262311   2.283   1.049  10.181 -0.5175  0.9134  0.2291
13607TIP3    H162312   2.245   1.123  10.228  0.6943  1.9229 -0.3259
13607TIP3    H262313   2.217   1.026  10.116 -0.4326  2.3088 -0.3846
13608TIP3   OH262314   2.117   5.427  16.042  0.0902  0.3900 -0.2832
13608TIP3    H162315   2.181   5.379  16.095 -0.2570 -0.1288 -0.3253
13608TIP3    H262316   2.064   5.474  16.106 -0.5164 -0.4673 -0.1373
13609TIP3   OH262317   4.637   5.416  13.783 -0.6632  0.1232 -0.3582
13609TIP3    H162318   4.620   5.467  13.704  1.4056 -0.9944 -1.6010
13609TIP3    H262319   4.584   5.337  13.771  0.4191 -0.4989 -1.1434
13610TIP3   OH262320   6.239   0.412  14.274  0.2476 -0.3946 -0.5198
13610TIP3    H162321   6.305   0.382  14.336  2.3268  1.1460 -1.7983
13610TIP3    H262322   6.156   0.405  14.320  1.5583 -0.3552  2.0008
13611TIP3   OH262323   6.062   2.268   0.396  0.3114 -0.5205 -0.5230
13611TIP3    H162324   5.978   2.235   0.364 -0.4973  0.8826  0.0471
13611TIP3    H262325   6.092   2.329   0.328  0.2748 -0.1292 -0.1943
13612TIP3   OH262326   5.268   6.737   1.089  0.0448 -0.3424 -1.1488
13612TIP3    H162327   5.306   6.822   1.065 -2.0028  0.6749 -0.9690
13612TIP3    H262328   5.209   6.716   1.017 -2.1816  0.1806  0.4277
13613TIP3   OH262329   6.203   2.767   6.309 -0.0845 -0.2467 -0.9411
13613TIP3    H162330   6.148   2.691   6.328 -0.2917  0.1585  0.1862
13613TIP3    H262331   6.250   2.784   6.391 -0.1730  0.9328 -1.1116
13614TIP3   OH262332   2.155   4.987   1.536 -0.7202 -1.1799 -0.0057
13614TIP3    H162333   2.094   4.916   1.519 -2.6328  0.0944  1.1537
13614TIP3    H262334   2.106   5.049   1.590  0.7979  1.0992 -1.0637
13615TIP3   OH262335   6.096   1.946   4.320 -0.2923  0.4300  0.0863
13615TIP3    H162336   6.079   1.976   4.410  0.2454  0.6288  0.1283
13615TIP3    H262337   6.084   2.025   4.266 -0.6947  0.2922 -0.0272
13616TIP3   OH262338   5.092   1.532   4.560  1.4157  0.3591  0.3695
13616TIP3    H162339   5.007   1.528   4.517  2.1427 -0.8656 -1.0444
13616TIP3    H262340   5.072   1.532   4.654 -0.1072 -1.0053  0.0703
13617TIP3   OH262341   5.809   2.657   3.902 -0.5223  0.0230 -0.4191
13617TIP3    H162342   5.856   2.736   3.928 -0.5147 -0.6850  1.9975
13617TIP3    H262343   5.820   2.652   3.807 -1.1487  3.2917 -0.7852
13618TIP3   OH262344   3.696   1.187  13.274  0.0996  0.4308 -0.2014
13618TIP3    H162345   3.694   1.245  13.197 -0.7384 -0.1356 -0.6253
13618TIP3    H262346   3.735   1.241  13.343 -1.6427  1.8937 -0.2710
13619TIP3   OH262347   2.413   6.644  15.125 -0.0658 -0.1015 -0.0355
13619TIP3    H162348   2.375   6.599  15.201 -0.6192 -2.2507 -1.4832
13619TIP3    H262349   2.496   6.598  15.110  0.4538  0.8814 -0.2218
13620TIP3   OH262350   1.776   1.730   2.672 -0.5813 -0.4339 -0.0211
13620TIP3    H162351   1.730   1.696   2.749 -1.0381 -1.2996 -0.6571
13620TIP3    H262352   1.754   1.823   2.670  1.9236  0.3579  2.6509
13621TIP3   OH262353   0.161   3.341  11.128 -0.2248 -0.8230 -0.5450
13621TIP3    H162354   0.175   3.311  11.218  0.8723  1.5078  0.1215
13621TIP3    H262355   0.242   3.386  11.104 -0.7897 -0.6977 -2.4336
13622TIP3   OH262356   4.228   0.201   2.283  0.4160  0.4673 -0.6415
13622TIP3    H162357   4.133   0.210   2.278  0.1636 -0.3697  1.4103
13622TIP3    H262358   4.242   0.106   2.292  1.4315  0.5860 -0.9016
13623TIP3   OH262359   2.050   0.527   5.543  0.5978 -0.1549 -0.2762
13623TIP3    H162360   2.076   0.435   5.537 -2.7463 -1.2517  0.1954
13623TIP3    H262361   2.100   0.571   5.475  2.6511 -2.1916 -0.1969
13624TIP3   OH262362   2.157   6.656   6.722  0.0212 -0.5600 -0.2325
13624TIP3    H162363   2.190   6.722   6.661  0.5300 -0.9730 -0.4116
13624TIP3    H262364   2.089   6.610   6.674 -1.7516  1.1038  0.5481
13625TIP3   OH262365   3.341   0.324   2.791  0.5165  0.1567 -0.2139
13625TIP3    H162366   3.435   0.332   2.808  0.4610 -0.4827  0.4786
13625TIP3    H262367   3.301   0.335   2.878  0.0578 -1.0265 -0.2639
13626TIP3   OH262368   6.566   4.160  13.266  0.4176 -0.2027 -0.0868
13626TIP3    H162369   6.514   4.241  13.269  0.4643 -0.1204 -1.2420
13626TIP3    H262370   6.647   4.182  13.311 -0.6359 -0.4280  2.0606
13627TIP3   OH262371   3.405   1.817  13.023 -0.7699 -0.5376  0.2294
13627TIP3    H162372   3.323   1.854  12.989 -0.3366 -0.8659 -1.2847
13627TIP3    H262373   3.463   1.815  12.946  0.7039 -0.1898  1.2951
13628TIP3   OH262374   4.366   0.132  10.798  0.4503  0.1909 -0.5040
13628TIP3    H162375   4.450   0.125  10.844 -0.0648 -1.5734  0.2839
13628TIP3    H262376   4.382   0.191  10.726  2.4875 -0.4104 -0.5936
13629TIP3   OH262377   4.687   2.425  13.901 -0.5832  0.6529 -0.1316
13629TIP3    H162378   4.755   2.458  13.960  1.3877  2.1786 -2.9548
13629TIP3    H262379   4.605   2.434  13.949  0.8451  2.0455  2.2112
13630TIP3   OH262380   4.670   1.025   3.254  0.1048  0.0271  0.1752
13630TIP3    H162381   4.740   0.961   3.258  0.2392  0.1552 -0.1415
13630TIP3    H262382   4.590   0.974   3.241  0.2044 -0.0779 -0.0137
13631TIP3   OH262383   2.077   1.016  12.365  0.1364 -0.4476 -0.4147
13631TIP3    H162384   2.142   1.074  12.405  1.7511 -0.3569 -2.9556
13631TIP3    H262385   2.036   1.070  12.297 -0.2517 -1.4735 -1.0201
13632TIP3   OH262386   4.909   0.328   5.602 -0.0440 -0.6088  0.1359
13632TIP3    H162387   4.893   0.248   5.551 -0.2480 -0.3090 -0.2818
13632TIP3    H262388   4.900   0.399   5.538 -2.4774 -0.0507  0.9733
13633TIP3   OH262389   3.387   4.185   5.533 -0.2533 -0.2054 -0.2561
13633TIP3    H162390   3.405   4.125   5.605  1.1999  0.1105 -0.3215
13633TIP3    H262391   3.471   4.228   5.516 -1.1270  1.4996 -0.5319
13634TIP3   OH262392   3.917   1.264   5.012  0.3490  0.1878  0.5780
13634TIP3    H162393   3.998   1.214   5.016  0.5703  0.2991 -1.7308
13634TIP3    H262394   3.851   1.204   5.047  0.8948 -1.1464 -0.5802
13635TIP3   OH262395   1.243   0.427   1.267  0.4730  0.1246  0.4755
13635TIP3    H162396   1.221   0.410   1.359 -0.1866 -1.6170  0.0281
13635TIP3    H262397   1.159   0.446   1.226  0.4945 -1.0079 -0.1321
13636TIP3   OH262398   2.684   2.693  14.755  0.0739  0.0697  0.3412
13636TIP3    H162399   2.769   2.721  14.721  1.2614 -0.7293  2.4844
13636TIP3    H262400   2.677   2.735  14.841  0.3037 -3.1829  2.0961
13637TIP3   OH262401   1.337   1.611  13.063 -0.6131  0.6812  0.0508
13637TIP3    H162402   1.316   1.554  13.138 -0.1305 -0.9036 -0.9812
13637TIP3    H262403   1.417   1.655  13.089  0.9817 -1.7395 -0.4455
13638TIP3   OH262404   5.525   4.546  13.584  0.1960  0.1425 -0.2145
13638TIP3    H162405   5.455   4.483  13.602 -0.0047 -1.0145 -4.0518
13638TIP3    H262406   5.604   4.505  13.617 -0.4971  0.0274  1.3767
13639TIP3   OH262407   6.399   2.854  14.819 -0.1987 -0.4383  0.4173
13639TIP3    H162408   6.442   2.935  14.792 -0.6261 -0.0707  0.8055
13639TIP3    H262409   6.343   2.881  14.892 -1.2683 -0.8400 -0.2291
13640TIP3   OH262410   3.592   3.525  16.784  0.2571 -0.5355 -0.4383
13640TIP3    H162411   3.563   3.540  16.694 -0.0035  0.9865 -0.1195
13640TIP3    H262412   3.582   3.430  16.797  0.0751 -0.7422 -1.9185
13641TIP3   OH262413   1.891   0.325   2.440 -0.3278 -0.4351 -0.3039
13641TIP3    H162414   1.798   0.348   2.451 -0.0554  0.0203  1.5104
13641TIP3    H262415   1.936   0.381   2.503  1.2543 -0.2894 -1.5043
13642TIP3   OH262416   0.868   5.491  12.042 -0.1512 -0.3103 -0.5539
13642TIP3    H162417   0.787   5.453  12.008  0.1332 -0.3565 -1.2032
13642TIP3    H262418   0.933   5.420  12.034 -0.3960 -0.8187  1.4725
13643TIP3   OH262419   1.937   0.447  12.706 -0.1569 -0.0731 -0.2900
13643TIP3    H162420   2.012   0.507  12.700  0.2053 -0.6236 -1.7287
13643TIP3    H262421   1.867   0.492  12.659  0.0121 -0.5949 -1.0674
13644TIP3   OH262422   4.220   6.309  14.455  0.0733  0.5153 -0.1330
13644TIP3    H162423   4.294   6.320  14.395  0.2734  0.6185  0.1258
13644TIP3    H262424   4.236   6.225  14.497 -0.4826  0.0762 -0.7856
13645TIP3   OH262425   2.016   4.256   3.599 -0.2119  0.1214 -0.0905
13645TIP3    H162426   1.953   4.216   3.539  0.8090 -1.2719 -0.2808
13645TIP3    H262427   2.005   4.208   3.681  0.0296  0.4529  0.1402
13646TIP3   OH262428   5.825   1.761   0.130  0.4319  0.1041  0.0016
13646TIP3    H162429   5.850   1.676   0.093 -1.4677 -0.1789 -0.7375
13646TIP3    H262430   5.732   1.770   0.109  0.2427  1.7305  1.3345
13647TIP3   OH262431   5.654   5.425  12.871 -0.4769 -0.2388 -0.6052
13647TIP3    H162432   5.640   5.336  12.904 -2.2711  1.0178  2.5119
13647TIP3    H262433   5.568   5.454  12.842 -0.1591  0.8522 -0.5047
13648TIP3   OH262434   6.346   1.815   6.308  0.4221 -0.0774 -0.1574
13648TIP3    H162435   6.310   1.736   6.348  0.5902  0.0089  0.1680
13648TIP3    H262436   6.294   1.827   6.229 -1.9442  1.3492  1.4633
13649TIP3   OH262437   0.996   4.992   6.517  0.1113 -0.0104 -0.1366
13649TIP3    H162438   1.081   5.030   6.533  0.5183  0.5130 -2.9310
13649TIP3    H262439   1.011   4.897   6.517  0.7311  0.0847 -0.6909
13650TIP3   OH262440   3.794   2.695  11.997 -0.1955  0.4238 -0.1726
13650TIP3    H162441   3.785   2.789  12.007  0.5697  0.6938 -1.6801
13650TIP3    H262442   3.769   2.677  11.906  1.6075 -0.4986 -0.5548
13651TIP3   OH262443   5.307   2.593  14.537  0.0168  0.2189  0.2068
13651TIP3    H162444   5.256   2.515  14.558 -0.2483 -0.0964 -1.4702
13651TIP3    H262445   5.327   2.632  14.622 -1.7303 -0.4667  0.9843
13652TIP3   OH262446   4.955   1.518   1.807  0.3832  0.3905 -0.5041
13652TIP3    H162447   4.903   1.571   1.867 -1.0717  0.9602 -2.1854
13652TIP3    H262448   4.934   1.427   1.830 -0.0036  0.5952 -0.0468
13653TIP3   OH262449   4.953   0.826   0.674 -0.0654  0.4066  0.1856
13653TIP3    H162450   4.992   0.743   0.702 -3.4083 -1.9319 -1.3754
13653TIP3    H262451   4.867   0.827   0.716 -1.5280  1.2451 -2.5681
13654TIP3   OH262452   5.622   1.360  13.421 -0.2630  0.0820  0.1862
13654TIP3    H162453   5.576   1.424  13.367  0.8146  0.2077 -0.6164
13654TIP3    H262454   5.714   1.370  13.397  0.0612 -0.9339  0.9363
13655TIP3   OH262455   6.696   0.152   5.124 -0.8367  0.1330  0.2243
13655TIP3    H162456   6.750   0.099   5.182 -0.9444  0.2796  0.4568
13655TIP3    H262457   6.637   0.200   5.182 -2.4821 -1.3990 -0.1165
13656TIP3   OH262458   4.162   2.594   1.071 -0.0069  0.4405 -0.7435
13656TIP3    H162459   4.186   2.686   1.057  0.3602  0.3545 -0.6754
13656TIP3    H262460   4.185   2.577   1.162 -0.0921  0.2836 -0.7513
13657TIP3   OH262461   6.245   0.691   5.250 -0.1622  0.5643 -0.4302
13657TIP3    H162462   6.293   0.757   5.201  1.5382  0.1033  0.5372
13657TIP3    H262463   6.263   0.609   5.203 -1.3406  0.5899 -0.9710
13658TIP3   OH262464   5.457   5.933   1.312  0.1977 -0.2208  0.2024
13658TIP3    H162465   5.417   5.878   1.245  1.0729  0.7082 -1.1267
13658TIP3    H262466   5.543   5.955   1.277 -0.1386  2.0393  0.6353
13659TIP3   OH262467   5.499   0.777  16.946 -0.3534  0.1181 -0.3492
13659TIP3    H162468   5.425   0.725  16.974  1.2215 -1.4022  1.2894
13659TIP3    H262469   5.513   0.754  16.855 -0.7992 -0.9324 -0.1586
13660TIP3   OH262470   5.812   4.112  11.373 -0.3088 -0.1206 -0.2779
13660TIP3    H162471   5.817   4.091  11.467 -0.6409  1.3813  0.1090
13660TIP3    H262472   5.886   4.065  11.334 -0.3869 -1.0675  0.6745
13661TIP3   OH262473   4.224   1.657   6.457 -0.0095 -0.5037  0.9778
13661TIP3    H162474   4.189   1.729   6.509  1.3061 -0.1345  1.3874
13661TIP3    H262475   4.178   1.662   6.373  2.4110  3.0280 -0.3752
13662TIP3   OH262476   0.754   6.211  11.232 -0.3517  0.0302  0.0661
13662TIP3    H162477   0.792   6.270  11.167  1.8004 -0.4972  0.7569
13662TIP3    H262478   0.754   6.262  11.313 -2.3933  0.4515 -0.1397
13663TIP3   OH262479   4.582   4.479  15.709  0.5149 -0.2668 -0.4125
13663TIP3    H162480   4.657   4.458  15.652  1.7181  0.8670  0.7002
13663TIP3    H262481   4.621   4.508  15.791 -1.1572  0.6827  0.0927
13664TIP3   OH262482   4.956   4.148   1.645 -0.0981  0.9847  0.2254
13664TIP3    H162483   4.971   4.153   1.740 -0.1475  1.9017  0.1995
13664TIP3    H262484   5.027   4.094   1.612 -0.2060  0.4705  0.8127
13665TIP3   OH262485   4.930   2.175   1.448 -0.0913  0.1961  0.5638
13665TIP3    H162486   4.928   2.258   1.495 -1.2787 -0.3962  1.6025
13665TIP3    H262487   5.019   2.142   1.462 -0.0599  0.5973  1.3729
13666TIP3   OH262488   6.505   5.482   3.791  0.0882  0.1394 -0.3889
13666TIP3    H162489   6.591   5.459   3.757 -0.1919 -1.7070  0.0664
13666TIP3    H262490   6.445   5.462   3.720 -0.2418 -1.3379  0.2832
13667TIP3   OH262491   3.169   3.726   6.676  0.0384  0.1601  0.6333
13667TIP3    H162492   3.215   3.797   6.719  0.5881  1.2323 -1.5869
13667TIP3    H262493   3.236   3.659   6.661 -0.3444 -0.6215  2.1408
13668TIP3   OH262494   0.945   0.957  14.493 -0.0526  0.5224 -0.3616
13668TIP3    H162495   0.968   1.030  14.436  0.9713  0.4848 -0.0249
13668TIP3    H262496   1.024   0.942  14.545  0.1769 -1.5350 -1.2053
13669TIP3   OH262497   0.038   5.011  13.647  0.5299 -0.3123 -0.5646
13669TIP3    H162498   0.118   5.061  13.630 -0.2642  0.6069 -1.6929
13669TIP3    H262499   0.070   4.926  13.679  1.9237  1.2742  2.7704
13670TIP3   OH262500   0.546   5.574  13.114  0.2080  0.0574 -0.3877
13670TIP3    H162501   0.518   5.509  13.178 -0.1462 -2.9764 -3.3268
13670TIP3    H262502   0.502   5.548  13.033  0.6202  3.6517 -1.9368
13671TIP3   OH262503   3.838   0.027  11.879  0.6108  0.3166 -0.0172
13671TIP3    H162504   3.909   0.051  11.819  0.1955  2.0140  0.1304
13671TIP3    H262505   3.830   0.101  11.938  0.0757 -0.7408  1.2883
13672TIP3   OH262506   3.155   1.250   4.033 -0.1921  0.2048  0.1197
13672TIP3    H162507   3.104   1.176   4.001  0.4260 -0.6094  0.9598
13672TIP3    H262508   3.091   1.310   4.070 -0.5904 -0.5847  0.7403
13673TIP3   OH262509   1.889   4.842  12.869  0.0096  0.3424  0.5017
13673TIP3    H162510   1.842   4.782  12.811  2.3086 -0.1174 -1.0270
13673TIP3    H262511   1.876   4.806  12.957 -0.6142 -1.0425 -0.1341
13674TIP3   OH262512   1.876   3.181   4.963 -0.7952  0.0434 -0.4198
13674TIP3    H162513   1.917   3.267   4.955 -1.0174  0.0687 -1.3899
13674TIP3    H262514   1.823   3.172   4.884 -0.6710 -1.0375 -0.3979
13675TIP3   OH262515   4.199   5.047   6.463  0.2878 -1.1923 -0.1359
13675TIP3    H162516   4.180   4.954   6.448  0.0576 -1.0160 -0.9444
13675TIP3    H262517   4.114   5.086   6.481  0.3091 -1.0256 -0.3960
13676TIP3   OH262518   6.762   4.446  14.519 -0.1980  0.3315 -0.0747
13676TIP3    H162519   6.768   4.444  14.615  1.6585 -0.5759 -0.1744
13676TIP3    H262520   6.794   4.533  14.495  1.7388 -0.3092  0.0399
13677TIP3   OH262521   5.703   4.392  16.747  0.2897 -0.2802 -0.2017
13677TIP3    H162522   5.664   4.376  16.662  0.3286  0.6648 -0.4136
13677TIP3    H262523   5.636   4.441  16.796  0.5930 -0.0530 -0.0056
13678TIP3   OH262524   2.952   1.394  14.088 -0.1307 -0.4779  0.7521
13678TIP3    H162525   3.011   1.442  14.146 -0.0688 -0.1193  0.4019
13678TIP3    H262526   3.009   1.363  14.017 -0.3164 -0.3310  0.5361
13679TIP3   OH262527   5.232   4.423   0.740 -0.1890 -0.1402 -0.0956
13679TIP3    H162528   5.320   4.442   0.709 -0.5524  1.8198 -0.0410
13679TIP3    H262529   5.174   4.466   0.677 -1.0646 -0.1217  0.6942
13680TIP3   OH262530   1.529   0.219  16.632  0.0375  0.7518  0.2211
13680TIP3    H162531   1.491   0.262  16.708  0.7131  2.0374 -0.1516
13680TIP3    H262532   1.459   0.219  16.566 -0.7767 -0.9653  1.0177
13681TIP3   OH262533   4.193   0.433  13.225  0.4642 -0.2670  0.5147
13681TIP3    H162534   4.280   0.437  13.186 -0.5936  1.2893 -1.9219
13681TIP3    H262535   4.167   0.341  13.215  1.8776 -0.8064  1.5105
13682TIP3   OH262536   0.571   1.174   4.483  0.0794 -0.5257  0.5371
13682TIP3    H162537   0.649   1.229   4.493 -0.3374  0.0107  0.8019
13682TIP3    H262538   0.595   1.114   4.412  0.4252  0.1852  0.0352
13683TIP3   OH262539   1.290   2.269  17.200 -0.2699 -0.3708  0.1787
13683TIP3    H162540   1.266   2.267  17.107  1.8310  1.9624 -0.5142
13683TIP3    H262541   1.353   2.198  17.210 -1.3676 -1.3948  0.1703
13684TIP3   OH262542   1.740   1.056  13.788 -0.3193  0.4479 -0.1416
13684TIP3    H162543   1.753   0.970  13.828  0.6157  0.2455 -0.8136
13684TIP3    H262544   1.829   1.084  13.764  0.0474  3.4812  3.7028
13685TIP3   OH262545   4.538   6.483  14.817 -0.9387 -0.2460 -0.3838
13685TIP3    H162546   4.617   6.511  14.771 -0.1531  1.3212  1.7188
13685TIP3    H262547   4.466   6.512  14.761 -0.0908 -1.8015 -2.3943
13686TIP3   OH262548   4.107   0.250  14.393 -0.0037  0.1600  0.0283
13686TIP3    H162549   4.102   0.164  14.352  0.9894  0.3609 -0.5372
13686TIP3    H262550   4.164   0.239  14.469  1.7707  0.7164 -1.1728
13687TIP3   OH262551   2.245   2.218   1.041 -0.7892 -0.2401 -0.0283
13687TIP3    H162552   2.282   2.226   0.954  1.1466 -0.7686  0.6971
13687TIP3    H262553   2.251   2.125   1.062  0.3743  0.0914  1.2962
13688TIP3   OH262554   6.230   5.270  14.455 -0.0153  0.4816 -0.0793
13688TIP3    H162555   6.230   5.298  14.546 -0.2485 -0.8127  0.3456
13688TIP3    H262556   6.267   5.344  14.407  0.7415  0.9349  1.1467
13689TIP3   OH262557   3.977   0.659   0.176 -0.3530  0.3188  0.5385
13689TIP3    H162558   4.054   0.712   0.154 -0.7623  0.2663 -1.1294
13689TIP3    H262559   4.010   0.593   0.236  0.9834  0.1202 -0.3781
13690TIP3   OH262560   4.068   4.166   0.101 -0.4393 -0.2485 -0.1334
13690TIP3    H162561   4.091   4.088   0.152 -0.9443 -0.3170 -0.0062
13690TIP3    H262562   3.973   4.166   0.100 -0.4349  0.1786 -0.4301
13691TIP3   OH262563   5.239   5.288  14.715 -1.1160  0.4379 -0.0466
13691TIP3    H162564   5.210   5.272  14.805 -2.4399  0.3836 -0.4582
13691TIP3    H262565   5.235   5.383  14.705 -2.2207  0.3617 -0.4293
13692TIP3   OH262566   3.658   3.843  13.713 -0.0770  0.5351 -0.0126
13692TIP3    H162567   3.617   3.871  13.794  1.3801  0.1047  0.9140
13692TIP3    H262568   3.752   3.839  13.733  0.2247 -0.5080 -1.4361
13693TIP3   OH262569   5.831   2.355   5.380  0.1501 -0.1377  0.4135
13693TIP3    H162570   5.820   2.260   5.386 -2.9047  0.1613  1.8220
13693TIP3    H262571   5.802   2.388   5.465 -1.0317  2.1543 -0.7780
13694TIP3   OH262572   3.640   1.302   0.224 -0.5614  0.4096  0.7321
13694TIP3    H162573   3.661   1.245   0.298 -0.2368 -0.7820 -0.2624
13694TIP3    H262574   3.546   1.292   0.212 -0.5398  0.2508  0.6975
13695TIP3   OH262575   1.027   3.057  11.930 -0.1368  0.3871  0.0636
13695TIP3    H162576   1.107   3.102  11.903 -0.0925 -0.1144 -0.6802
13695TIP3    H262577   1.051   2.964  11.930 -0.9913  0.1381 -1.2236
13696TIP3   OH262578   5.112   3.531  12.818 -0.3701 -0.3086 -0.8653
13696TIP3    H162579   5.074   3.619  12.810 -2.5363 -1.0367  0.5992
13696TIP3    H262580   5.039   3.476  12.845  0.6850 -2.8152 -2.7317
13697TIP3   OH262581   3.037   0.902   5.410 -0.3617  0.1903 -0.1320
13697TIP3    H162582   3.123   0.870   5.380 -0.1704 -0.3029  0.8997
13697TIP3    H262583   2.995   0.824   5.446 -0.8826  0.6220  0.1876
13698TIP3   OH262584   3.693   3.714  16.195  0.0138  0.1629 -0.1452
13698TIP3    H162585   3.697   3.809  16.210  1.1722  0.1589 -0.3728
13698TIP3    H262586   3.694   3.676  16.282 -2.4416  0.3769  0.0606
13699TIP3   OH262587   0.177   5.994   0.591 -0.4605  0.9360  0.3484
13699TIP3    H162588   0.265   6.014   0.625 -0.9276  2.6050  0.6550
13699TIP3    H262589   0.192   5.925   0.526  1.1686  1.6613 -0.1058
13700TIP3   OH262590   5.463   1.617  12.000 -0.0834 -0.8758 -0.5762
13700TIP3    H162591   5.542   1.653  11.961  0.0602 -2.3977 -1.7998
13700TIP3    H262592   5.419   1.692  12.040  1.8143  0.0502 -0.1190
13701TIP3   OH262593   3.313   1.069   0.463 -0.2935 -0.3837 -0.1601
13701TIP3    H162594   3.248   1.124   0.506 -0.6169  0.0761 -1.1861
13701TIP3    H262595   3.389   1.126   0.451  0.4724 -1.0209  1.3587
13702TIP3   OH262596   4.763   5.538  10.896  0.2053 -0.5012  0.1610
13702TIP3    H162597   4.677   5.497  10.884  0.9761 -2.0788 -0.2303
13702TIP3    H262598   4.799   5.543  10.807  0.4715  0.3078  0.3047
13703TIP3   OH262599   0.055   3.574  11.020 -0.5718 -0.2462  0.2163
13703TIP3    H162600   0.086   3.499  11.070 -1.6651 -0.1838  1.0074
13703TIP3    H262601   0.012   3.535  10.944  1.4517 -0.3337 -0.9589
13704TIP3   OH262602   2.532   6.776   0.847 -0.3244 -0.2275 -0.0758
13704TIP3    H162603   2.489   6.726   0.917 -0.8214 -0.3826 -0.4836
13704TIP3    H262604   2.566   6.854   0.891 -1.2526  0.0284  0.2211
13705TIP3   OH262605   4.252   4.124   1.573  0.1876  0.3881  0.0154
13705TIP3    H162606   4.183   4.059   1.590  0.4155 -0.1124 -0.9208
13705TIP3    H262607   4.334   4.075   1.586  0.3688  0.8522  0.6464
13706TIP3   OH262608   2.963   6.323  14.139  0.5416 -0.3931 -0.6522
13706TIP3    H162609   2.925   6.381  14.073  1.0487  1.5097  0.6587
13706TIP3    H262610   3.037   6.281  14.094  0.6812  0.6099 -1.3926
13707TIP3   OH262611   1.060   3.553  14.607  0.3301  0.9687 -0.3615
13707TIP3    H162612   1.062   3.477  14.665  0.3588  1.8169  0.7756
13707TIP3    H262613   0.967   3.565  14.587  0.0845  1.7859  1.0707
13708TIP3   OH262614   1.987   3.765  14.607 -0.1774  0.6952  0.1197
13708TIP3    H162615   2.001   3.854  14.639  0.4475  1.4990 -2.1708
13708TIP3    H262616   1.903   3.738  14.645  0.2647  1.7197  1.9218
13709TIP3   OH262617   4.567   4.744  11.286  0.2439  0.6355  0.1969
13709TIP3    H162618   4.506   4.719  11.217  0.0525  0.1117  0.5522
13709TIP3    H262619   4.597   4.832  11.261  2.2598 -0.5681 -2.0236
13710TIP3   OH262620   1.064   5.742  16.094  0.4226 -0.4356  0.1485
13710TIP3    H162621   1.034   5.811  16.035  0.5630 -0.7669 -0.3137
13710TIP3    H262622   1.046   5.776  16.182 -1.5495 -0.7299 -0.1133
13711TIP3   OH262623   5.088   1.408  12.174  0.5480 -0.3362  0.2739
13711TIP3    H162624   4.996   1.419  12.149  0.6535 -0.8162 -0.3318
13711TIP3    H262625   5.136   1.455  12.106  0.7696 -0.3629  0.4135
13712TIP3   OH262626   0.715   4.039   2.222 -0.3304 -0.1892  0.3754
13712TIP3    H162627   0.748   4.110   2.167  0.2551  0.4563  1.5349
13712TIP3    H262628   0.655   3.991   2.165 -0.1262  0.7530 -0.6710
13713TIP3   OH262629   2.580   1.873  16.267 -0.2477 -0.1167  0.2574
13713TIP3    H162630   2.659   1.825  16.241  1.8906  2.0685  2.2357
13713TIP3    H262631   2.582   1.873  16.362 -1.6410  1.5648  0.3389
13714TIP3   OH262632   0.276   6.572  16.481  0.0116 -0.1845 -0.1239
13714TIP3    H162633   0.258   6.657  16.442 -0.2351 -0.2523 -0.1625
13714TIP3    H262634   0.215   6.512  16.437 -2.0731  0.1455  2.0685
13715TIP3   OH262635   4.854   0.884   3.753  0.0220  0.2417 -0.7243
13715TIP3    H162636   4.927   0.908   3.695 -0.0196 -0.1703 -0.9538
13715TIP3    H262637   4.868   0.791   3.771  0.2992  0.4787  0.3253
13716TIP3   OH262638   1.959   2.472  12.294  0.1396  0.4977  0.3630
13716TIP3    H162639   1.963   2.507  12.383  0.8095  0.8394  0.2043
13716TIP3    H262640   1.869   2.490  12.265 -0.2760 -0.1897  1.1869
13717TIP3   OH262641   0.281   1.154   4.961 -0.5543  0.0692  0.2150
13717TIP3    H162642   0.318   1.101   4.890 -1.2041 -0.3856  0.2115
13717TIP3    H262643   0.335   1.132   5.037  0.1013  0.5053 -0.1139
13718TIP3   OH262644   0.187   5.179   1.534 -0.0357 -0.0964  0.2328
13718TIP3    H162645   0.114   5.135   1.490 -1.0044  1.2634  0.4228
13718TIP3    H262646   0.243   5.210   1.462 -1.0235  1.1145 -0.0595
13719TIP3   OH262647   5.446   4.227   5.543  0.1453 -0.3737  0.3579
13719TIP3    H162648   5.385   4.154   5.530 -0.7906  0.7592 -2.3596
13719TIP3    H262649   5.533   4.187   5.542 -0.3384 -1.4979 -1.2926
13720TIP3   OH262650   4.055   0.674  13.267  0.7846  0.2933 -0.6625
13720TIP3    H162651   4.092   0.592  13.235  1.9535  0.4771  0.1740
13720TIP3    H262652   4.104   0.694  13.347 -0.5443  1.0008  0.0236
13721TIP3   OH262653   0.583   1.422  17.106 -0.3522 -0.5308  0.1684
13721TIP3    H162654   0.618   1.507  17.080 -0.2199 -0.6465 -0.0383
13721TIP3    H262655   0.576   1.427  17.201  0.2494 -0.5085  0.2195
13722TIP3   OH262656   6.728   3.468   4.482  0.2913 -0.5731  0.3026
13722TIP3    H162657   6.774   3.522   4.418 -1.3655  1.7659  0.9732
13722TIP3    H262658   6.687   3.399   4.429  0.7256  0.0196 -0.8522
13723TIP3   OH262659   3.326   5.925  11.211  0.1441 -0.2322 -0.7660
13723TIP3    H162660   3.343   5.831  11.219  2.5265  0.0715 -1.5624
13723TIP3    H262661   3.412   5.964  11.196 -0.7685  2.1139 -0.3303
13724TIP3   OH262662   5.410   2.675  13.719  0.1186  0.1468 -0.2618
13724TIP3    H162663   5.326   2.721  13.719 -1.3039 -2.2169  1.3102
13724TIP3    H262664   5.394   2.598  13.665  1.1317 -0.5698  0.4315
13725TIP3   OH262665   3.216   6.127  12.431 -0.8725 -0.6144  0.4263
13725TIP3    H162666   3.279   6.086  12.371 -0.1870  2.0958 -0.8294
13725TIP3    H262667   3.236   6.089  12.517  0.5426 -1.9153 -0.4302
13726TIP3   OH262668   6.326   3.001  15.507 -0.0288 -0.3880 -0.0618
13726TIP3    H162669   6.258   3.050  15.553  0.2151  0.4888 -0.6062
13726TIP3    H262670   6.408   3.042  15.535  0.2733 -1.3187  0.4510
13727TIP3   OH262671   6.726   1.168  11.472 -0.1418 -0.4571 -0.1952
13727TIP3    H162672   6.644   1.210  11.446 -0.3470  0.6984  2.0434
13727TIP3    H262673   6.702   1.077  11.488 -1.3624  0.0963  1.5787
13728TIP3   OH262674   1.425   5.285   3.847  0.0371 -0.3356  0.2847
13728TIP3    H162675   1.423   5.376   3.818  1.5569  0.1610  1.6190
13728TIP3    H262676   1.366   5.283   3.922  1.2482 -0.0380  1.2733
13729TIP3   OH262677   1.263   0.671   3.318  0.0911 -0.1170 -0.1418
13729TIP3    H162678   1.192   0.661   3.255 -0.8514 -1.4502  1.0752
13729TIP3    H262679   1.250   0.600   3.381  2.2989 -0.1924  0.3213
13730TIP3   OH262680   0.407   2.461  16.700  0.0358  0.2271  0.0856
13730TIP3    H162681   0.384   2.378  16.658 -1.9986  0.4100  0.7292
13730TIP3    H262682   0.375   2.451  16.790  0.8421  1.2703  0.4952
13731TIP3   OH262683   0.840   0.776   5.386  0.1052  0.3594 -0.1808
13731TIP3    H162684   0.806   0.687   5.388  0.0724  0.3800  0.2612
13731TIP3    H262685   0.935   0.765   5.377  0.1435  0.2726  0.3312
13732TIP3   OH262686   2.893   1.865   0.727  0.2257 -0.0465 -0.3070
13732TIP3    H162687   2.803   1.898   0.731 -0.1843 -0.9763 -1.3415
13732TIP3    H262688   2.890   1.794   0.663  1.6740 -0.1964 -0.2489
13733TIP3   OH262689   5.081   6.454   5.117 -0.0740 -0.5847 -0.5495
13733TIP3    H162690   4.997   6.420   5.086 -0.1266 -1.9772  1.0045
13733TIP3    H262691   5.064   6.481   5.207  0.8172  0.5121 -0.6805
13734TIP3   OH262692   3.086   3.953  16.266  0.0048 -0.0261  0.2716
13734TIP3    H162693   3.161   3.894  16.257  1.6725  2.1935 -1.2821
13734TIP3    H262694   3.059   3.971  16.176 -1.2231  0.6749  0.7608
13735TIP3   OH262695   5.187   5.254  14.998  0.3690  0.0645 -0.1891
13735TIP3    H162696   5.273   5.267  15.038  0.2520  1.4950 -0.3550
13735TIP3    H262697   5.129   5.234  15.072  0.9287 -1.5444 -0.1396
13736TIP3   OH262698   1.825   4.029  12.361  0.0738  0.2646  0.7407
13736TIP3    H162699   1.832   4.088  12.285  1.6086  0.6057  1.1200
13736TIP3    H262700   1.878   4.071  12.428 -0.1655 -0.7393  1.5637
13737TIP3   OH262701   4.834   4.760   5.491 -0.4218 -0.1751  0.2346
13737TIP3    H162702   4.826   4.813   5.570 -1.3397 -1.3870  0.9883
13737TIP3    H262703   4.912   4.706   5.507 -1.4577 -1.5241  1.0570
13738TIP3   OH262704   1.263   1.165  15.583 -0.0702  0.1668 -0.2900
13738TIP3    H162705   1.296   1.175  15.672  1.8598  1.4067 -1.0859
13738TIP3    H262706   1.244   1.072  15.575 -0.4040  0.0549  1.4468
13739TIP3   OH262707   4.928   2.910  16.653 -0.2889  0.2244 -0.5799
13739TIP3    H162708   4.967   2.917  16.740  1.9414  0.1702 -1.5259
13739TIP3    H262709   4.951   2.992  16.610  0.7438 -0.7293 -1.9055
13740TIP3   OH262710   1.721   5.737  15.167 -0.3487  0.0071  0.0942
13740TIP3    H162711   1.648   5.681  15.143 -1.4944  1.8626 -1.0225
13740TIP3    H262712   1.788   5.677  15.200 -1.5212 -1.9622 -0.9297
13741TIP3   OH262713   6.582   4.840   5.963 -0.1981  0.8001  1.1275
13741TIP3    H162714   6.510   4.882   5.916  0.1725 -2.2005 -2.6459
13741TIP3    H262715   6.656   4.899   5.950 -0.5819  0.9653 -0.5110
13742TIP3   OH262716   5.211   5.083   5.656  0.6151  0.2489  0.2153
13742TIP3    H162717   5.200   5.040   5.571  0.5406 -2.1371  1.3457
13742TIP3    H262718   5.127   5.072   5.699  1.3840 -0.7797  1.5131
13743TIP3   OH262719   5.334   3.366  15.355 -0.4739  0.6224 -0.6678
13743TIP3    H162720   5.324   3.402  15.267  0.1607  0.4850 -0.7953
13743TIP3    H262721   5.289   3.281  15.351  0.0698  0.3437 -1.0357
13744TIP3   OH262722   4.697   2.116  13.188  0.0891  0.1450  0.0687
13744TIP3    H162723   4.684   2.206  13.217 -0.2739 -0.3409  1.4987
13744TIP3    H262724   4.623   2.098  13.132 -0.6815  0.2661  1.0169
13745TIP3   OH262725   4.524   2.488   0.005  0.4685  0.3927  0.0927
13745TIP3    H162726   4.486   2.466  -0.080  1.6372 -1.7422  0.0442
13745TIP3    H262727   4.533   2.403   0.049  1.7425  1.2419  1.5497
13746TIP3   OH262728   4.550   0.337   0.201  0.0016  0.3680 -0.1678
13746TIP3    H162729   4.594   0.319   0.284  1.6518 -0.1901 -1.1033
13746TIP3    H262730   4.597   0.412   0.165 -1.0702  0.9637 -0.3638
13747TIP3   OH262731   3.301   4.033  13.064  0.4536 -0.2146  0.0942
13747TIP3    H162732   3.324   4.058  13.153  2.9870 -1.6570 -0.0567
13747TIP3    H262733   3.348   4.094  13.008 -1.1779  0.7304 -0.3106
13748TIP3   OH262734   4.057   4.591   3.866 -0.3342  0.4124  0.0249
13748TIP3    H162735   4.133   4.583   3.924 -1.6160 -0.0452  1.7344
13748TIP3    H262736   4.048   4.685   3.851  0.7867  0.4487 -0.5574
13749TIP3   OH262737   5.127   4.015   4.875 -0.7774  0.0332  0.4995
13749TIP3    H162738   5.206   3.970   4.846 -0.6139 -0.0622  1.0861
13749TIP3    H262739   5.070   4.016   4.798  0.3982  1.4785 -0.4132
13750TIP3   OH262740   5.813   0.226  13.728 -0.2346  0.1320 -0.4093
13750TIP3    H162741   5.882   0.267  13.780  0.0316 -1.0265  0.1810
13750TIP3    H262742   5.765   0.300  13.689  2.3143  0.9875 -2.1809
13751TIP3   OH262743   4.033   1.485  16.882 -0.9160  0.0476 -0.0544
13751TIP3    H162744   4.039   1.395  16.852  0.4892  0.2254 -0.3378
13751TIP3    H262745   3.954   1.486  16.937  0.0899 -1.8341  1.5705
13752TIP3   OH262746   5.264   3.671   2.713  0.6482  0.8703  0.3765
13752TIP3    H162747   5.348   3.698   2.675  1.1483  1.9059  2.1243
13752TIP3    H262748   5.261   3.576   2.700  1.5906  0.9598 -0.6480
13753TIP3   OH262749   5.996   6.116   1.878  0.0293 -0.0538 -0.1551
13753TIP3    H162750   5.928   6.109   1.944  0.4684  1.3837  0.4938
13753TIP3    H262751   6.066   6.167   1.920  1.4857 -1.4199 -0.8214
13754TIP3   OH262752   5.946   4.420   4.411  0.2474  0.0729  0.3725
13754TIP3    H162753   5.923   4.368   4.334  0.3912  0.2232  0.2291
13754TIP3    H262754   5.921   4.365   4.485 -0.0467  0.0007  0.2176
13755TIP3   OH262755   0.723   2.615   0.181  0.0289  0.2098 -0.5443
13755TIP3    H162756   0.772   2.577   0.254  0.7391 -0.3609 -1.3079
13755TIP3    H262757   0.766   2.699   0.163 -0.0938  0.3108 -0.3799
13756TIP3   OH262758   6.539   6.098  16.285  0.3826  0.4861 -0.6424
13756TIP3    H162759   6.503   6.155  16.353  0.4402  0.2693 -0.4272
13756TIP3    H262760   6.572   6.158  16.219  0.6176  0.7067 -0.3271
13757TIP3   OH262761   0.388   4.584  14.602 -0.3826 -0.3236  0.2450
13757TIP3    H162762   0.354   4.663  14.644 -0.7492 -0.0238 -0.6046
13757TIP3    H262763   0.370   4.596  14.509  0.5718 -0.8995 -0.0348
13758TIP3   OH262764   3.795   3.137   2.098 -0.3379  0.7381  0.1358
13758TIP3    H162765   3.834   3.114   2.014 -1.5057 -0.9133 -0.0090
13758TIP3    H262766   3.727   3.202   2.076 -0.2886  0.6998 -0.1339
13759TIP3   OH262767   0.887   0.585  14.634 -0.9273 -0.5773  0.4516
13759TIP3    H162768   0.871   0.656  14.697  0.4942  2.3524 -2.1637
13759TIP3    H262769   0.819   0.596  14.568 -0.4002 -1.3357 -0.2423
13760TIP3   OH262770   1.201   4.840   6.263 -0.0963  0.1539  0.3000
13760TIP3    H162771   1.262   4.884   6.323 -1.1837  1.5259  0.4367
13760TIP3    H262772   1.243   4.845   6.178  0.4686  0.1282  0.5735
13761TIP3   OH262773   6.404   2.481  16.465  0.3027 -0.4214 -0.8099
13761TIP3    H162774   6.490   2.517  16.447  0.3309  0.1339  0.3719
13761TIP3    H262775   6.418   2.386  16.468  1.3451 -0.2585  1.5615
13762TIP3   OH262776   0.513   0.510   2.162  0.1705  0.1170  0.9900
13762TIP3    H162777   0.541   0.443   2.224 -0.5704 -1.6533 -0.5057
13762TIP3    H262778   0.593   0.537   2.118  0.5003  0.3690  1.7279
13763TIP3   OH262779   4.125   1.830  17.126 -0.1049  0.2368 -0.5748
13763TIP3    H162780   4.183   1.781  17.185  0.2464 -0.5687 -1.5687
13763TIP3    H262781   4.090   1.901  17.181 -0.4393 -0.9672  0.8297
13764TIP3   OH262782   2.501   1.883  14.180  0.2870  1.0123 -0.2151
13764TIP3    H162783   2.445   1.921  14.112 -2.0404 -0.1645  0.9355
13764TIP3    H262784   2.485   1.789  14.175  0.4805  0.8550  1.5931
13765TIP3   OH262785   2.331   4.448   1.111 -0.2189 -0.6356 -0.5744
13765TIP3    H162786   2.410   4.423   1.064 -0.3629 -1.9546 -0.1629
13765TIP3    H262787   2.298   4.524   1.064  1.1504 -0.2073 -0.8965
13766TIP3   OH262788   1.748   0.356   3.426 -0.6697 -0.7960  0.5428
13766TIP3    H162789   1.823   0.415   3.430 -1.0326 -0.3149  0.3550
13766TIP3    H262790   1.727   0.337   3.517 -0.0139 -1.3304  0.5874
13767TIP3   OH262791   5.025   4.616   3.546  0.3964  0.0785  0.2356
13767TIP3    H162792   4.997   4.694   3.498  2.1994  1.0517  0.7039
13767TIP3    H262793   4.975   4.620   3.628  2.4333  2.3264  1.4933
13768TIP3   OH262794   2.584   3.521  11.942 -0.3201  0.1316  0.6667
13768TIP3    H162795   2.631   3.473  11.874  0.6269  1.4879  0.3115
13768TIP3    H262796   2.652   3.563  11.994 -1.0501 -0.4726  2.1858
13769TIP3   OH262797   5.267   5.421   4.385  0.0261 -0.2629 -0.4366
13769TIP3    H162798   5.361   5.438   4.394 -0.1404  0.3543  0.1824
13769TIP3    H262799   5.232   5.501   4.346 -0.1055 -0.8584 -1.5987
13770TIP3   OH262800   2.147   3.823   1.149  0.0276  0.4836 -0.6604
13770TIP3    H162801   2.060   3.790   1.125 -1.3181  1.8961  1.8095
13770TIP3    H262802   2.182   3.859   1.068 -0.6934 -2.0626 -2.2234
13771TIP3   OH262803   1.364   5.647   3.212  0.0156 -0.2839 -0.0217
13771TIP3    H162804   1.448   5.603   3.205  0.2460 -0.0066  0.8782
13771TIP3    H262805   1.309   5.587   3.262 -1.1120 -1.5497 -2.6308
13772TIP3   OH262806   0.464   0.205  15.355 -0.1844 -0.2979  0.5871
13772TIP3    H162807   0.537   0.167  15.404  1.1643  1.5198  0.0827
13772TIP3    H262808   0.465   0.160  15.271  0.0950 -0.5526  0.7270
13773TIP3   OH262809   4.683   4.006   6.452 -0.1845  0.7504  0.9181
13773TIP3    H162810   4.778   4.006   6.436 -0.5698 -2.1112 -2.7471
13773TIP3    H262811   4.665   3.921   6.491 -1.4077  0.2391 -0.6553
13774TIP3   OH262812   5.175   0.489  15.025  0.2241  0.3267 -0.9577
13774TIP3    H162813   5.251   0.466  14.972 -0.8822 -0.9913 -2.0516
13774TIP3    H262814   5.103   0.437  14.989 -1.2998  1.7818 -0.2052
13775TIP3   OH262815   1.775   5.699  15.485 -0.0612 -0.3081 -0.1313
13775TIP3    H162816   1.744   5.631  15.426 -0.3199 -0.3585  0.0612
13775TIP3    H262817   1.799   5.652  15.566 -1.8334 -0.0019  0.6193
13776TIP3   OH262818   3.618   6.401  17.033 -0.5944  0.0938 -0.1281
13776TIP3    H162819   3.689   6.343  17.060 -1.4898 -0.5265  0.9903
13776TIP3    H262820   3.633   6.416  16.940 -0.2934 -1.8953 -0.4502
13777TIP3   OH262821   4.690   1.434   2.605 -0.4106 -0.1415  0.2310
13777TIP3    H162822   4.669   1.361   2.663  0.7001  0.9550  2.1375
13777TIP3    H262823   4.763   1.403   2.552  0.8856 -0.0590  1.8983
13778TIP3   OH262824   0.942   0.816  16.011  0.2734  0.2101 -0.5635
13778TIP3    H162825   0.897   0.847  16.089  1.2714  0.7823 -0.1956
13778TIP3    H262826   0.953   0.722  16.024  0.6686  0.3482  0.1019
13779TIP3   OH262827   5.096   3.286  12.473  0.0382 -0.0979 -0.2872
13779TIP3    H162828   5.170   3.345  12.462  0.3670  0.1172  2.3918
13779TIP3    H262829   5.133   3.207  12.513 -1.0365 -0.3153  0.3344
13780TIP3   OH262830   0.551   2.120  12.959  0.8690 -0.4015  0.2273
13780TIP3    H162831   0.496   2.198  12.952  1.2879 -0.2280 -1.6321
13780TIP3    H262832   0.640   2.155  12.963  0.9644 -0.7317  1.9347
13781TIP3   OH262833   6.554   4.773  16.023 -0.3373  0.3872  0.2479
13781TIP3    H162834   6.607   4.842  16.062  0.3964  0.5736 -1.0123
13781TIP3    H262835   6.473   4.817  15.997 -0.3225  0.5297  0.4432
13782TIP3   OH262836   1.633   0.619   3.186 -0.2853  0.1814  0.0651
13782TIP3    H162837   1.714   0.617   3.236 -0.7767 -0.2161  0.8636
13782TIP3    H262838   1.583   0.692   3.223 -0.4849  0.1376 -0.1150
13783TIP3   OH262839   6.687   3.264   3.611  0.1634 -0.1707  0.0173
13783TIP3    H162840   6.682   3.220   3.696  1.1045  0.5559  0.4672
13783TIP3    H262841   6.689   3.193   3.547 -1.5499 -0.7255  0.5059
13784TIP3   OH262842   0.332   2.287   4.747  0.4137 -0.2722 -0.3017
13784TIP3    H162843   0.242   2.303   4.719  0.5460  1.0599 -0.0627
13784TIP3    H262844   0.373   2.244   4.672 -0.3220 -0.5405 -0.5579
13785TIP3   OH262845   4.312   1.333  14.913  0.5648 -0.4982 -0.3295
13785TIP3    H162846   4.259   1.404  14.875 -0.3144 -1.0001 -0.0718
13785TIP3    H262847   4.370   1.306  14.842 -1.4958 -1.8571 -1.5978
13786TIP3   OH262848   1.850   2.828  16.758 -0.5897  0.1505  0.3352
13786TIP3    H162849   1.857   2.805  16.851 -2.2387  0.3131  0.5188
13786TIP3    H262850   1.921   2.891  16.745 -0.2467  0.0295  1.4580
13787TIP3   OH262851   2.596   2.966   3.336 -0.2490  0.2729  0.2307
13787TIP3    H162852   2.649   2.965   3.256 -1.0330  0.0564 -0.2973
13787TIP3    H262853   2.603   2.876   3.370 -0.1971  0.2715  0.2164
13788TIP3   OH262854   3.157   3.871  13.466  0.6229 -0.5539 -0.2588
13788TIP3    H162855   3.218   3.845  13.535  3.4843 -0.9061 -2.7159
13788TIP3    H262856   3.179   3.815  13.392 -4.1475 -2.1450 -0.8048
13789TIP3   OH262857   0.479   2.323   5.011 -0.1486  0.3652  0.5631
13789TIP3    H162858   0.424   2.289   4.940  0.5488 -0.3489  0.3471
13789TIP3    H262859   0.566   2.330   4.972 -0.0444  1.3674  0.9365
13790TIP3   OH262860   4.121   2.511  11.721  0.1694  0.1749  0.0784
13790TIP3    H162861   4.126   2.490  11.814  1.7150  1.3693  0.3128
13790TIP3    H262862   4.212   2.525  11.695 -0.3621  1.6363 -1.1545
13791TIP3   OH262863   3.866   3.828   1.892 -0.2170  0.0875 -0.0873
13791TIP3    H162864   3.857   3.839   1.987 -0.4854  1.7316 -0.2778
13791TIP3    H262865   3.915   3.905   1.863  0.3402 -0.6625 -1.2253
13792TIP3   OH262866   4.094   3.001   3.075 -0.1255  0.1878 -0.1624
13792TIP3    H162867   4.134   3.075   3.122  0.0375 -1.1664  1.9387
13792TIP3    H262868   4.007   3.033   3.051  0.1877  1.3036  0.1017
13793TIP3   OH262869   5.039   1.235  16.228  0.1034 -0.0947 -0.0897
13793TIP3    H162870   5.084   1.160  16.266 -0.2251 -0.3142 -0.1310
13793TIP3    H262871   5.045   1.222  16.134 -1.2766 -0.8852 -0.1020
13794TIP3   OH262872   1.750   6.658  13.766  0.2376 -0.2735 -0.9436
13794TIP3    H162873   1.838   6.674  13.802  0.7559 -0.2306 -2.1666
13794TIP3    H262874   1.696   6.727  13.802  0.6234 -0.5007  0.1017
13795TIP3   OH262875   2.801   6.091  15.804  1.0850 -0.2935 -0.0707
13795TIP3    H162876   2.804   6.179  15.767 -0.3634 -0.5803 -0.9337
13795TIP3    H262877   2.742   6.042  15.747  0.9222 -1.5060  1.0706
13796TIP3   OH262878   0.984   4.693  14.231  0.2338  0.4639  0.4529
13796TIP3    H162879   0.927   4.753  14.182  1.8559  1.5294 -0.1990
13796TIP3    H262880   1.054   4.749  14.265  1.1925 -0.8855  0.7801
13797TIP3   OH262881   1.637   2.244   2.665 -0.4474 -0.2850  0.7315
13797TIP3    H162882   1.732   2.254   2.663 -0.3275 -1.4253 -1.2422
13797TIP3    H262883   1.623   2.150   2.672 -1.4243 -0.1845  0.3216
13798TIP3   OH262884   2.794   4.607   2.967  0.5396  0.0100 -0.2067
13798TIP3    H162885   2.731   4.537   2.985 -0.6383  0.5448 -1.9811
13798TIP3    H262886   2.820   4.639   3.054 -2.1200  0.1825  0.6122
13799TIP3   OH262887   1.371   3.131   2.326  0.0195  0.1009 -0.2085
13799TIP3    H162888   1.431   3.101   2.395 -0.7844  0.6832  0.7752
13799TIP3    H262889   1.354   3.223   2.347 -0.8168  0.0880 -0.7700
13800TIP3   OH262890   6.731   0.630  13.703  0.1962  0.1714  0.2597
13800TIP3    H162891   6.670   0.696  13.671 -0.5065  0.0485  1.2800
13800TIP3    H262892   6.696   0.605  13.789  1.4448 -0.2252  0.6749
13801TIP3   OH262893   1.023   4.719   2.629  0.4155 -0.4765  0.0124
13801TIP3    H162894   1.068   4.683   2.704  1.2329  0.3502 -0.0621
13801TIP3    H262895   1.013   4.646   2.568  2.0471 -0.6064 -0.1454
13802TIP3   OH262896   4.193   0.932   4.901 -0.0677  0.0078 -0.3122
13802TIP3    H162897   4.168   0.976   4.982 -1.6062 -1.2518 -0.0566
13802TIP3    H262898   4.195   1.002   4.835  0.8685  0.9861  0.7132
13803TIP3   OH262899   3.397   1.635  10.811 -0.2388  0.5544  0.2823
13803TIP3    H162900   3.443   1.647  10.728 -0.1939 -1.5801 -0.0554
13803TIP3    H262901   3.304   1.644  10.789 -0.3339 -1.5476 -0.3697
13804TIP3   OH262902   5.842   2.291  14.837 -0.7278  0.1292 -0.4593
13804TIP3    H162903   5.923   2.313  14.792 -0.3083 -0.5148 -0.0301
13804TIP3    H262904   5.777   2.352  14.801 -0.0034  0.8109 -0.6233
13805TIP3   OH262905   4.858   5.971  12.127  0.7175 -0.0784 -0.3814
13805TIP3    H162906   4.907   5.900  12.169 -0.4432 -0.5213  0.2686
13805TIP3    H262907   4.901   5.983  12.043  0.3511 -2.2400 -0.9238
13806TIP3   OH262908   2.820   3.364  14.752  0.4713  0.0100  0.7393
13806TIP3    H162909   2.762   3.298  14.790  0.4426 -1.2705 -1.3277
13806TIP3    H262910   2.908   3.335  14.776  0.5251 -1.4434 -0.9656
13807TIP3   OH262911   1.651   0.901   2.523  0.0552  0.1059  0.3106
13807TIP3    H162912   1.580   0.892   2.587 -1.2566  0.3644 -1.0320
13807TIP3    H262913   1.665   0.995   2.516 -0.8847  0.2014 -0.8255
13808TIP3   OH262914   2.591   4.458   2.290 -0.3580  0.0920 -0.2616
13808TIP3    H162915   2.614   4.442   2.382  1.5526  2.2457 -0.2660
13808TIP3    H262916   2.659   4.412   2.240 -0.4589  0.2281 -0.5273
13809TIP3   OH262917   3.922   1.145   1.792 -0.1392  0.1304 -0.2256
13809TIP3    H162918   3.908   1.204   1.866  2.1271 -0.4704  0.7783
13809TIP3    H262919   3.978   1.075   1.826 -1.1818 -1.6336 -1.8554
13810TIP3   OH262920   2.479   5.633   5.075  0.5385  0.2160  0.6745
13810TIP3    H162921   2.459   5.588   4.993  1.5710 -0.6813  0.8991
13810TIP3    H262922   2.567   5.603   5.099  0.9918  1.8280  1.1935
13811TIP3   OH262923   5.231   3.097  16.635  0.1735 -0.1112 -0.0799
13811TIP3    H162924   5.258   3.176  16.682 -0.5974 -1.4424  2.7914
13811TIP3    H262925   5.140   3.114  16.610  0.3127  0.2664 -0.3412
13812TIP3   OH262926   5.667   0.050  12.687 -0.1893  0.3835  0.1553
13812TIP3    H162927   5.572   0.046  12.697 -0.1665  0.2832  0.3233
13812TIP3    H262928   5.685   0.139  12.657 -0.2603  0.6469  0.8887
13813TIP3   OH262929   1.427   4.208   2.001  0.1685  0.2688  0.1200
13813TIP3    H162930   1.409   4.133   2.057  0.9641 -0.0134  0.0112
13813TIP3    H262931   1.456   4.170   1.918  0.2586  0.6923 -0.0464
13814TIP3   OH262932   6.103   6.294   4.552  0.7305 -0.3725 -0.0985
13814TIP3    H162933   6.020   6.338   4.569  0.3929 -1.0991  0.1505
13814TIP3    H262934   6.170   6.357   4.580  0.2269 -0.6808  1.9528
13815TIP3   OH262935   1.685   4.676  11.021 -0.1097 -0.3210 -0.1721
13815TIP3    H162936   1.703   4.749  10.961 -0.4398  0.2747  0.4402
13815TIP3    H262937   1.771   4.638  11.038  0.2724  0.8635  0.6690
13816TIP3   OH262938   3.981   2.006   4.427 -0.0393 -0.4328  0.2357
13816TIP3    H162939   4.056   1.956   4.460 -0.3823  0.3788  2.4598
13816TIP3    H262940   3.961   2.067   4.498 -0.5451  1.8951 -1.7770
13817TIP3   OH262941   0.463   4.509   4.225 -0.1480 -0.7322  0.0619
13817TIP3    H162942   0.445   4.537   4.315  2.1821  1.0736  0.0440
13817TIP3    H262943   0.378   4.511   4.182 -0.9054  1.2770  1.4892
13818TIP3   OH262944   4.661   4.189  17.032  0.6099 -0.1516  0.1658
13818TIP3    H162945   4.631   4.266  17.079 -0.5501 -0.0483 -0.7070
13818TIP3    H262946   4.713   4.140  17.096  0.2680  0.6966  1.1065
13819TIP3   OH262947   6.165   5.009  12.737  0.5411 -0.2614 -0.3984
13819TIP3    H162948   6.236   5.032  12.677  0.5989  0.3414 -0.1009
13819TIP3    H262949   6.194   4.927  12.778  0.0626 -1.2254 -1.8892
13820TIP3   OH262950   6.190   1.861   2.570  0.1604 -0.3516  0.2338
13820TIP3    H162951   6.274   1.880   2.528  0.0680 -1.3031 -0.4117
13820TIP3    H262952   6.149   1.947   2.581  1.1443  0.1031  0.4169
13821TIP3   OH262953   1.510   2.751  12.361 -0.7446  0.3889 -0.4700
13821TIP3    H162954   1.500   2.691  12.434  0.4784 -0.0629 -0.6512
13821TIP3    H262955   1.445   2.819  12.377 -0.4906  0.3067  1.0444
13822TIP3   OH262956   1.433   2.836   2.002  0.4250  0.3918  0.7088
13822TIP3    H162957   1.474   2.917   1.970 -0.2874 -0.1768 -1.8502
13822TIP3    H262958   1.504   2.789   2.045  1.2996  1.5427  0.5756
13823TIP3   OH262959   6.812   6.729  16.920 -0.1484  0.4634  0.0154
13823TIP3    H162960   6.736   6.703  16.973 -0.5811  1.2607 -0.1981
13823TIP3    H262961   6.861   6.788  16.976 -0.0219  0.4485 -0.0786
13824TIP3   OH262962   0.366   6.416  11.185  0.8861 -0.6158  0.1903
13824TIP3    H162963   0.316   6.346  11.228  0.5700 -0.1076  0.6671
13824TIP3    H262964   0.357   6.491  11.244  1.6455 -0.3174 -0.0640
13825TIP3   OH262965   5.012   5.786  12.290 -0.1219 -0.0538 -0.3533
13825TIP3    H162966   4.997   5.773  12.384  0.0373  1.8251 -0.0203
13825TIP3    H262967   5.103   5.817  12.285  0.4317 -1.6861 -1.3330
13826TIP3   OH262968   0.698   5.170  12.396 -0.2655  0.3850 -0.1866
13826TIP3    H162969   0.634   5.103  12.373 -1.4237  0.2543  2.9729
13826TIP3    H262970   0.676   5.244  12.340 -3.5917  0.5164  1.0729
13827TIP3   OH262971   4.483   4.445   4.629  0.0217  0.8819 -0.4568
13827TIP3    H162972   4.530   4.375   4.674 -1.0941  0.4921  0.1596
13827TIP3    H262973   4.392   4.414   4.627 -0.0252  0.9896 -2.7907
13828TIP3   OH262974   1.559   4.669   2.735  0.0495 -0.3131  0.0939
13828TIP3    H162975   1.619   4.733   2.695 -0.2231 -0.8636 -1.2648
13828TIP3    H262976   1.472   4.695   2.706 -0.1042 -1.0570 -0.1438
13829TIP3   OH262977   5.149   4.112  14.325 -0.3206  0.4613 -0.0477
13829TIP3    H162978   5.176   4.051  14.394 -0.4779  1.6275  1.0986
13829TIP3    H262979   5.159   4.063  14.244  1.7974 -0.3321  0.6247
13830TIP3   OH262980   4.321   1.002  12.495 -0.3900 -0.1124  0.7598
13830TIP3    H162981   4.380   1.004  12.570  0.1424 -1.1429  0.3805
13830TIP3    H262982   4.372   0.964  12.424 -0.0206  3.2091 -0.9493
13831TIP3   OH262983   4.266   1.014   5.454  0.2303  0.4047 -0.2490
13831TIP3    H162984   4.313   1.098   5.448  1.3644 -0.2221 -0.3785
13831TIP3    H262985   4.214   1.021   5.534  1.5307  0.6407  0.6054
13832TIP3   OH262986   5.467   0.467  12.772  0.5455  0.2133 -0.2273
13832TIP3    H162987   5.386   0.433  12.810 -0.0533  1.0910 -0.6900
13832TIP3    H262988   5.472   0.427  12.685  1.1241 -0.5956  0.1631
13833TIP3   OH262989   2.260   6.214   5.569 -0.3571 -0.6380 -0.7520
13833TIP3    H162990   2.223   6.231   5.483 -0.0693 -3.3069 -1.4737
13833TIP3    H262991   2.355   6.223   5.557 -0.3191 -0.9653 -0.7078
13834TIP3   OH262992   0.071   0.891  13.982  0.2343  0.0575  0.7820
13834TIP3    H162993   0.130   0.889  14.057  1.0756 -0.5527  0.1283
13834TIP3    H262994   0.111   0.952  13.921  0.8731 -1.2647 -0.1767
13835TIP3   OH262995   5.599   0.640   5.160  0.2798 -0.9320  0.0913
13835TIP3    H162996   5.525   0.579   5.161 -1.1613  0.7613  0.8640
13835TIP3    H262997   5.614   0.661   5.252  1.1856 -0.6016 -0.1230
13836TIP3   OH262998   6.616   0.806  15.661  0.5146 -0.6538  0.4799
13836TIP3    H162999   6.617   0.724  15.710 -0.4888 -0.5667  0.6577
13836TIP3    H263000   6.631   0.781  15.570  1.6557 -0.8852  0.7170
13837TIP3   OH263001   4.265   1.140   2.856 -0.3426  0.0885 -0.1053
13837TIP3    H163002   4.332   1.086   2.898  1.7451  1.6665 -1.2633
13837TIP3    H263003   4.244   1.207   2.921  2.7394  2.4088 -1.3132
13838TIP3   OH263004   2.839   6.163   1.669 -0.3945  0.2431  0.4006
13838TIP3    H163005   2.807   6.132   1.584 -3.1217 -2.0506  2.0715
13838TIP3    H263006   2.760   6.185   1.718  1.0706  1.2729  2.4477
13839TIP3   OH263007   6.781   4.761  16.230  0.4488 -0.2696  0.0666
13839TIP3    H163008   6.817   4.762  16.319 -0.3433 -0.1683  0.3906
13839TIP3    H263009   6.698   4.714  16.238  0.0169  0.3738 -0.4734
13840TIP3   OH263010   2.391   5.933   0.368 -0.5574 -0.1494 -0.5865
13840TIP3    H163011   2.370   5.921   0.460 -2.7650 -0.6579 -1.0944
13840TIP3    H263012   2.458   6.002   0.367 -0.4615 -0.1593  1.3605
13841TIP3   OH263013   2.370   5.297  14.944 -0.1387 -0.4018 -0.1125
13841TIP3    H163014   2.314   5.353  14.998  0.0546 -0.9205  0.6301
13841TIP3    H263015   2.459   5.327  14.963 -0.0540 -0.7599  0.0660
13842TIP3   OH263016   2.177   5.074   5.411 -0.1621  0.1485 -0.0997
13842TIP3    H163017   2.144   5.134   5.479 -2.1383 -0.9386 -0.0382
13842TIP3    H263018   2.106   5.011   5.398  1.1682 -1.1467 -1.4240
13843TIP3   OH263019   2.998   1.458  13.765 -0.2486 -0.2092  0.1811
13843TIP3    H163020   3.037   1.410  13.838  0.4920 -0.0919 -0.1292
13843TIP3    H263021   2.968   1.541  13.804 -1.1292 -0.7210  0.6243
13844TIP3   OH263022   5.985   3.485   5.814  0.2469  0.0992  0.8226
13844TIP3    H163023   5.908   3.451   5.768  0.5822  0.4277 -0.0031
13844TIP3    H263024   6.047   3.413   5.815  0.6511  0.4079 -0.2211
13845TIP3   OH263025   4.992   3.824  16.707  0.3464  0.3452 -0.0674
13845TIP3    H163026   4.928   3.832  16.778 -1.9268  1.8343 -2.0819
13845TIP3    H263027   4.992   3.731  16.685 -1.8915  0.4065 -0.5688
13846TIP3   OH263028   5.053   3.537   1.006  0.3333 -0.4611  0.0998
13846TIP3    H163029   5.141   3.499   1.000 -0.0356 -1.5198  1.1015
13846TIP3    H263030   5.068   3.627   1.035  1.1216 -0.3739 -0.5262
13847TIP3   OH263031   3.791   6.214   0.863 -0.6503  0.2551  0.2281
13847TIP3    H163032   3.722   6.173   0.810 -1.1435  0.1903  0.9033
13847TIP3    H263033   3.846   6.259   0.800 -0.1733 -1.3298 -0.5311
13848TIP3   OH263034   0.107   3.812  13.601 -0.8999  0.2476 -0.5482
13848TIP3    H163035   0.083   3.851  13.517  1.8092  0.7934 -1.1433
13848TIP3    H263036   0.202   3.801  13.597 -0.9548 -1.8797  1.5545
13849TIP3   OH263037   3.083   0.181  14.871  0.2293  0.4301  0.3096
13849TIP3    H163038   2.995   0.183  14.908  0.3658  0.6271  0.6243
13849TIP3    H263039   3.091   0.265  14.826 -0.3731 -0.2835 -1.2001
13850TIP3   OH263040   6.757   4.704  11.603 -0.6946  0.3142 -0.2741
13850TIP3    H163041   6.751   4.710  11.699  1.0106  2.1651 -0.2057
13850TIP3    H263042   6.687   4.761  11.571 -0.4879  0.6715 -0.0954
13851TIP3   OH263043   2.105   2.278   0.480 -0.0378 -0.2910 -0.5011
13851TIP3    H163044   2.094   2.323   0.564  2.8163 -1.1919  0.4515
13851TIP3    H263045   2.026   2.302   0.431 -1.4887  0.8617  2.1210
13852TIP3   OH263046   6.477   6.107  14.752  0.3064  0.3689  0.5225
13852TIP3    H163047   6.486   6.190  14.801  1.4791 -0.5149  1.9026
13852TIP3    H263048   6.428   6.050  14.811 -0.0188 -0.1005 -0.1971
13853TIP3   OH263049   4.587   1.493  14.512 -0.0285 -0.0220 -0.5516
13853TIP3    H163050   4.564   1.503  14.420  0.8581  0.7149 -0.7070
13853TIP3    H263051   4.547   1.568  14.555  0.0071 -0.0731 -0.4300
13854TIP3   OH263052   4.775   2.089   3.670 -0.5412  1.0624  0.4986
13854TIP3    H163053   4.695   2.078   3.618  0.0214  0.5010 -0.2625
13854TIP3    H263054   4.846   2.081   3.607  0.2766 -2.1075  1.6456
13855TIP3   OH263055   1.275   4.623  14.302  0.4630  0.3247  0.4070
13855TIP3    H163056   1.226   4.596  14.380  0.9421 -1.0898  0.2603
13855TIP3    H263057   1.303   4.540  14.262  3.2317  1.0331  0.6572
13856TIP3   OH263058   4.905   5.696   3.095 -0.3273  0.0093 -0.0214
13856TIP3    H163059   4.849   5.706   3.017  0.6938 -1.4824 -1.0097
13856TIP3    H263060   4.985   5.657   3.061  0.6642  0.5214  1.6263
13857TIP3   OH263061   1.219   2.616  15.170  0.0985 -0.3739 -0.1516
13857TIP3    H163062   1.142   2.662  15.204  0.8374 -0.3779  1.6212
13857TIP3    H263063   1.289   2.682  15.171  0.2596 -0.5004 -1.3023
13858TIP3   OH263064   4.793   4.236   4.219 -0.2291 -0.3513 -0.3102
13858TIP3    H163065   4.838   4.320   4.226 -1.1771  0.0281  3.0382
13858TIP3    H263066   4.726   4.250   4.152 -1.0473  1.9707  0.8951
13859TIP3   OH263067   5.476   6.292   4.532  0.4011 -0.1684 -0.5448
13859TIP3    H163068   5.391   6.317   4.495  0.2836 -0.2904 -0.3586
13859TIP3    H263069   5.535   6.292   4.457  0.5762  1.3946 -0.4364
13860TIP3   OH263070   6.255   3.212  11.505 -0.3074  0.0285 -0.5523
13860TIP3    H163071   6.328   3.149  11.505  0.3821  0.7920  0.8116
13860TIP3    H263072   6.268   3.262  11.424 -0.5729 -1.2067 -1.4015
13861TIP3   OH263073   3.040   3.135  13.756  0.0706 -0.0651  0.4235
13861TIP3    H163074   2.964   3.172  13.713  0.4990 -0.7855 -1.0130
13861TIP3    H263075   3.004   3.087  13.831 -0.8235  0.0842  0.1017
13862TIP3   OH263076   0.602   0.510  12.846 -0.2767 -0.4608  0.1475
13862TIP3    H163077   0.541   0.558  12.790  0.9417 -0.3209 -1.0999
13862TIP3    H263078   0.583   0.418  12.830 -0.6804 -0.4202  0.3721
13863TIP3   OH263079   4.256   6.000  11.296 -0.2399 -0.2448  0.2174
13863TIP3    H163080   4.258   5.908  11.323 -0.2037 -1.1338 -2.4987
13863TIP3    H263081   4.163   6.019  11.282 -0.1110 -0.4925 -1.0570
13864TIP3   OH263082   3.372   3.463   3.751 -0.5974  0.5034  0.4002
13864TIP3    H163083   3.429   3.402   3.704 -0.5472  0.9890 -0.1858
13864TIP3    H263084   3.283   3.438   3.725 -0.7607 -0.9639  2.1652
13865TIP3   OH263085   6.671   2.011   0.387  0.3785  0.2988 -0.3389
13865TIP3    H163086   6.626   1.980   0.465 -1.0705  4.4261  0.7497
13865TIP3    H263087   6.764   1.996   0.405 -0.0877 -1.0109  1.0751
13866TIP3   OH263088   5.562   5.103   4.231  0.2127  0.0795  0.1670
13866TIP3    H163089   5.536   5.131   4.144  0.4267  0.4796  0.2282
13866TIP3    H263090   5.603   5.018   4.217 -1.8250 -0.9611  0.1737
13867TIP3   OH263091   0.498   6.783  12.962 -0.0864 -0.4605 -0.4918
13867TIP3    H163092   0.591   6.801  12.980 -0.0336 -0.9788 -0.2195
13867TIP3    H263093   0.485   6.694  12.995 -0.7442 -0.2903 -0.2963
13868TIP3   OH263094   3.849   3.282  14.283  0.3395 -0.3704 -0.0582
13868TIP3    H163095   3.925   3.226  14.264 -0.0219 -1.0586  0.4863
13868TIP3    H263096   3.809   3.297  14.198  1.2114  0.1821 -0.3842
13869TIP3   OH263097   4.821   3.199   4.708  0.1564 -0.2783  0.2850
13869TIP3    H163098   4.843   3.108   4.728  1.3377  0.1004  0.8080
13869TIP3    H263099   4.729   3.207   4.733 -0.6433 -1.8778 -1.7706
13870TIP3   OH263100   6.359   3.771  11.235 -0.0741 -0.5191  0.0375
13870TIP3    H163101   6.305   3.821  11.174  0.9131  0.4342 -0.0868
13870TIP3    H263102   6.418   3.836  11.275  1.1485 -1.5428 -0.0145
13871TIP3   OH263103   1.297   4.114  13.411 -0.3037 -0.3018 -0.2245
13871TIP3    H163104   1.230   4.058  13.450 -1.0955  0.1460 -0.9109
13871TIP3    H263105   1.291   4.098  13.317  0.5258 -0.2165 -0.3036
13872TIP3   OH263106   2.503   6.195  17.178 -0.2079 -0.3425 -0.6621
13872TIP3    H163107   2.442   6.249  17.228 -0.7349 -0.1657 -1.4751
13872TIP3    H263108   2.575   6.178  17.238 -0.5975  0.2721 -0.0063
13873TIP3   OH263109   3.184   5.071  12.576  0.0836  0.4788  0.3772
13873TIP3    H163110   3.199   5.125  12.498  1.1142 -0.2186  0.0672
13873TIP3    H263111   3.138   5.128  12.637 -0.8061  1.0162 -0.7664
13874TIP3   OH263112   4.973   4.420  13.083 -0.2164 -0.1435  0.1361
13874TIP3    H163113   5.004   4.377  13.163  1.4675  1.2537  0.2937
13874TIP3    H263114   4.914   4.357  13.043  0.6511 -1.7898  1.3435
13875TIP3   OH263115   1.501   4.734   4.156  0.1241  0.3408  0.7432
13875TIP3    H163116   1.593   4.744   4.132  1.2807 -3.2581  3.0289
13875TIP3    H263117   1.496   4.766   4.246 -0.2432 -1.6438  1.4675
13876TIP3   OH263118   2.901   4.741  11.994  0.2675 -0.4111 -0.1612
13876TIP3    H163119   2.943   4.658  11.971  0.3902 -0.6797  0.9792
13876TIP3    H263120   2.904   4.743  12.089  0.4131  0.9884 -0.1837
13877TIP3   OH263121   2.272   4.966  14.237  0.8662 -0.0922  0.1263
13877TIP3    H163122   2.180   4.940  14.234  0.7836 -0.2214  2.4950
13877TIP3    H263123   2.273   5.049  14.283  1.8938  0.2351 -0.4478
13878TIP3   OH263124   2.789   0.724  16.502  0.4368  0.8190  0.4686
13878TIP3    H163125   2.755   0.740  16.414  0.0396  0.4775  0.5581
13878TIP3    H263126   2.837   0.641  16.494  0.9758  1.1278  0.4210
13879TIP3   OH263127   5.209   4.845  11.495 -0.4110 -0.0981  0.8068
13879TIP3    H163128   5.183   4.816  11.407 -0.3593 -0.6304  0.9641
13879TIP3    H263129   5.246   4.767  11.536  1.7940  0.6817  0.4669
13880TIP3   OH263130   3.455   4.303   2.683 -0.2372  0.1919  0.3796
13880TIP3    H163131   3.448   4.370   2.752 -2.3749 -0.6878  1.0978
13880TIP3    H263132   3.393   4.331   2.616  0.9024  0.3603 -0.6286
13881TIP3   OH263133   4.890   4.127  17.181  0.7087  0.6628  0.7724
13881TIP3    H163134   4.850   4.166  17.258 -2.1520 -1.0309  0.2849
13881TIP3    H263135   4.955   4.191  17.153 -0.2471  2.6799  2.8469
13882TIP3   OH263136   3.086   0.155  16.583 -0.3337  0.4496 -0.5067
13882TIP3    H163137   3.180   0.168  16.596 -0.2763  0.0550 -0.5376
13882TIP3    H263138   3.072   0.062  16.598 -0.8154  0.6098  0.0406
13883TIP3   OH263139   1.976   0.799   5.513 -0.0728  0.3631 -0.1520
13883TIP3    H163140   2.033   0.840   5.578 -0.0123 -1.6103  1.1242
13883TIP3    H263141   1.966   0.709   5.544 -2.1760  0.0777 -1.4975
13884TIP3   OH263142   2.462   1.589   3.656  0.0669  0.2315  0.0279
13884TIP3    H163143   2.481   1.683   3.662 -3.1380  1.0100  0.0130
13884TIP3    H263144   2.438   1.575   3.565 -0.2061 -0.4314  0.1940
13885TIP3   OH263145   0.542   6.351  13.696 -0.1122 -0.0596  0.0359
13885TIP3    H163146   0.615   6.322  13.642  0.1168  0.0407  0.2849
13885TIP3    H263147   0.574   6.432  13.737 -0.9709  0.9178 -1.1493
13886TIP3   OH263148   4.007   0.027  11.245 -0.7027  0.1390  0.4172
13886TIP3    H163149   4.090   0.075  11.258 -0.1617 -1.0724  1.6997
13886TIP3    H263150   3.941   0.096  11.238  0.3907  1.1342 -0.5215
13887TIP3   OH263151   3.071   1.007   1.453 -0.3098  0.3607 -0.1095
13887TIP3    H163152   3.003   0.940   1.459 -0.1084  0.1516 -0.1388
13887TIP3    H263153   3.118   0.986   1.373 -0.0517  0.3525  0.0440
13888TIP3   OH263154   4.794   1.685   2.769 -0.5668  0.1571  0.5531
13888TIP3    H163155   4.778   1.596   2.799  2.1943  0.4229  3.4109
13888TIP3    H263156   4.888   1.686   2.748 -0.9359  1.9407 -1.2646
13889TIP3   OH263157   0.916   5.699   2.024  0.1130  0.7567  0.0654
13889TIP3    H163158   0.917   5.768   2.091  0.7174 -0.5163  1.4269
13889TIP3    H263159   1.006   5.694   1.992  0.7344 -1.1072  1.8795
13890TIP3   OH263160   0.979   1.604  13.924 -0.3685  0.3623  0.4632
13890TIP3    H163161   0.994   1.678  13.982 -2.0040  0.7718  0.4240
13890TIP3    H263162   0.987   1.639  13.835 -1.3261  0.5534  0.4440
13891TIP3   OH263163   3.271   5.539   0.388  0.2583 -0.2984 -0.3935
13891TIP3    H163164   3.239   5.451   0.410  1.1967 -0.7707 -0.8309
13891TIP3    H263165   3.194   5.595   0.395 -0.0900 -0.9104  1.2217
13892TIP3   OH263166   2.049   1.566   4.410 -0.7280  0.4725  0.3128
13892TIP3    H163167   1.977   1.504   4.399 -0.2969 -0.0781  0.5273
13892TIP3    H263168   2.082   1.550   4.499 -0.4398  0.8197  0.2737
13893TIP3   OH263169   6.112   4.253   6.037 -0.3345  0.1565  0.0779
13893TIP3    H163170   6.156   4.300   6.108  0.8425 -0.3551 -0.2966
13893TIP3    H263171   6.121   4.160   6.061 -2.1671  0.0515  0.5372
13894TIP3   OH263172   2.135   0.880  15.259 -0.4671  0.1038 -0.0839
13894TIP3    H163173   2.114   0.971  15.236  0.3164  0.1694 -0.5793
13894TIP3    H263174   2.173   0.844  15.179  0.7490 -0.1756  0.5935
13895TIP3   OH263175   4.106   6.594   4.704 -0.6558 -0.0413  0.5705
13895TIP3    H163176   4.098   6.646   4.785  0.1750  0.0296  0.6222
13895TIP3    H263177   4.090   6.657   4.634 -4.1856 -0.6393  0.6585
13896TIP3   OH263178   5.592   6.413  14.474 -0.9148 -0.3638  0.4914
13896TIP3    H163179   5.509   6.405  14.428 -1.0859 -0.0031  0.7385
13896TIP3    H263180   5.654   6.443  14.408 -0.9312 -0.8279  0.2579
13897TIP3   OH263181   3.033   6.378   3.479 -0.0265  0.4518  0.0090
13897TIP3    H163182   3.039   6.293   3.436 -1.9886  0.0881  0.3591
13897TIP3    H263183   3.120   6.393   3.516 -0.0518 -2.1285  1.3025
13898TIP3   OH263184   4.779   1.865  15.670 -0.6242 -0.3395  0.1807
13898TIP3    H163185   4.872   1.881  15.655 -0.4996 -0.3149  0.9483
13898TIP3    H263186   4.776   1.780  15.714 -0.8755  0.2101  1.2371
13899TIP3   OH263187   3.745   6.176   4.838 -0.3027  0.2280  0.2604
13899TIP3    H163188   3.834   6.151   4.862 -0.6914 -1.4475  0.0412
13899TIP3    H263189   3.695   6.172   4.920 -0.0408  2.0240  0.5618
13900TIP3   OH263190   0.322   1.207  15.883  0.0141 -0.2097 -0.0784
13900TIP3    H163191   0.376   1.199  15.804 -0.1742 -0.0752 -0.2223
13900TIP3    H263192   0.350   1.290  15.921  1.1993 -0.9871  0.8309
13901TIP3   OH263193   5.308   6.093  14.159 -0.6684 -0.3141  0.0838
13901TIP3    H163194   5.356   6.145  14.095  0.6096 -2.5695 -0.9427
13901TIP3    H263195   5.239   6.050  14.108 -0.4741 -1.1184  0.4791
13902TIP3   OH263196   6.391   0.776  11.874  0.1906  0.0564 -0.5781
13902TIP3    H163197   6.476   0.804  11.840  1.0947 -0.4679  1.1657
13902TIP3    H263198   6.412   0.715  11.944 -1.5880  1.1695  1.0086
13903TIP3   OH263199   2.961   4.005  11.426  0.1639 -0.4253  0.2190
13903TIP3    H163200   2.964   4.072  11.494  1.1888  1.8849 -1.9139
13903TIP3    H263201   3.040   3.953  11.439  0.3273 -0.0315  0.8100
13904TIP3   OH263202   3.357   3.407  15.733  0.3671  0.3261  0.1501
13904TIP3    H163203   3.339   3.429  15.824 -3.0467  0.7412 -0.5215
13904TIP3    H263204   3.382   3.490  15.693 -0.0305  0.5262  0.3099
13905TIP3   OH263205   4.259   2.641   5.430  0.2887 -0.6791  0.5044
13905TIP3    H163206   4.174   2.606   5.458  1.3235 -2.5109  1.5497
13905TIP3    H263207   4.291   2.690   5.506  1.0900 -1.8092  0.9137
13906TIP3   OH263208   2.301   0.562  16.116 -0.3483 -0.3350  0.1803
13906TIP3    H163209   2.352   0.482  16.121  0.6166  0.2326 -0.2817
13906TIP3    H263210   2.237   0.555  16.187 -1.1804 -2.1121 -0.6852
13907TIP3   OH263211   5.284   4.147  17.031 -0.2194 -0.0484  0.0618
13907TIP3    H163212   5.293   4.141  16.936 -0.7663 -1.5632  0.0719
13907TIP3    H263213   5.371   4.124  17.064 -0.2683 -0.4275 -0.0670
13908TIP3   OH263214   5.518   3.391  13.915  0.5419  0.4333  0.0604
13908TIP3    H163215   5.479   3.341  13.843 -1.3828  0.2614  1.1678
13908TIP3    H263216   5.447   3.447  13.946  1.5017  0.9154  1.4604
13909TIP3   OH263217   4.648   3.070   5.726  0.9047  0.1055 -0.2092
13909TIP3    H163218   4.741   3.050   5.735  1.5467  3.0001  0.5707
13909TIP3    H263219   4.612   3.059   5.814  0.9608  0.9640 -0.0770
13910TIP3   OH263220   5.160   0.351  14.198  0.6130  0.1395  0.7192
13910TIP3    H163221   5.191   0.296  14.270 -1.0921  0.3554  1.6464
13910TIP3    H263222   5.081   0.308  14.167  0.7100  0.6659 -0.3049
13911TIP3   OH263223   2.448   1.334  12.672 -0.2638 -0.3952 -0.1480
13911TIP3    H163224   2.465   1.428  12.673  2.4381 -0.7954  1.8737
13911TIP3    H263225   2.521   1.297  12.622 -1.6755 -1.4422 -1.5599
13912TIP3   OH263226   2.952   2.763  15.329 -0.3866  0.1262 -0.2279
13912TIP3    H163227   3.037   2.722  15.347 -1.5408 -2.9343 -1.1610
13912TIP3    H263228   2.952   2.778  15.234 -0.8478  0.2421 -0.2115
13913TIP3   OH263229   6.811   0.015  10.409  0.0269 -0.2418  0.0255
13913TIP3    H163230   6.777   0.104  10.415 -0.4146 -0.2133 -2.0426
13913TIP3    H263231   6.903   0.022  10.434  0.6522  1.3158 -2.4117
13914TIP3   OH263232   3.324   1.800   5.238  0.2626  0.3657 -0.5727
13914TIP3    H163233   3.260   1.871   5.249  2.4616  2.5896 -1.2927
13914TIP3    H263234   3.364   1.790   5.324  1.6129  1.7575 -0.9972
13915TIP3   OH263235   1.557   3.591   2.696 -0.1660  0.5909 -0.1669
13915TIP3    H163236   1.644   3.615   2.729  0.3762 -0.1446 -1.0022
13915TIP3    H263237   1.574   3.518   2.636 -1.4318  0.0371  0.1127
13916TIP3   OH263238   0.159   4.706  11.104  0.1083 -0.4217 -0.0960
13916TIP3    H163239   0.214   4.765  11.051  1.1438 -0.6666  0.6687
13916TIP3    H263240   0.168   4.740  11.193 -1.3525 -0.2173 -0.0052
13917TIP3   OH263241   3.001   2.485   2.675 -0.0757  0.0852 -0.0553
13917TIP3    H163242   3.013   2.524   2.589  1.8986 -0.1769  0.0531
13917TIP3    H263243   2.943   2.545   2.721 -1.1025  0.2704 -1.5118
13918TIP3   OH263244   1.159   6.207   1.977 -0.2800  0.7817  0.5133
13918TIP3    H163245   1.130   6.297   1.992 -1.0914  0.3810  1.4752
13918TIP3    H263246   1.195   6.179   2.061  1.9839  0.8946 -0.3414
13919TIP3   OH263247   5.130   0.940  13.979 -0.1884  0.0815  0.5922
13919TIP3    H163248   5.209   0.930  13.927 -0.2079 -0.9090  0.7470
13919TIP3    H263249   5.143   1.023  14.027  0.0582  0.7194 -0.5512
13920TIP3   OH263250   0.515   0.402  11.996 -0.2131 -0.3676 -0.1848
13920TIP3    H163251   0.535   0.368  11.909 -1.3043 -1.4264 -0.0465
13920TIP3    H263252   0.598   0.438  12.028  0.6328 -1.5969 -0.9296
13921TIP3   OH263253   3.581   5.332   2.438 -0.8439  0.5471 -0.3756
13921TIP3    H163254   3.496   5.366   2.467 -0.9426  0.9985 -1.1547
13921TIP3    H263255   3.616   5.402   2.383 -0.3994 -0.0356 -0.8311
13922TIP3   OH263256   0.521   5.136   6.576  0.6312 -0.5787  0.6102
13922TIP3    H163257   0.601   5.089   6.601 -0.4210 -2.5137  0.5855
13922TIP3    H263258   0.457   5.066   6.561 -1.0477  0.9126  0.5700
13923TIP3   OH263259   4.847   1.282   5.165  0.4122  0.3615  0.7471
13923TIP3    H163260   4.933   1.240   5.167  0.6396  0.4582 -2.1789
13923TIP3    H263261   4.837   1.321   5.252  3.2371  0.2182  1.2428
13924TIP3   OH263262   4.176   2.847  15.100  0.2280  0.0314  0.0051
13924TIP3    H163263   4.114   2.913  15.071  0.5941  0.3904  0.0300
13924TIP3    H263264   4.192   2.792  15.023 -1.2825 -1.0072  0.3873
13925TIP3   OH263265   2.558   4.731  12.087  0.3378  0.5486  0.1075
13925TIP3    H163266   2.586   4.741  11.996  0.5432  0.1112  0.1189
13925TIP3    H263267   2.525   4.817  12.112  0.7367  0.7980 -0.2272
13926TIP3   OH263268   6.235   4.804   1.628  0.5457  0.4280  0.3099
13926TIP3    H163269   6.174   4.770   1.693 -0.0778  1.0776  0.0717
13926TIP3    H263270   6.187   4.874   1.584  2.0353  2.1567  1.2916
13927TIP3   OH263271   0.485   3.033   1.155  0.1697  0.0094  0.5635
13927TIP3    H163272   0.413   3.053   1.094 -0.2519  0.7102  1.2740
13927TIP3    H263273   0.564   3.039   1.101 -0.2706 -0.4750 -0.1646
13928TIP3   OH263274   1.098   4.000   0.575 -0.1355  0.0149  0.0005
13928TIP3    H163275   1.189   4.017   0.598 -0.2548  0.5086  0.1305
13928TIP3    H263276   1.055   3.982   0.658  0.1070 -1.5497 -0.1976
13929TIP3   OH263277   6.231   5.366   6.099 -0.1079 -0.6782  0.0855
13929TIP3    H163278   6.135   5.365   6.094 -0.1183 -1.9769  0.3072
13929TIP3    H263279   6.251   5.358   6.192  0.2455  3.2544  0.5196
13930TIP3   OH263280   4.768   1.602  16.956 -0.0861 -0.2604 -0.2768
13930TIP3    H163281   4.757   1.532  17.020  0.5162  0.2985  0.4488
13930TIP3    H263282   4.860   1.597  16.929 -0.0140  0.3133 -0.1475
13931TIP3   OH263283   4.536   1.531  16.818  0.8019  0.1816  0.8430
13931TIP3    H163284   4.625   1.545  16.849  0.6903  0.8074  0.9060
13931TIP3    H263285   4.488   1.500  16.894  0.4308  2.1087  1.4509
13932TIP3   OH263286   3.869   5.737   5.529 -0.1395 -0.4839  0.1402
13932TIP3    H163287   3.785   5.703   5.562  1.0806 -0.7626  3.3118
13932TIP3    H263288   3.874   5.706   5.439 -3.7391  0.1682 -0.4269
13933TIP3   OH263289   3.178   1.018   1.970 -0.2559 -0.0549  0.3828
13933TIP3    H163290   3.238   1.089   1.947  0.1036 -0.8312 -1.2788
13933TIP3    H263291   3.091   1.058   1.966 -0.5818 -0.4876 -5.3039
13934TIP3   OH263292   0.644   5.180   5.998 -0.3206 -0.1527 -0.3920
13934TIP3    H163293   0.552   5.185   6.024  0.0351 -0.1558  0.9332
13934TIP3    H263294   0.681   5.265   6.024 -0.0640  0.0618 -1.4244
13935TIP3   OH263295   1.023   0.489  11.101  0.3776 -0.0960  0.0039
13935TIP3    H163296   1.040   0.482  11.195  1.0783  2.0025  0.1014
13935TIP3    H263297   1.103   0.528  11.066 -0.3014  0.1851 -1.2837
13936TIP3   OH263298   5.494   2.078   5.223  0.4268  0.0457  0.6722
13936TIP3    H163299   5.499   1.986   5.197  0.7814  0.2609 -0.0763
13936TIP3    H263300   5.530   2.081   5.311 -1.5911 -0.8529  1.5888
13937TIP3   OH263301   2.529   5.550   3.607  0.0976 -0.2534  0.4292
13937TIP3    H163302   2.554   5.631   3.653 -0.7843  0.6754 -0.6445
13937TIP3    H263303   2.605   5.493   3.615  2.1077  1.9438 -1.6337
13938TIP3   OH263304   2.759   0.576  14.368  0.5319 -0.0824 -0.6779
13938TIP3    H163305   2.793   0.647  14.423 -2.9181  0.8742  0.4712
13938TIP3    H263306   2.766   0.610  14.279  0.1419  1.1835 -0.2463
13939TIP3   OH263307   2.825   0.720   2.081  0.6222 -0.1449 -0.3933
13939TIP3    H163308   2.746   0.745   2.129  0.1670 -0.5428 -0.9203
13939TIP3    H263309   2.847   0.633   2.115  1.9276  0.7041  1.0955
13940TIP3   OH263310   1.470   4.923  13.262  0.6377 -0.4404  0.9627
13940TIP3    H163311   1.384   4.953  13.233  0.1733  0.4459  3.1024
13940TIP3    H263312   1.516   5.003  13.288  2.0417 -0.9299  0.1181
13941TIP3   OH263313   3.145   3.640   3.120 -0.4104 -0.5690 -0.7819
13941TIP3    H163314   3.214   3.585   3.157 -0.6811  0.3240  1.2014
13941TIP3    H263315   3.132   3.606   3.031 -0.2386 -3.3863  0.1513
13942TIP3   OH263316   2.194   3.178  13.916 -0.0177  0.0285 -0.0108
13942TIP3    H163317   2.249   3.256  13.907 -1.0152  0.7026 -0.5744
13942TIP3    H263318   2.128   3.203  13.981 -0.0274 -0.5386  0.2008
13943TIP3   OH263319   5.330   3.182   2.884  0.4528  0.7768  0.2751
13943TIP3    H163320   5.259   3.202   2.945 -0.6433  1.1553 -1.0935
13943TIP3    H263321   5.293   3.117   2.824  1.4300  0.6142 -0.1733
13944TIP3   OH263322   3.029   4.763  12.565  0.0385  0.0832  0.0721
13944TIP3    H163323   2.950   4.740  12.614 -0.2339 -0.3554 -0.5570
13944TIP3    H263324   3.045   4.854  12.586 -2.4879  1.2062 -2.2167
13945TIP3   OH263325   0.817   5.927  13.234  0.1430 -0.6862 -0.0164
13945TIP3    H163326   0.781   5.838  13.229 -2.1937  0.1738  0.1479
13945TIP3    H263327   0.861   5.940  13.150  2.0447 -2.5385  0.5938
13946TIP3   OH263328   6.536   2.715  13.147  0.3442 -0.3674  0.0314
13946TIP3    H163329   6.524   2.695  13.054  0.1435  1.3448 -0.3354
13946TIP3    H263330   6.603   2.782  13.150  0.6821 -0.7212  1.1792
13947TIP3   OH263331   2.235   4.516  16.117 -0.2404 -0.2766  0.7833
13947TIP3    H163332   2.277   4.470  16.045 -2.5293 -0.7803 -0.3059
13947TIP3    H263333   2.298   4.583  16.143  0.8012 -0.3348 -1.4177
13948TIP3   OH263334   3.258   1.073   4.771  0.2167 -0.1372  0.0430
13948TIP3    H163335   3.246   1.009   4.701 -1.6346 -0.5160  0.6590
13948TIP3    H263336   3.352   1.073   4.788  0.5283 -1.0044 -1.5208
13949TIP3   OH263337   1.688   6.739   1.456 -0.4344 -0.2857 -0.1587
13949TIP3    H163338   1.645   6.678   1.516 -2.0754  1.0382  0.0845
13949TIP3    H263339   1.769   6.763   1.501 -0.9791 -0.3751  0.9091
13950TIP3   OH263340   3.051   3.475   6.483  0.4512  0.5126  0.3889
13950TIP3    H163341   2.988   3.413   6.520 -0.4278  0.8757 -0.4325
13950TIP3    H263342   3.111   3.421   6.432 -1.2318  0.3996 -1.6192
13951TIP3   OH263343   2.101   2.919  14.041  0.2903  0.2308  0.2011
13951TIP3    H163344   2.144   2.957  13.965  0.4177  0.7938  0.5504
13951TIP3    H263345   2.167   2.923  14.111  0.0230  0.1397  0.4615
13952TIP3   OH263346   1.775   0.680   0.105  0.0548  0.0195  0.4389
13952TIP3    H163347   1.843   0.735   0.144 -0.3728 -0.8283  2.5743
13952TIP3    H263348   1.819   0.597   0.086  0.0458  0.1132  0.0067
13953TIP3   OH263349   5.380   4.283  13.278  0.7782 -0.4882  0.4630
13953TIP3    H163350   5.370   4.239  13.194  0.0092  0.1610  0.2063
13953TIP3    H263351   5.469   4.262  13.306  1.7414  0.7894 -1.4075
13954TIP3   OH263352   2.414   0.333  16.152  0.0357 -0.2364 -0.4205
13954TIP3    H163353   2.478   0.262  16.158  0.0882 -0.1709 -0.2133
13954TIP3    H263354   2.335   0.297  16.193 -0.0264 -0.2781 -0.5759
13955TIP3   OH263355   5.395   4.744   1.761 -0.1864 -0.0650 -0.2836
13955TIP3    H163356   5.388   4.753   1.666  2.1246  1.6223 -0.3753
13955TIP3    H263357   5.335   4.810   1.796  0.5543  0.8220 -0.6415
13956TIP3   OH263358   1.979   4.208   1.659 -0.0263  0.6315 -0.1024
13956TIP3    H163359   2.048   4.228   1.594 -0.2099  0.8950 -0.2195
13956TIP3    H263360   1.959   4.116   1.645  0.2258  0.5823 -0.1459
13957TIP3   OH263361   0.122   3.061  12.628  0.4169  0.2304  0.5996
13957TIP3    H163362   0.183   3.110  12.574  1.0708  0.1508  1.2550
13957TIP3    H263363   0.040   3.110  12.622  0.8692  1.0196  0.6839
13958TIP3   OH263364   5.525   1.201  15.012  0.0402  0.0664 -0.1333
13958TIP3    H163365   5.613   1.215  15.047  0.2461 -0.4591 -0.4300
13958TIP3    H263366   5.537   1.196  14.917 -0.3876  0.5631 -0.2162
13959TIP3   OH263367   4.171   4.254  14.662  0.1952  0.0476  0.2609
13959TIP3    H163368   4.212   4.316  14.722 -0.0730  0.7845 -0.3134
13959TIP3    H263369   4.190   4.288  14.575 -2.2877  0.8771 -0.0328
13960TIP3   OH263370   3.823   0.526   1.215  0.5904 -0.0327 -0.2679
13960TIP3    H163371   3.746   0.499   1.265  0.0563  0.7418 -0.6363
13960TIP3    H263372   3.825   0.622   1.224  2.8034 -0.1695  1.5862
13961TIP3   OH263373   5.777   1.191   3.664 -0.6885  0.1311  0.2655
13961TIP3    H163374   5.779   1.124   3.733 -1.7055 -0.8211 -0.5876
13961TIP3    H263375   5.857   1.241   3.677 -0.0206 -1.0931  1.1061
13962TIP3   OH263376   1.630   6.451  17.077 -0.1008 -0.3693  0.6448
13962TIP3    H163377   1.598   6.525  17.128  0.3672  0.7726 -0.6741
13962TIP3    H263378   1.611   6.473  16.986 -0.7947 -2.3039  0.2627
13963TIP3   OH263379   4.636   2.665   4.210  0.6281 -0.6955 -0.0244
13963TIP3    H163380   4.548   2.695   4.187 -1.2502 -3.1660  2.9763
13963TIP3    H263381   4.692   2.741   4.199 -2.2888  1.5838 -0.1902
13964TIP3   OH263382   0.100   0.732   6.173  0.5395 -0.6092  0.0069
13964TIP3    H163383   0.011   0.703   6.193  1.1444 -1.2067  2.0558
13964TIP3    H263384   0.089   0.823   6.145 -0.7392 -0.7501 -0.0305
13965TIP3   OH263385   2.402   0.433   0.387 -0.4963  0.3501 -0.0673
13965TIP3    H163386   2.493   0.405   0.379 -0.0335  1.2710  1.4768
13965TIP3    H263387   2.362   0.408   0.304  1.0839 -0.3426 -0.6686
13966TIP3   OH263388   4.268   3.436   6.437  0.6739  0.5662 -0.0485
13966TIP3    H163389   4.241   3.504   6.499  0.3583  0.6190 -0.2386
13966TIP3    H263390   4.204   3.366   6.449  2.8482 -1.2028  2.5367
13967TIP3   OH263391   4.018   6.104  11.388  0.3253  0.3811 -0.3066
13967TIP3    H163392   4.065   6.071  11.464 -0.8286 -0.8264 -0.0851
13967TIP3    H263393   3.950   6.161  11.425  2.5433  3.5462 -0.6931
13968TIP3   OH263394   5.451   2.281  12.352  0.2614 -0.1595 -0.1711
13968TIP3    H163395   5.428   2.205  12.406 -1.0312 -0.0131 -0.4936
13968TIP3    H263396   5.504   2.335  12.410 -0.7982 -0.1824  0.8626
13969TIP3   OH263397   0.477   0.666  14.604  0.1645 -0.2030  0.5274
13969TIP3    H163398   0.472   0.691  14.696 -1.4053 -0.8145  0.6468
13969TIP3    H263399   0.477   0.750  14.557 -1.7308  0.1286  1.0245
13970TIP3   OH263400   6.518   0.140   4.601 -0.0834  0.1680  0.1448
13970TIP3    H163401   6.563   0.178   4.677 -0.8161  0.8873  0.2312
13970TIP3    H263402   6.482   0.215   4.554 -0.0059 -0.3040 -0.6843
13971TIP3   OH263403   3.085   3.589  16.696 -0.1868 -0.5413  0.7619
13971TIP3    H163404   3.146   3.609  16.768  0.6194  0.4423 -0.1597
13971TIP3    H263405   3.101   3.658  16.632 -2.3473 -0.2256  0.5065
13972TIP3   OH263406   1.736   2.168  11.940 -0.2946 -0.3522  0.4035
13972TIP3    H163407   1.653   2.128  11.912 -0.7100 -0.3676  1.5943
13972TIP3    H263408   1.713   2.218  12.018  0.6985  0.2106  0.3430
13973TIP3   OH263409   4.877   2.053  11.404 -0.0725  0.1879  0.8338
13973TIP3    H163410   4.927   2.121  11.359 -0.6586  0.1312  0.0936
13973TIP3    H263411   4.934   2.026  11.476  0.9449  0.1728  0.0491
13974TIP3   OH263412   5.691   2.346   5.065  0.1218  0.6803 -0.1217
13974TIP3    H163413   5.687   2.315   5.156  1.9525 -0.8141 -0.4904
13974TIP3    H263414   5.679   2.267   5.012  0.0829  1.3786 -1.1889
13975TIP3   OH263415   4.134   6.194  12.270  0.3814 -0.3430 -0.1426
13975TIP3    H163416   4.058   6.249  12.286 -0.9447 -2.4884  1.3370
13975TIP3    H263417   4.209   6.249  12.292 -0.8883  0.8534  1.3573
13976TIP3   OH263418   4.113   4.395  14.088 -0.6756  0.0199  0.3238
13976TIP3    H163419   4.204   4.376  14.111 -0.0545  0.4939 -1.6157
13976TIP3    H263420   4.114   4.485  14.056 -1.6118 -0.3680 -0.8433
13977TIP3   OH263421   1.699   5.878   5.322 -0.3990 -0.2636  0.4517
13977TIP3    H163422   1.682   5.877   5.228  2.4824 -3.1859 -0.2220
13977TIP3    H263423   1.647   5.805   5.357 -0.3348 -0.1269  0.8393
13978TIP3   OH263424   2.269   5.337   4.354  0.1290 -0.9309  0.6328
13978TIP3    H163425   2.214   5.271   4.397 -0.9600 -0.0362  0.6218
13978TIP3    H263426   2.261   5.317   4.261 -0.4218 -0.6087  0.6115
13979TIP3   OH263427   4.008   4.646   1.285  0.0980 -0.2244 -0.1356
13979TIP3    H163428   3.953   4.570   1.264  1.4394 -0.8647 -1.5321
13979TIP3    H263429   4.087   4.634   1.232  0.8700  1.5355  0.5348
13980TIP3   OH263430   1.514   6.160  12.513  0.0389  0.1647  0.5263
13980TIP3    H163431   1.428   6.198  12.495 -0.0079 -0.2569 -0.2003
13980TIP3    H263432   1.573   6.236  12.520 -0.4242  0.4626  1.2433
13981TIP3   OH263433   5.927   2.821  13.349  0.1698  0.0291  0.7507
13981TIP3    H163434   5.966   2.879  13.284  0.6273 -0.4411  0.5943
13981TIP3    H263435   5.835   2.814  13.324  0.3571 -0.2059  0.1157
13982TIP3   OH263436   1.321   5.678  17.122 -0.1694 -0.1766  0.2379
13982TIP3    H163437   1.250   5.620  17.152 -1.0401  1.4748  1.5663
13982TIP3    H263438   1.311   5.680  17.027 -1.4018 -0.6221  0.3335
13983TIP3   OH263439   1.366   6.808  12.560 -0.0967 -0.2789  0.1020
13983TIP3    H163440   1.424   6.753  12.613 -0.3337 -0.0148  0.6407
13983TIP3    H263441   1.381   6.897  12.591  0.4912  0.0100 -0.9622
13984TIP3   OH263442   4.446   3.345  14.283  0.0224 -0.4455 -0.1171
13984TIP3    H163443   4.492   3.306  14.357 -1.6099 -1.1437  0.5828
13984TIP3    H263444   4.408   3.271  14.236 -1.7121  0.1305  0.2711
13985TIP3   OH263445   0.278   2.207   5.305 -0.1637 -0.2307  0.3727
13985TIP3    H163446   0.211   2.266   5.339 -0.6871  0.4747 -1.7689
13985TIP3    H263447   0.236   2.122   5.302 -1.2398  0.3127 -1.5163
13986TIP3   OH263448   1.070   0.177  14.546 -0.2126  0.5427 -0.3380
13986TIP3    H163449   1.084   0.094  14.500  0.2031  0.4882 -0.1243
13986TIP3    H263450   1.076   0.155  14.639 -0.8405  0.6879 -0.2571
13987TIP3   OH263451   1.106   0.610  11.577  0.0641 -0.2810  0.7983
13987TIP3    H163452   1.149   0.671  11.518 -1.8293 -1.0872 -1.5767
13987TIP3    H263453   1.054   0.665  11.635  1.6738  0.5138  1.5416
13988TIP3   OH263454   2.036   6.247  17.060 -0.3993  0.3196  0.1074
13988TIP3    H163455   2.041   6.179  17.127 -0.5134 -0.7309 -0.9290
13988TIP3    H263456   2.124   6.249  17.022  0.2384  2.2157  1.4840
13989TIP3   OH263457   2.569   5.772  15.584  0.4612  0.1563  0.3931
13989TIP3    H163458   2.660   5.799  15.597  0.2978  1.0193 -0.1373
13989TIP3    H263459   2.539   5.744  15.670  0.6246  1.8218  1.0177
13990TIP3   OH263460   3.797   4.065   3.415 -0.1880  0.7835  0.4332
13990TIP3    H163461   3.874   4.008   3.421 -0.5656  0.3530  1.3557
13990TIP3    H263462   3.727   4.009   3.383 -0.1355  1.1766 -0.4047
13991TIP3   OH263463   2.315   6.743   4.321  0.2396 -0.1277 -0.3403
13991TIP3    H163464   2.373   6.693   4.265  0.4485  0.6442 -0.8250
13991TIP3    H263465   2.247   6.681   4.347  1.9785 -1.4513  1.3707
13992TIP3   OH263466   5.025   2.233   6.236  0.2332 -0.1712 -0.4999
13992TIP3    H163467   5.087   2.252   6.306 -0.4833 -1.0210  0.3983
13992TIP3    H263468   5.009   2.139   6.244 -1.3642  0.0815 -0.5379
13993TIP3   OH263469   0.375   5.164   2.066 -0.0691 -0.6787  0.9699
13993TIP3    H163470   0.431   5.240   2.046  0.8530 -1.6062 -0.1339
13993TIP3    H263471   0.316   5.195   2.135 -0.3524  1.3355 -0.0971
13994TIP3   OH263472   5.588   3.451   4.514  0.5607  0.1797  0.2680
13994TIP3    H163473   5.523   3.513   4.545 -1.3931 -2.1191  1.1097
13994TIP3    H263474   5.555   3.424   4.428  0.1249 -1.2630  0.8519
13995TIP3   OH263475   0.136   1.281  15.452  0.7666 -0.0768 -0.2431
13995TIP3    H163476   0.145   1.275  15.547 -0.7562 -0.6110 -0.1096
13995TIP3    H263477   0.226   1.291  15.420  1.1375  2.8169  1.3825
13996TIP3   OH263478   0.490   5.186  16.438  0.2883 -0.1870  0.4932
13996TIP3    H163479   0.409   5.212  16.394 -0.8807 -0.9623  2.0655
13996TIP3    H263480   0.493   5.240  16.516  2.3650  1.2297 -0.4854
13997TIP3   OH263481   1.566   3.815   3.787 -0.6053  0.4383 -0.0835
13997TIP3    H163482   1.473   3.828   3.804 -0.7043 -0.1994 -0.1348
13997TIP3    H263483   1.577   3.720   3.781  0.0749  0.5019  0.0658
13998TIP3   OH263484   5.844   3.895  12.189  0.0938 -0.6256 -0.1150
13998TIP3    H163485   5.874   3.975  12.146 -3.8965 -0.4123 -3.0131
13998TIP3    H263486   5.925   3.847  12.210  2.5118  2.7054 -1.0517
13999TIP3   OH263487   4.219   4.736   4.559  0.4604  0.5611  0.6250
13999TIP3    H163488   4.221   4.812   4.500 -0.4302  0.1254  0.0084
13999TIP3    H263489   4.310   4.711   4.570  0.9277  2.5914  1.9899
14000TIP3   OH263490   2.491   5.640  10.551 -0.3173  0.0334  0.0616
14000TIP3    H163491   2.504   5.585  10.474  0.8095  2.4611 -1.6435
14000TIP3    H263492   2.401   5.624  10.577  0.5776 -4.3829  1.3075
14001TIP3   OH263493   1.552   2.137  13.653  0.8388 -0.5908 -0.7510
14001TIP3    H163494   1.588   2.221  13.681 -0.1126 -0.1063 -0.9768
14001TIP3    H263495   1.466   2.157  13.617  1.5047 -1.3356 -2.9673
14002TIP3   OH263496   5.975   3.459  14.716  0.2882  0.2695 -0.0127
14002TIP3    H163497   6.048   3.426  14.664  1.0147 -0.3880  1.3684
14002TIP3    H263498   5.995   3.430  14.806 -1.3101  0.6953  0.5017
14003TIP3   OH263499   4.798   6.792   1.215  0.5593  0.2992 -0.0244
14003TIP3    H163500   4.891   6.797   1.241  0.5873  1.1424 -0.2535
14003TIP3    H263501   4.798   6.814   1.122  0.2180 -0.5878 -0.2450
14004TIP3   OH263502   2.389   0.179  14.935  0.3537  0.5806  0.3276
14004TIP3    H163503   2.441   0.182  14.854  2.2846 -1.3103  1.3889
14004TIP3    H263504   2.324   0.110  14.918  0.9500 -0.0285  0.4473
14005TIP3   OH263505   5.617   1.513  15.411 -0.2548  0.1990  0.2434
14005TIP3    H163506   5.678   1.554  15.472 -0.9979  1.8312 -0.0579
14005TIP3    H263507   5.657   1.429  15.390  2.4178  1.5912 -0.7228
14006TIP3   OH263508   3.287   4.868   6.537  0.2780  0.5115  0.1353
14006TIP3    H163509   3.318   4.958   6.543  0.2661  0.6428 -1.4805
14006TIP3    H263510   3.193   4.875   6.519 -0.1826  0.1336  2.1589
14007TIP3   OH263511   5.644   0.024   5.234 -0.3292  0.0471  0.3151
14007TIP3    H163512   5.692   0.098   5.197 -0.6799  0.0205 -0.2030
14007TIP3    H263513   5.605   0.060   5.314  2.2273 -0.4851  1.9220
14008TIP3   OH263514   1.721   3.119   1.650  0.3010  0.2791 -0.8787
14008TIP3    H163515   1.755   3.159   1.730  1.3438 -0.4166 -0.9584
14008TIP3    H263516   1.798   3.111   1.593  0.7218 -4.0226  0.0126
14009TIP3   OH263517   4.504   6.428   1.303  0.2161 -0.5320 -0.0629
14009TIP3    H163518   4.591   6.466   1.291  0.1937 -0.6380 -0.6001
14009TIP3    H263519   4.500   6.405   1.396  0.3015  0.5951  0.2277
14010TIP3   OH263520   1.773   2.571  14.223 -0.0859  0.0900 -0.3587
14010TIP3    H163521   1.705   2.549  14.287 -0.2594  1.0895 -0.1767
14010TIP3    H263522   1.776   2.496  14.164 -0.3608 -0.5759  0.4563
14011TIP3   OH263523   5.813   0.019   4.382 -0.0968  0.4706  0.1093
14011TIP3    H163524   5.845   0.050   4.297  1.6934 -0.7787  0.2934
14011TIP3    H263525   5.787  -0.072   4.366  0.8563  0.0212  1.0339
14012TIP3   OH263526   5.952   2.251   6.413  0.2746 -0.3460  0.0919
14012TIP3    H163527   5.942   2.341   6.443 -1.0720 -0.2239 -0.6579
14012TIP3    H263528   5.900   2.199   6.474 -0.6642 -0.3497 -0.6842
14013TIP3   OH263529   4.346   1.686  12.489 -0.1762 -0.0635  0.2008
14013TIP3    H163530   4.345   1.707  12.395 -0.7031  1.1340  0.4566
14013TIP3    H263531   4.282   1.746  12.528  0.7249  0.1245  1.4652
14014TIP3   OH263532   3.976   0.368   5.400  0.1641  0.2168 -0.3479
14014TIP3    H163533   3.894   0.378   5.352  1.3539 -0.0759 -2.6103
14014TIP3    H263534   4.038   0.424   5.353  0.9887  1.5883  2.1670
14015TIP3   OH263535   3.379   0.995  15.392 -0.2115  0.3525 -0.3898
14015TIP3    H163536   3.330   0.940  15.454  0.8182  1.0602  1.1165
14015TIP3    H263537   3.362   0.956  15.307 -2.6824  0.0434  0.1623
14016TIP3   OH263538   0.158   3.841   0.734 -0.1205 -0.1679 -0.1341
14016TIP3    H163539   0.069   3.805   0.732 -1.1546  2.2432 -0.8992
14016TIP3    H263540   0.150   3.922   0.784  1.6267  0.2010 -0.3804
14017TIP3   OH263541   2.096   4.391   3.233 -0.4146 -0.2478 -0.1806
14017TIP3    H163542   2.089   4.441   3.152 -1.0651  0.1391  0.1005
14017TIP3    H263543   2.127   4.455   3.297  0.1520 -0.5646 -0.1307
14018TIP3   OH263544   5.918   0.355  11.657 -0.4468 -0.3496 -0.4584
14018TIP3    H163545   5.833   0.343  11.698 -1.1257  0.3602 -1.5941
14018TIP3    H263546   5.899   0.351  11.563  0.3998  1.9882 -0.7929
14019TIP3   OH263547   1.577   0.435  10.893 -0.5695 -0.2878 -0.2735
14019TIP3    H163548   1.569   0.531  10.895  1.1355 -0.1088  0.5996
14019TIP3    H263549   1.563   0.412  10.802 -1.8367  0.6884 -0.3638
14020TIP3   OH263550   2.553   1.829  11.879  0.5864 -0.1173 -0.5092
14020TIP3    H163551   2.594   1.748  11.909 -0.0506 -0.4195 -0.4492
14020TIP3    H263552   2.555   1.887  11.955 -0.5344 -0.6921 -0.0155
14021TIP3   OH263553   3.884   1.630  16.395 -0.5172  0.6293  0.2730
14021TIP3    H163554   3.908   1.612  16.486  0.4404 -0.4778 -0.1627
14021TIP3    H263555   3.903   1.723  16.383 -2.7491  1.3562  1.7861
14022TIP3   OH263556   1.785   0.632  11.567  0.2344  0.4474 -0.0222
14022TIP3    H163557   1.832   0.658  11.646 -1.2479  0.9970  0.7239
14022TIP3    H263558   1.772   0.538  11.576  2.8390 -0.1071 -1.1947
14023TIP3   OH263559   3.174   5.186  16.642  0.5869 -0.3056  0.0270
14023TIP3    H163560   3.104   5.174  16.706 -0.2403 -2.3926 -1.1200
14023TIP3    H263561   3.246   5.131  16.673  0.1995 -1.2904 -0.7413
14024TIP3   OH263562   6.458   1.336  10.445 -0.4170  0.2542 -0.0020
14024TIP3    H163563   6.535   1.392  10.452  0.0462  0.0994 -2.7932
14024TIP3    H263564   6.471   1.286  10.365 -1.7783 -2.4313  1.3336
14025TIP3   OH263565   4.048   2.036  12.168 -0.1775 -0.2939  0.0689
14025TIP3    H163566   4.046   2.103  12.100 -4.4516 -1.5510 -1.3626
14025TIP3    H263567   4.042   2.086  12.250  1.1601  1.1156 -0.6374
14026TIP3   OH263568   0.633   0.050   2.058  0.4782 -0.0878 -1.1118
14026TIP3    H163569   0.648   0.144   2.053  1.8101 -0.2275 -0.3486
14026TIP3    H263570   0.581   0.029   1.980 -0.1084  1.3087 -1.1236
14027TIP3   OH263571   1.096   3.289   4.824  0.0017  0.0131 -0.9190
14027TIP3    H163572   1.146   3.310   4.745 -0.8189  0.8258 -1.2424
14027TIP3    H263573   1.142   3.215   4.863  0.9437  0.1871 -1.6715
14028TIP3   OH263574   1.039   3.673  13.747  0.3539 -0.6605  0.1426
14028TIP3    H163575   1.100   3.600  13.753  1.8459  0.5506  0.1749
14028TIP3    H263576   1.008   3.686  13.837 -0.6669 -1.8427 -0.0187
14029TIP3   OH263577   6.552   2.040   0.649  0.5493  0.2287  0.3226
14029TIP3    H163578   6.505   2.117   0.618  0.4069 -0.3460 -0.9402
14029TIP3    H263579   6.605   2.072   0.722  2.0379  1.9584 -1.4211
14030TIP3   OH263580   1.367   0.795   5.623 -0.0222  0.0504 -0.4470
14030TIP3    H163581   1.342   0.887   5.611 -0.4196  0.0272  0.1324
14030TIP3    H263582   1.376   0.785   5.717  0.7983 -0.3155 -0.5598
14031TIP3   OH263583   0.718   5.419  11.399  0.3957  0.0154 -0.0269
14031TIP3    H163584   0.689   5.332  11.371  0.2036 -0.3418  1.2400
14031TIP3    H263585   0.813   5.415  11.391  0.2886  0.3463 -1.7898
14032TIP3   OH263586   4.864   3.233  11.667  0.3050  0.3073 -0.2570
14032TIP3    H163587   4.919   3.215  11.743 -0.5211  0.0521  0.2988
14032TIP3    H263588   4.790   3.283  11.703 -1.2741 -1.7639 -0.4415
14033TIP3   OH263589   3.963   2.427   0.487  0.1964  0.4625 -0.2909
14033TIP3    H163590   3.876   2.440   0.526  0.5094  1.8012  0.0064
14033TIP3    H263591   4.012   2.504   0.512  0.7821  0.8328 -2.3729
14034TIP3   OH263592   2.314   0.571  11.645 -0.4823 -0.2040  0.1843
14034TIP3    H163593   2.275   0.612  11.568  1.0179  0.7524 -0.1122
14034TIP3    H263594   2.389   0.522  11.610 -1.6196 -2.4346  0.6577
14035TIP3   OH263595   3.648   4.411   0.292 -0.7604 -0.2495 -0.2284
14035TIP3    H163596   3.557   4.420   0.263 -0.5887 -0.9277 -1.0126
14035TIP3    H263597   3.684   4.500   0.286 -0.2530 -0.5413 -3.8411
14036TIP3   OH263598   5.526   3.211   1.112 -0.4425  0.3690  1.2143
14036TIP3    H163599   5.591   3.281   1.105 -0.9734  0.9360  1.8953
14036TIP3    H263600   5.451   3.252   1.154 -1.7340  0.0626 -0.6802
14037TIP3   OH263601   1.626   2.975   3.313  0.3978  0.0542 -0.4741
14037TIP3    H163602   1.668   2.918   3.378 -0.1934  0.5924  0.4066
14037TIP3    H263603   1.661   3.062   3.332 -0.4896  0.3727 -0.2522
14038TIP3   OH263604   2.829   5.522  12.525  0.1040  0.2019  0.1724
14038TIP3    H163605   2.914   5.515  12.568  1.2553  2.0706 -1.5682
14038TIP3    H263606   2.841   5.594  12.462 -2.8981  0.8104  0.1608
14039TIP3   OH263607   1.921   3.383   2.122 -0.5449  0.5402 -0.1900
14039TIP3    H163608   1.888   3.472   2.108  1.8395  1.4282 -0.7258
14039TIP3    H263609   1.908   3.367   2.216  1.1580  2.5035  0.4742
14040TIP3   OH263610   3.548   1.750  12.453 -0.4405  0.5436  0.2275
14040TIP3    H163611   3.624   1.709  12.495 -0.0855  0.5021 -0.4385
14040TIP3    H263612   3.569   1.749  12.359  0.3416  3.7491  0.2548
14041TIP3   OH263613   0.682   4.353  13.303  0.2790 -0.1982  0.4247
14041TIP3    H163614   0.591   4.379  13.292 -0.1691 -2.4291 -2.2316
14041TIP3    H263615   0.731   4.414  13.248  0.0082 -0.7873 -0.4925
14042TIP3   OH263616   4.167   2.172  15.769 -0.1742 -0.2481  0.1270
14042TIP3    H163617   4.251   2.212  15.745 -0.7109  0.8618  0.0456
14042TIP3    H263618   4.103   2.242  15.760 -1.2944 -1.3474 -0.8093
14043TIP3   OH263619   4.728   1.461   2.939  0.2767  0.8023 -0.4054
14043TIP3    H163620   4.672   1.389   2.969  2.0826 -0.9151 -0.9517
14043TIP3    H263621   4.680   1.540   2.963 -1.6678 -0.5617  0.4692
14044TIP3   OH263622   1.846   3.453   1.538  0.4825  0.0722  0.3568
14044TIP3    H163623   1.767   3.455   1.592 -0.9467 -0.2306 -1.6099
14044TIP3    H263624   1.907   3.398   1.587 -0.9907 -0.7715  1.3222
14045TIP3   OH263625   5.763   5.734   1.059  0.0543 -0.1596  0.2392
14045TIP3    H163626   5.698   5.767   0.997 -1.5090  0.6729  2.1777
14045TIP3    H263627   5.755   5.639   1.055 -1.5301 -0.0764  0.6009
14046TIP3   OH263628   3.555   3.506  12.256  0.7372  0.1107 -0.2388
14046TIP3    H163629   3.596   3.431  12.300  1.4195  1.6256  1.9154
14046TIP3    H263630   3.584   3.500  12.165  0.8778 -2.1322 -0.0941
14047TIP3   OH263631   1.493   5.975  10.644  0.3720 -0.1185  0.4088
14047TIP3    H163632   1.423   5.932  10.594  0.8955  0.5871 -0.9845
14047TIP3    H263633   1.562   5.990  10.580  0.9084  1.2051  1.2635
14048TIP3   OH263634   3.123   6.496   5.953 -0.7878 -0.1488 -0.6773
14048TIP3    H163635   3.142   6.585   5.983 -0.9193 -0.8174  1.5836
14048TIP3    H263636   3.029   6.497   5.933 -0.9150  0.0991 -0.1001
14049TIP3   OH263637   4.837   3.817  13.110 -0.4531 -0.1446 -0.3500
14049TIP3    H163638   4.863   3.818  13.018 -0.7807  0.6666 -0.4376
14049TIP3    H263639   4.915   3.787  13.157 -0.1062 -0.0067 -0.8321
14050TIP3   OH263640   1.214   6.251  13.814 -0.3980 -0.4915  0.5725
14050TIP3    H163641   1.164   6.295  13.746  0.5865  0.1142  0.2191
14050TIP3    H263642   1.226   6.162  13.782  1.0624  0.0959 -0.6395
14051TIP3   OH263643   2.676   2.472   2.733  0.0878 -0.6874 -0.1967
14051TIP3    H163644   2.703   2.451   2.822  0.4789 -0.2300 -0.2027
14051TIP3    H263645   2.585   2.501   2.741  0.5322  0.6283  0.2412
14052TIP3   OH263646   0.367   1.204   1.469 -0.2062  0.5762 -0.1949
14052TIP3    H163647   0.273   1.185   1.478  0.0059  0.0059  1.1336
14052TIP3    H263648   0.384   1.272   1.534  0.4890 -0.0847  0.3325
14053TIP3   OH263649   4.837   5.844   4.385  0.1839  0.1921  0.2760
14053TIP3    H163650   4.837   5.918   4.325  2.1826  1.6469  1.9043
14053TIP3    H263651   4.762   5.860   4.443 -1.8906 -1.3402 -1.8156
14054TIP3   OH263652   6.778   2.514  14.855  0.1354 -0.2784 -0.3692
14054TIP3    H163653   6.706   2.539  14.913 -0.7390 -2.4699 -0.4425
14054TIP3    H263654   6.848   2.486  14.914  1.3056  2.4673 -0.2654
14055TIP3   OH263655   6.822   0.367  13.667  0.1901 -0.4541  0.1711
14055TIP3    H163656   6.749   0.309  13.689  0.3381 -0.4671  0.6466
14055TIP3    H263657   6.786   0.455  13.676 -0.8729 -0.3793 -3.2827
14056TIP3   OH263658   1.574   4.293   3.059 -0.4644  0.2550  0.1577
14056TIP3    H163659   1.631   4.265   2.987  1.1279 -0.6975  1.6928
14056TIP3    H263660   1.540   4.378   3.032  2.1160  1.1159 -0.6407
14057TIP3   OH263661   3.128   4.924  14.849 -0.1246  0.2714 -0.2297
14057TIP3    H163662   3.053   4.974  14.881  0.0321  0.7750 -0.6418
14057TIP3    H263663   3.196   4.938  14.915 -0.1968  0.3134 -0.1647
14058TIP3   OH263664   2.644   1.214  14.232 -0.0624  0.5225 -0.1126
14058TIP3    H163665   2.668   1.122  14.216 -1.9521  0.0720 -0.5783
14058TIP3    H263666   2.705   1.264  14.179 -0.7892 -0.6169 -2.1457
14059TIP3   OH263667   0.037   4.634   4.319  0.4361 -0.0883  0.3528
14059TIP3    H163668   0.071   4.546   4.332  1.3860  0.3296  0.8100
14059TIP3    H263669   0.063   4.682   4.398  0.0249  0.6249  0.0679
14060TIP3   OH263670   5.108   4.819  12.587 -0.0810 -0.0709 -0.5273
14060TIP3    H163671   5.118   4.724  12.576 -2.6690 -0.4605 -0.1064
14060TIP3    H263672   5.130   4.835  12.679  0.1546 -0.2921 -0.5439
14061TIP3   OH263673   2.386   0.108  15.957  0.1307 -0.0631 -0.2332
14061TIP3    H163674   2.373   0.201  15.975 -1.3553 -0.0205 -1.3301
14061TIP3    H263675   2.480   0.099  15.941  0.0326  1.6634 -2.1948
14062TIP3   OH263676   5.032   5.180  16.674 -0.1639  0.0190 -0.1716
14062TIP3    H163677   5.065   5.268  16.695  1.5568 -0.3879 -1.0163
14062TIP3    H263678   4.940   5.182  16.702 -0.5774  2.5283 -1.4147
14063TIP3   OH263679   2.472   3.434   3.325 -0.4875 -0.3977  0.4582
14063TIP3    H163680   2.425   3.462   3.404  1.0435 -0.8782  1.5987
14063TIP3    H263681   2.484   3.514   3.274 -1.3727 -0.0486  0.7863
14064TIP3   OH263682   5.675   2.470   6.326 -0.0518  0.0336  0.7351
14064TIP3    H163683   5.716   2.390   6.359  0.7878 -0.1586 -0.7089
14064TIP3    H263684   5.586   2.468   6.363  0.8626 -0.0575  3.1023
14065TIP3   OH263685   5.112   4.272  12.160 -0.4132  0.3688  0.1627
14065TIP3    H163686   5.122   4.357  12.119  0.6242 -1.1356 -2.9759
14065TIP3    H263687   5.185   4.266  12.222  0.4321  1.1814 -0.7215
14066TIP3   OH263688   6.406   5.879   2.300  0.5147  0.4031  0.2890
14066TIP3    H163689   6.493   5.917   2.292  0.1552  1.2765  0.3683
14066TIP3    H263690   6.361   5.936   2.363  0.1598 -0.5420  0.9237
14067TIP3   OH263691   4.279   6.044  13.427  0.4962  0.6187 -0.0191
14067TIP3    H163692   4.271   6.127  13.474 -0.8374  1.4207 -1.5537
14067TIP3    H263693   4.374   6.028  13.423  0.7111  1.2593  1.5998
14068TIP3   OH263694   3.487   6.286   0.219  0.3876  0.1487 -0.2986
14068TIP3    H163695   3.422   6.290   0.150  1.5023 -1.5311 -1.5229
14068TIP3    H263696   3.502   6.377   0.243 -1.1687  0.6627 -1.1575
14069TIP3   OH263697   1.987   3.616  15.727 -0.4464  0.1994  0.3442
14069TIP3    H163698   2.027   3.687  15.777 -2.5442  0.1986  2.2229
14069TIP3    H263699   1.930   3.659  15.665 -1.6821  0.2304  1.4516
14070TIP3   OH263700   4.167   5.101  16.159 -0.2968  0.2919 -0.6154
14070TIP3    H163701   4.076   5.070  16.159  0.1679 -1.1883 -1.3751
14070TIP3    H263702   4.192   5.103  16.251 -0.4954 -1.2580 -0.5009
14071TIP3   OH263703   1.225   4.068   0.848 -0.8419  0.3534  0.2053
14071TIP3    H163704   1.176   4.134   0.896 -0.5039 -0.7089  2.0973
14071TIP3    H263705   1.314   4.104   0.842 -0.6250  0.0485  1.3500
14072TIP3   OH263706   4.742   2.386   5.585 -0.2805 -0.5532 -0.4032
14072TIP3    H163707   4.779   2.305   5.551  1.1177 -0.8615  1.6173
14072TIP3    H263708   4.795   2.456   5.546 -0.5042 -0.7073 -0.9828
14073TIP3   OH263709   4.775   1.219  14.696  0.6851  0.1339  0.3623
14073TIP3    H163710   4.679   1.225  14.695  0.6824  0.4734  1.5337
14073TIP3    H263711   4.797   1.172  14.616 -0.5174 -0.7782  0.5448
14074TIP3   OH263712   0.171   3.485   3.995 -0.2853 -0.0625 -0.4888
14074TIP3    H163713   0.205   3.565   4.034 -0.6032 -0.7015  1.1983
14074TIP3    H263714   0.247   3.427   3.988  0.0941  0.5990 -2.4037
14075TIP3   OH263715   0.432   2.493   4.181  0.1304 -0.6428 -0.1755
14075TIP3    H163716   0.426   2.580   4.140 -0.6207 -1.3053 -1.5570
14075TIP3    H263717   0.475   2.509   4.265  0.3258  1.0128 -0.5488
14076TIP3   OH263718   3.615   2.804   6.549 -0.0937 -0.5628  0.0058
14076TIP3    H163719   3.670   2.728   6.530  1.6296  0.4977  0.5135
14076TIP3    H263720   3.677   2.873   6.572 -1.6564  0.7388  0.4871
14077TIP3   OH263721   0.394   6.141  17.006 -0.0514  0.2235 -0.1703
14077TIP3    H163722   0.355   6.220  16.968  0.3853  1.5993  2.0856
14077TIP3    H263723   0.329   6.110  17.069  0.9660  0.4616  1.0214
14078TIP3   OH263724   0.311   0.295  10.993  0.3199 -0.1398 -0.2071
14078TIP3    H163725   0.355   0.377  11.015 -1.6168  1.4290 -1.7212
14078TIP3    H263726   0.350   0.268  10.911 -0.4220  0.4152 -0.7578
14079TIP3   OH263727   5.314   2.932   3.822  0.4414 -0.3307  0.3632
14079TIP3    H163728   5.346   2.863   3.880 -2.8380 -0.7545  1.9007
14079TIP3    H263729   5.252   2.981   3.876 -1.0650  0.7102 -2.1587
14080TIP3   OH263730   5.074   2.209  13.051  0.0137 -0.0678  0.6011
14080TIP3    H163731   5.033   2.132  13.091 -1.0051  0.7224  1.1209
14080TIP3    H263732   5.011   2.239  12.986 -0.1734  1.0733  1.2930
14081TIP3   OH263733   1.964   5.156  15.205  0.2150 -0.8965 -0.6480
14081TIP3    H163734   2.026   5.087  15.184 -0.6283 -2.1674  0.8411
14081TIP3    H263735   2.016   5.224  15.246  0.8763 -1.1895 -0.9851
14082TIP3   OH263736   6.141   3.913  11.911 -0.0045  0.0909 -0.2879
14082TIP3    H163737   6.165   3.997  11.950  0.3711 -0.1114 -0.0756
14082TIP3    H263738   6.068   3.933  11.852  0.9364  0.8069 -1.2552
14083TIP3   OH263739   4.603   3.559   4.155 -0.7003  0.5220  0.3678
14083TIP3    H163740   4.508   3.571   4.147 -0.7584  0.2704  0.6849
14083TIP3    H263741   4.617   3.538   4.247 -0.4631 -0.6438  0.0782
14084TIP3   OH263742   5.864   6.678   0.170 -0.3619 -0.3595  0.4473
14084TIP3    H163743   5.956   6.690   0.196  0.3709  0.4076 -2.2144
14084TIP3    H263744   5.820   6.758   0.197 -0.3664 -0.8418  1.9847
14085TIP3   OH263745   0.133   4.713  16.454 -0.3175  0.6435  0.1392
14085TIP3    H163746   0.144   4.623  16.483 -0.3923  0.0766 -1.4763
14085TIP3    H263747   0.218   4.737  16.418  0.0920  1.6936  1.7278
14086TIP3   OH263748   2.810   0.842  14.423 -0.2970 -0.3998  0.0225
14086TIP3    H163749   2.746   0.882  14.482 -0.8944 -1.9255  0.4596
14086TIP3    H263750   2.893   0.845  14.471 -0.2674  0.5265 -0.0681
14087TIP3   OH263751   1.546   1.153   3.939  0.5747 -0.5075  0.1487
14087TIP3    H163752   1.459   1.120   3.916  0.1278 -0.7738  2.0424
14087TIP3    H263753   1.592   1.160   3.856 -1.9675  1.8170 -1.2097
14088TIP3   OH263754   3.270   1.570  13.313 -0.1593 -0.3234  0.3467
14088TIP3    H163755   3.224   1.489  13.337  1.0544 -1.4115 -0.8248
14088TIP3    H263756   3.232   1.637  13.371 -0.8969 -1.7945  1.6559
14089TIP3   OH263757   2.851   0.094   2.765 -0.2479 -0.0270 -0.0410
14089TIP3    H163758   2.914   0.120   2.832 -2.2737  3.5647  0.7820
14089TIP3    H263759   2.877   0.143   2.687 -1.1713  0.4597 -0.0669
14090TIP3   OH263760   1.415   5.796   0.894 -0.1178  0.0675  0.2780
14090TIP3    H163761   1.405   5.761   0.806  0.8505 -0.2585  0.2779
14090TIP3    H263762   1.433   5.720   0.948  0.4230  0.3846  0.5578
14091TIP3   OH263763   2.125   5.469   2.095  0.4468  0.2264 -0.2187
14091TIP3    H163764   2.212   5.479   2.133  0.4244 -0.4124  0.0165
14091TIP3    H263765   2.142   5.453   2.002  0.6376 -0.8909 -0.0018
14092TIP3   OH263766   2.811   3.675  17.063 -0.3237  0.0762 -0.4580
14092TIP3    H163767   2.906   3.668  17.073 -0.1466  0.9963 -1.3151
14092TIP3    H263768   2.790   3.762  17.097 -0.8522 -0.0922 -0.3406
14093TIP3   OH263769   5.015   5.145  11.748 -0.1909 -0.3178  0.4814
14093TIP3    H163770   4.953   5.073  11.733 -1.1548  0.7731 -1.0554
14093TIP3    H263771   4.972   5.222  11.710  0.7371  1.1295  2.2055
14094TIP3   OH263772   4.291   5.268  11.087  0.3024  0.3947 -0.1107
14094TIP3    H163773   4.210   5.217  11.091  0.0526  0.8276  0.5883
14094TIP3    H263774   4.311   5.276  10.993 -0.8486  0.8709 -0.3301
14095TIP3   OH263775   0.913   1.698   4.846 -0.2001 -0.1540  0.2249
14095TIP3    H163776   0.985   1.758   4.829 -0.1151 -0.5499 -0.8709
14095TIP3    H263777   0.835   1.755   4.849  0.1877  0.3508  2.0065
14096TIP3   OH263778   4.636   1.622   5.874  0.6989 -0.2486 -0.2217
14096TIP3    H163779   4.690   1.636   5.952  2.4437  1.4520 -1.6717
14096TIP3    H263780   4.661   1.691   5.814 -1.9681 -0.3723 -1.6323
14097TIP3   OH263781   2.708   2.593  12.189 -0.0139 -0.8465  0.0862
14097TIP3    H163782   2.647   2.667  12.183  1.6042  0.4623 -1.7638
14097TIP3    H263783   2.748   2.602  12.275 -2.3464 -1.7471  1.3445
14098TIP3   OH263784   2.138   2.647   4.597 -0.6212  0.2122  0.0223
14098TIP3    H163785   2.113   2.556   4.613  0.8759 -0.3205 -0.5793
14098TIP3    H263786   2.233   2.646   4.596 -0.5854  1.7791 -0.1050
14099TIP3   OH263787   2.338   3.563  15.103 -0.1046 -0.0066 -0.4170
14099TIP3    H163788   2.343   3.626  15.031  3.9762  1.6819  1.0506
14099TIP3    H263789   2.418   3.512  15.097 -0.7297 -1.3880  1.6133
14100TIP3   OH263790   5.446   4.416  15.867 -0.4453 -0.5934 -0.0417
14100TIP3    H163791   5.416   4.414  15.776 -1.7293 -5.7414  0.1361
14100TIP3    H263792   5.369   4.445  15.916  0.0598  1.6042 -0.4541
14101TIP3   OH263793   3.488   0.753  13.551  0.8937  0.3123  0.1458
14101TIP3    H163794   3.525   0.687  13.492  1.2313 -0.0369  0.7424
14101TIP3    H263795   3.564   0.795  13.591  0.6724 -0.5052  1.4833
14102TIP3   OH263796   2.940   3.189   0.612  0.3594 -0.2340  0.5327
14102TIP3    H163797   2.947   3.179   0.517  0.5738  0.4244  0.4761
14102TIP3    H263798   2.853   3.155   0.634 -0.6422  1.7306 -0.2014
14103TIP3   OH263799   5.714   1.947  10.932  0.5333 -0.4942  0.2271
14103TIP3    H163800   5.801   1.988  10.922  0.2521  0.1246  0.2526
14103TIP3    H263801   5.689   1.924  10.843  0.8339 -0.9193  0.2468
14104TIP3   OH263802   2.960   4.616  13.513 -0.6023  0.2466 -0.0851
14104TIP3    H163803   2.897   4.625  13.442 -1.4124 -0.1300  0.5618
14104TIP3    H263804   2.906   4.606  13.591  0.2608 -0.5193  0.4317
14105TIP3   OH263805   2.832   2.642   6.218  0.1557 -0.1767  0.1445
14105TIP3    H163806   2.771   2.688   6.277 -0.0282 -0.2418  0.0053
14105TIP3    H263807   2.914   2.690   6.227 -0.1161  0.3738 -0.2256
14106TIP3   OH263808   1.092   2.906  14.007 -0.7549  0.5717 -0.0464
14106TIP3    H163809   1.098   2.961  13.929 -0.8059  1.2210  0.4075
14106TIP3    H263810   1.073   2.966  14.078  0.2631  0.1012  0.6370
14107TIP3   OH263811   6.615   5.341   2.817 -0.2727 -0.2217 -0.1054
14107TIP3    H163812   6.708   5.329   2.798 -0.2979 -0.5723 -0.0193
14107TIP3    H263813   6.571   5.283   2.755 -0.4013 -0.5630  0.2984
14108TIP3   OH263814   0.003   5.353  12.959 -0.3872 -0.6999  0.6040
14108TIP3    H163815  -0.021   5.339  12.867 -1.4379 -0.2596  0.8074
14108TIP3    H263816  -0.071   5.318  13.009 -0.1445 -0.2808  1.2694
14109TIP3   OH263817   4.348   5.401  14.635 -0.2790 -0.5345 -0.3317
14109TIP3    H163818   4.295   5.328  14.665  0.3438 -0.6980  0.4339
14109TIP3    H263819   4.285   5.471  14.615 -0.8130 -0.9252 -0.0334
14110TIP3   OH263820   4.701   2.827  11.930  0.2000  0.2230 -0.1584
14110TIP3    H163821   4.773   2.867  11.882  0.2097 -1.0625 -1.2631
14110TIP3    H263822   4.720   2.733  11.930 -1.4724 -0.1526 -0.4908
14111TIP3   OH263823   4.026   2.998  13.531 -0.1926  0.2646 -0.1137
14111TIP3    H163824   3.989   2.970  13.447 -0.9076  0.0281  0.2773
14111TIP3    H263825   3.964   2.968  13.597 -0.0893  1.2239  0.4502
14112TIP3   OH263826   6.281   4.736  17.085 -0.3927 -0.1832  0.0127
14112TIP3    H163827   6.213   4.708  17.024 -0.0479  1.9390 -1.4477
14112TIP3    H263828   6.362   4.701  17.048 -0.3578 -0.1677  0.0756
14113TIP3   OH263829   5.814   6.394   1.146 -0.6609 -0.0619  0.6196
14113TIP3    H163830   5.842   6.313   1.188 -1.8395 -0.1561  1.2613
14113TIP3    H263831   5.875   6.407   1.074 -0.6283 -1.6673  0.3399
14114TIP3   OH263832   4.505   0.015   5.601 -0.1486  0.3717 -0.5886
14114TIP3    H163833   4.430  -0.017   5.652 -0.0125 -0.6392 -0.9837
14114TIP3    H263834   4.554  -0.065   5.579 -0.0124  0.8072 -1.9779
14115TIP3   OH263835   5.838   1.653   4.405 -0.0922  0.3183  1.0307
14115TIP3    H163836   5.914   1.634   4.460 -0.0378 -1.0542  0.5216
14115TIP3    H263837   5.767   1.602   4.444 -0.5583  0.9284  1.0052
14116TIP3   OH263838   1.526   0.577   0.447  0.3572  0.3903 -0.0214
14116TIP3    H163839   1.462   0.536   0.506 -0.2104  0.5871 -0.4954
14116TIP3    H263840   1.598   0.603   0.505 -0.3084  0.8160  0.6384
14117TIP3   OH263841   6.204   0.302   5.678  0.2581  0.0884 -0.3194
14117TIP3    H163842   6.267   0.311   5.606 -0.5822  1.4453 -0.9281
14117TIP3    H263843   6.222   0.377   5.735 -1.3097  1.0048 -0.9505
14118TIP3   OH263844   4.396   1.756   1.291 -0.1519 -0.3657  1.0249
14118TIP3    H163845   4.345   1.710   1.358 -0.8426  0.3715  1.0121
14118TIP3    H263846   4.441   1.826   1.339  0.1115 -0.4274  0.8717
14119TIP3   OH263847   4.568   6.255   4.030 -0.1594  0.1601 -0.3187
14119TIP3    H163848   4.483   6.299   4.022 -0.7246 -0.8965 -0.3125
14119TIP3    H263849   4.627   6.323   4.062 -1.0463  0.8674 -0.1314
14120TIP3   OH263850   6.240   6.316   5.651 -0.2807  0.1958 -0.5043
14120TIP3    H163851   6.201   6.349   5.570 -0.7813 -0.3110 -0.4813
14120TIP3    H263852   6.236   6.390   5.711 -1.8094 -0.0188 -0.3055
14121TIP3   OH263853   2.313   4.197   3.201 -0.2925  0.3771 -0.1193
14121TIP3    H163854   2.304   4.105   3.226  2.2688  0.4314  1.3710
14121TIP3    H263855   2.226   4.235   3.214 -0.7976 -1.2735  1.7949
14122TIP3   OH263856   1.325   5.220   1.423 -0.3209 -0.0140  0.5368
14122TIP3    H163857   1.248   5.164   1.436  0.8928 -1.6550  0.9487
14122TIP3    H263858   1.350   5.249   1.510 -0.7378  0.9191  0.3576
14123TIP3   OH263859   1.814   4.781  12.481  0.0278  0.1656 -0.7137
14123TIP3    H163860   1.780   4.728  12.409  1.3585 -0.4838 -0.8774
14123TIP3    H263861   1.795   4.729  12.559 -1.0917  0.7065 -0.6060
14124TIP3   OH263862   2.347   1.218  16.832 -0.1053 -0.2052  0.4470
14124TIP3    H163863   2.311   1.306  16.818 -0.1491 -0.3191 -0.1818
14124TIP3    H263864   2.393   1.198  16.751  0.0392 -0.7006  0.6523
14125TIP3   OH263865   3.833   3.709   1.633 -0.2766  0.1799  0.2237
14125TIP3    H163866   3.739   3.709   1.618 -0.4320 -0.9627  1.0925
14125TIP3    H263867   3.843   3.728   1.726  0.3993  0.9854  0.0080
14126TIP3   OH263868   5.034   4.136  11.334 -0.4109 -0.0249 -0.0905
14126TIP3    H163869   5.070   4.212  11.380 -0.2843  0.4912 -1.0206
14126TIP3    H263870   5.088   4.062  11.364 -1.7034 -0.1038  2.2446
14127TIP3   OH263871   3.050   2.723   3.634  0.8704 -0.2982  0.1062
14127TIP3    H163872   3.085   2.659   3.572  0.5796  0.4321 -0.8364
14127TIP3    H263873   3.104   2.712   3.713  0.0496 -2.5201  0.4252
14128TIP3   OH263874   5.067   4.273   5.497 -0.9307  0.0469  0.3157
14128TIP3    H163875   4.981   4.287   5.537 -0.1466  0.1182  2.0508
14128TIP3    H263876   5.126   4.260   5.571  0.7480  1.0710 -0.7740
14129TIP3   OH263877   3.000   1.454   3.328  0.0236  0.0762  0.7827
14129TIP3    H163878   3.025   1.526   3.271 -0.9890  0.2489  0.5250
14129TIP3    H263879   2.914   1.480   3.362 -0.7243 -1.3577  0.0627
14130TIP3   OH263880   5.509   2.067   0.803 -0.1814  0.0564 -0.2027
14130TIP3    H163881   5.569   1.998   0.775  0.6116  1.0020 -0.8911
14130TIP3    H263882   5.522   2.073   0.898  0.8772  0.2853 -0.3511
14131TIP3   OH263883   6.254   2.887  12.197  0.1193 -0.5667 -0.1309
14131TIP3    H163884   6.315   2.939  12.146 -1.9144  1.3171 -0.7871
14131TIP3    H263885   6.255   2.926  12.284  0.5330 -1.1448  0.1312
14132TIP3   OH263886   2.029   0.951  12.758 -0.2146  0.7410 -0.1683
14132TIP3    H163887   2.048   0.928  12.667 -1.0881 -0.6891 -0.0259
14132TIP3    H263888   2.089   0.897  12.810 -1.1977 -0.0923  0.1379
14133TIP3   OH263889   4.856   2.609   1.845 -0.0689  0.1666  0.0395
14133TIP3    H163890   4.850   2.613   1.940 -0.7637  0.2951 -0.0108
14133TIP3    H263891   4.939   2.652   1.824 -0.6269  1.4974  0.4836
14134TIP3   OH263892   6.460   5.471   5.057 -0.1351 -0.0791  0.7142
14134TIP3    H163893   6.428   5.406   5.119  0.1183  0.2713  1.2265
14134TIP3    H263894   6.550   5.488   5.085  0.9373 -1.8513 -1.3633
14135TIP3   OH263895   4.298   2.439   3.661 -0.2290 -0.0668  0.2932
14135TIP3    H163896   4.226   2.394   3.616  1.3594 -1.7419 -0.6989
14135TIP3    H263897   4.349   2.480   3.591  1.4822 -1.5207  0.6003
14136TIP3   OH263898   2.647   0.190  16.156  0.1796  0.6543 -0.5197
14136TIP3    H163899   2.655   0.182  16.061  0.0285 -1.6918 -0.3737
14136TIP3    H263900   2.658   0.101  16.189  2.2050  1.6419  1.8316
14137TIP3   OH263901   2.252   0.627   1.921  0.2229  0.7084 -0.4300
14137TIP3    H163902   2.281   0.640   2.012 -0.6767 -0.5473  0.0594
14137TIP3    H263903   2.246   0.533   1.911 -1.3269  0.8619 -1.2557
14138TIP3   OH263904   5.774   3.551  10.457  0.4904 -0.3571 -0.3210
14138TIP3    H163905   5.726   3.561  10.375 -0.1939  0.5155  0.1606
14138TIP3    H263906   5.783   3.456  10.468  0.0531 -0.5004 -1.0961
14139TIP3   OH263907   3.896   5.963   1.320 -0.2129 -0.3846 -0.5009
14139TIP3    H163908   3.827   5.913   1.276 -0.8323  0.4460 -0.5047
14139TIP3    H263909   3.946   6.002   1.248 -1.1636  0.8902 -0.5152
14140TIP3   OH263910   0.406   3.849   1.171  0.1731 -0.0743  0.1913
14140TIP3    H163911   0.390   3.905   1.247 -1.2982  0.5505 -0.5253
14140TIP3    H263912   0.319   3.822   1.143  0.5624  0.7030 -1.9640
14141TIP3   OH263913   6.147   2.358   0.649  0.0152 -0.2779  0.2235
14141TIP3    H163914   6.108   2.339   0.564  0.4207  0.3665 -0.1128
14141TIP3    H263915   6.075   2.345   0.711 -0.5689  0.2865 -0.3230
14142TIP3   OH263916   6.123   1.144  10.788  0.6140 -0.1990 -0.4757
14142TIP3    H163917   6.033   1.112  10.792  0.4767  0.0812 -1.1417
14142TIP3    H263918   6.117   1.226  10.740  1.2192 -0.1554 -0.4854
14143TIP3   OH263919   3.566   5.994   6.051  0.3291 -0.0210 -0.2071
14143TIP3    H163920   3.607   6.071   6.013  1.3268  0.4121  1.6121
14143TIP3    H263921   3.634   5.957   6.108  0.5585 -3.2867 -2.2866
14144TIP3   OH263922   0.379   6.369  13.462  0.3636  0.5383  0.1735
14144TIP3    H163923   0.441   6.351  13.533 -0.0042 -1.5923  0.0108
14144TIP3    H263924   0.433   6.373  13.383  0.5927  1.3542  0.3682
14145TIP3   OH263925   1.973   1.272  14.544 -0.1580 -0.3908 -0.6196
14145TIP3    H163926   2.067   1.256  14.538 -0.5355 -2.2857 -2.8519
14145TIP3    H263927   1.958   1.349  14.489  0.0852 -0.1686 -0.3711
14146TIP3   OH263928   5.568   2.456  12.151  0.4691  0.0148  0.2116
14146TIP3    H163929   5.491   2.513  12.158 -0.5881 -1.2599 -0.7003
14146TIP3    H263930   5.554   2.388  12.217  0.9122 -0.1487  0.1440
14147TIP3   OH263931   3.193   2.791   6.835  0.0056  0.2173  0.0668
14147TIP3    H163932   3.216   2.794   6.742  0.9108  0.3833  0.2812
14147TIP3    H263933   3.133   2.864   6.848  0.5626  0.7387 -0.2230
14148TIP3   OH263934   6.075   2.880   4.980  0.1056  0.1179 -0.0523
14148TIP3    H163935   6.025   2.926   4.912  0.3678  1.5338  0.6783
14148TIP3    H263936   6.126   2.815   4.931 -1.0612 -0.1279 -1.0041
14149TIP3   OH263937   4.494   1.267   4.609 -0.5683  0.5973  0.2405
14149TIP3    H163938   4.572   1.322   4.612  1.7520 -2.4314  0.9279
14149TIP3    H263939   4.509   1.200   4.676 -3.5070 -0.5094 -0.0457
14150TIP3   OH263940   6.232   4.247  13.070  0.3642 -0.2455 -0.1560
14150TIP3    H163941   6.266   4.168  13.028 -1.6395 -1.0786 -0.3492
14150TIP3    H263942   6.162   4.215  13.127 -0.0809  1.3458  0.2335
14151TIP3   OH263943   2.083   4.816   2.665  0.1892 -0.7085  0.2332
14151TIP3    H163944   2.114   4.728   2.642  1.3552 -0.5283  0.9918
14151TIP3    H263945   2.104   4.825   2.759  0.0586  0.3553  0.1759
14152TIP3   OH263946   0.312   5.365  16.260 -0.7821 -0.2877  0.0555
14152TIP3    H163947   0.267   5.436  16.306 -1.8685 -1.6188  1.1569
14152TIP3    H263948   0.402   5.396  16.251 -1.2874  1.3348  0.2394
14153TIP3   OH263949   4.034   5.432   1.030 -0.3931  0.5750  0.3749
14153TIP3    H163950   4.003   5.478   0.952 -1.7688  0.6647  0.9443
14153TIP3    H263951   4.100   5.370   0.997 -1.4793  0.0819 -0.9700
14154TIP3   OH263952   6.055   2.777  16.052  0.2815  0.2885  0.2456
14154TIP3    H163953   6.114   2.740  16.117 -2.3361 -0.8132  2.1792
14154TIP3    H263954   6.031   2.702  15.997  1.6576  1.0062 -1.4149
14155TIP3   OH263955   1.782   2.184   2.958 -0.4375  0.6122 -0.0750
14155TIP3    H163956   1.767   2.271   2.923  0.5789 -0.0856 -2.4323
14155TIP3    H263957   1.758   2.125   2.887 -2.0191 -1.1365  1.7695
14156TIP3   OH263958   3.204   0.994  10.692 -0.1167  0.0401  0.1623
14156TIP3    H163959   3.116   0.999  10.729 -0.3048 -1.6917  0.0171
14156TIP3    H263960   3.195   0.940  10.614  0.7456  1.4941 -1.0078
14157TIP3   OH263961   6.784   5.460   0.419  0.0906 -0.4090  0.3111
14157TIP3    H163962   6.708   5.457   0.361 -0.0709 -0.5099  0.5226
14157TIP3    H263963   6.800   5.553   0.433  0.1571 -0.3849  0.0711
14158TIP3   OH263964   1.672   1.118   1.091 -0.7449 -0.0468  0.7778
14158TIP3    H163965   1.653   1.024   1.095 -0.9513 -0.1215 -1.0746
14158TIP3    H263966   1.752   1.124   1.038 -0.8845  0.8329  0.6488
14159TIP3   OH263967   0.665   1.288   0.588 -0.6517 -0.1685 -0.0083
14159TIP3    H163968   0.596   1.224   0.569 -0.1594 -0.9816  0.8655
14159TIP3    H263969   0.667   1.294   0.683  0.1701  0.2056 -0.0424
14160TIP3   OH263970   6.013   5.875  12.442 -0.1125 -0.0381  0.0554
14160TIP3    H163971   5.991   5.946  12.381  0.5485  1.7209  1.7819
14160TIP3    H263972   6.054   5.918  12.516  0.7727 -2.3084  0.9797
14161TIP3   OH263973   3.053   3.574   5.581 -0.5109 -0.2460 -0.5016
14161TIP3    H163974   3.021   3.485   5.600  1.1605 -0.7955 -0.0964
14161TIP3    H263975   3.034   3.623   5.661 -3.8829  0.5880 -1.6189
14162TIP3   OH263976   0.571   0.308   2.350  0.5305 -0.6074 -0.0948
14162TIP3    H163977   0.573   0.272   2.439 -0.2197 -2.8311 -0.9201
14162TIP3    H263978   0.664   0.314   2.326  0.7188 -0.7725  0.5483
14163TIP3   OH263979   1.421   1.913   0.089 -0.3349 -0.3916 -0.5268
14163TIP3    H163980   1.340   1.953   0.058 -0.5091 -0.4030 -0.0922
14163TIP3    H263981   1.404   1.819   0.085 -0.4506 -0.3853 -0.1416
14164TIP3   OH263982   0.368   3.992  14.831 -0.2993 -0.0621 -0.0064
14164TIP3    H163983   0.374   3.992  14.926  0.6765  1.1040 -0.0500
14164TIP3    H263984   0.412   3.911  14.804  0.4038  0.1612  0.4733
14165TIP3   OH263985   3.094   0.411   5.866  0.8766 -0.2065 -0.1341
14165TIP3    H163986   3.181   0.422   5.904  1.4671 -0.5154 -1.3388
14165TIP3    H263987   3.046   0.359   5.930  1.8042 -0.6313  0.2339
14166TIP3   OH263988   0.312   2.911   3.993  0.6113 -0.1208  0.4306
14166TIP3    H163989   0.348   2.858   3.922  0.9318  0.7711 -0.0918
14166TIP3    H263990   0.255   2.973   3.950  0.2938  0.0070  1.0277
14167TIP3   OH263991   1.767   3.988   0.488  0.4433  0.1671  0.1815
14167TIP3    H163992   1.793   4.056   0.426  0.3831 -0.1533 -0.1964
14167TIP3    H263993   1.849   3.951   0.519  0.4675 -1.0985 -1.2905
14168TIP3   OH263994   6.809   0.646  12.498  0.2932 -0.2958  0.2358
14168TIP3    H163995   6.818   0.711  12.568  0.1157 -2.3361  2.2850
14168TIP3    H263996   6.874   0.578  12.519  1.2361 -0.3451 -2.4252
14169TIP3   OH263997   5.096   5.466   4.921  0.3148 -0.1092 -0.4237
14169TIP3    H163998   5.079   5.407   4.994  2.4994  1.2703  1.3303
14169TIP3    H263999   5.016   5.518   4.913 -1.0279 -2.1555 -0.9679
14170TIP3   OH264000   0.348   2.773  14.624 -0.3440  0.5987 -0.4104
14170TIP3    H164001   0.358   2.866  14.603 -0.7011  0.8195  0.3672
14170TIP3    H264002   0.329   2.771  14.718  0.5739 -0.3184 -0.2141
14171TIP3   OH264003   4.421   4.084   5.934 -0.0072  0.1997 -0.3297
14171TIP3    H164004   4.418   4.108   6.026  0.4815  0.9487 -0.5098
14171TIP3    H264005   4.329   4.066   5.911  0.1195 -2.8025  1.0078
14172TIP3   OH264006   3.171   3.948  14.787  0.0032  0.1599  0.2280
14172TIP3    H164007   3.145   3.998  14.863 -1.0991 -0.6025  0.3709
14172TIP3    H264008   3.137   3.997  14.712  0.1247  0.3305  0.2838
14173TIP3   OH264009   6.516   2.529  12.088 -0.1845  0.0594  0.6337
14173TIP3    H164010   6.575   2.524  12.163 -0.6650 -1.3806  0.9456
14173TIP3    H264011   6.524   2.444  12.044 -1.7940 -0.0901  0.5399
14174TIP3   OH264012   4.905   1.374   4.917 -0.1166 -0.4905  0.1466
14174TIP3    H164013   4.884   1.341   5.005  0.9991 -1.5922  0.0384
14174TIP3    H264014   4.919   1.294   4.865  0.9028  0.1460 -0.5894
14175TIP3   OH264015   4.098   4.494   2.775 -0.0249 -0.4730  0.1793
14175TIP3    H164016   4.145   4.468   2.696 -0.5022  1.0350 -0.6284
14175TIP3    H264017   4.164   4.539   2.828  0.5858 -2.4187  1.2094
14176TIP3   OH264018   6.500   6.649   1.036 -0.0756  0.2874  0.8376
14176TIP3    H164019   6.502   6.744   1.021 -2.7951  0.5718  1.8513
14176TIP3    H264020   6.532   6.639   1.125 -1.0198  0.4078  1.1995
14177TIP3   OH264021   6.549   6.402  16.149  0.2079  0.1274  0.2082
14177TIP3    H164022   6.470   6.387  16.098  1.3700  1.0828 -2.0002
14177TIP3    H264023   6.524   6.467  16.214 -1.2443 -0.9093  0.7389
14178TIP3   OH264024   4.953   5.075  16.968  0.0614 -0.1006 -0.2043
14178TIP3    H164025   4.916   5.123  16.894 -2.7111 -2.0393 -0.2301
14178TIP3    H264026   4.929   4.984  16.951  0.4818 -0.7660  2.4239
14179TIP3   OH264027   3.696   6.596   4.463  0.7361  0.3841  0.9087
14179TIP3    H164028   3.717   6.687   4.484 -2.7609  1.8337 -0.9108
14179TIP3    H264029   3.601   6.592   4.467  0.4842 -2.1856 -2.5452
14180TIP3   OH264030   6.329   3.151   1.835  0.3642  0.0304 -0.2971
14180TIP3    H164031   6.414   3.171   1.874 -0.3118  1.8610  0.3614
14180TIP3    H264032   6.287   3.091   1.897  0.7130  0.0675 -0.0259
14181TIP3   OH264033   5.799   5.488   0.936  0.4255 -0.4030 -0.3298
14181TIP3    H164034   5.894   5.490   0.932  0.5948 -0.7472  2.1468
14181TIP3    H264035   5.771   5.525   0.852  2.7167  0.1243 -0.9335
14182TIP3   OH264036   4.293   3.654   3.558 -0.0056 -0.2823  0.0460
14182TIP3    H164037   4.248   3.727   3.516 -0.3352  0.1493  1.1071
14182TIP3    H264038   4.229   3.619   3.620  0.5755 -0.6844  0.4310
14183TIP3   OH264039   1.560   5.517  11.301  0.3178  0.2496  0.1159
14183TIP3    H164040   1.567   5.609  11.326 -0.3964  0.3155  0.0824
14183TIP3    H264041   1.617   5.508  11.224  0.2797  0.6878  0.0388
14184TIP3   OH264042   6.047   4.261   2.672 -0.2170 -0.4379 -0.5882
14184TIP3    H164043   6.031   4.294   2.760 -1.7933  0.2613 -1.1029
14184TIP3    H264044   6.079   4.337   2.623  1.3047 -0.9817 -0.4762
14185TIP3   OH264045   0.029   1.095  11.833  0.0573  0.0676 -1.0597
14185TIP3    H164046   0.091   1.022  11.823 -0.6304 -0.6108 -0.4539
14185TIP3    H264047   0.060   1.161  11.771  2.4889  0.5053  0.4619
14186TIP3   OH264048   1.609   1.566   1.342  0.3449  0.1769 -0.7915
14186TIP3    H164049   1.656   1.506   1.284  0.1388 -1.1224  0.3283
14186TIP3    H264050   1.541   1.511   1.383  0.1075  1.1918  0.2135
14187TIP3   OH264051   6.765   0.350  11.131 -0.0643  0.6216  0.8793
14187TIP3    H164052   6.797   0.394  11.052 -0.8929  0.3126  0.3626
14187TIP3    H264053   6.765   0.419  11.198  1.6735  0.6342  0.9195
14188TIP3   OH264054   0.040   6.716   2.178 -0.0296  0.0217 -0.2278
14188TIP3    H164055   0.044   6.811   2.186 -0.6741 -0.1023  2.4467
14188TIP3    H264056  -0.053   6.696   2.172  0.0727 -0.4792 -0.2121
14189TIP3   OH264057   5.917   6.493  16.590  0.0050  0.5716 -0.0196
14189TIP3    H164058   5.845   6.542  16.631 -0.1579 -0.3632  0.8506
14189TIP3    H264059   5.993   6.514  16.644  0.0835  0.4323 -0.0773
14190TIP3   OH264060   4.319   1.572  11.480 -0.4099  0.1151  0.2135
14190TIP3    H164061   4.312   1.559  11.386 -0.8103 -0.3056  0.3026
14190TIP3    H264062   4.411   1.595  11.494  0.0595 -1.4516 -0.0902
14191TIP3   OH264063   2.800   4.734  13.691 -0.3624 -0.3921 -0.1777
14191TIP3    H164064   2.849   4.803  13.736 -1.2477  0.0725  0.1012
14191TIP3    H264065   2.760   4.683  13.762  0.3365 -1.2465 -0.3755
14192TIP3   OH264066   0.809   4.574  16.350 -0.3506  0.0917  0.3112
14192TIP3    H164067   0.749   4.559  16.424 -0.8816  2.0417  0.3130
14192TIP3    H264068   0.752   4.594  16.276  0.2435 -0.2259 -0.2404
14193TIP3   OH264069   1.675   1.228   4.366  0.3827  0.1437 -0.3603
14193TIP3    H164070   1.627   1.277   4.433  0.8781  1.8342 -1.2002
14193TIP3    H264071   1.618   1.153   4.347 -0.5990  0.5831  0.6654
14194TIP3   OH264072   3.264   3.052   5.010 -0.4641 -0.3039  0.1390
14194TIP3    H164073   3.218   3.130   5.041  1.2571  0.6856  0.3307
14194TIP3    H264074   3.224   3.033   4.925 -1.9049 -0.1136  0.7470
14195TIP3   OH264075   3.266   1.755  13.533  0.1260  0.1893  0.5461
14195TIP3    H164076   3.342   1.790  13.580  0.1221 -0.3198  0.9422
14195TIP3    H264077   3.192   1.776  13.590 -0.0035  0.4616  0.2813
14196TIP3   OH264078   1.986   3.412   5.782  0.4443 -1.0293  0.3544
14196TIP3    H164079   2.012   3.336   5.730 -0.3611 -0.5798 -0.7462
14196TIP3    H264080   1.915   3.453   5.732  0.3281  0.0014  1.3118
14197TIP3   OH264081   0.657   5.727  15.533 -0.3326  0.6038  0.0126
14197TIP3    H164082   0.694   5.813  15.512  0.2427  0.4168  0.2662
14197TIP3    H264083   0.562   5.739  15.523 -0.1280  0.4884 -2.9768
14198TIP3   OH264084   1.962   2.489   3.121 -0.0257  0.0810  0.4837
14198TIP3    H164085   1.926   2.542   3.050  0.8787 -0.2340 -0.2348
14198TIP3    H264086   1.886   2.447   3.160 -0.8250  2.2351  1.3934
14199TIP3   OH264087   0.097   2.539   1.894 -0.4207 -0.5283 -0.4171
14199TIP3    H164088   0.054   2.458   1.866  0.3147 -0.3019 -2.3645
14199TIP3    H264089   0.026   2.592   1.929 -1.6621 -0.5334 -2.6750
14200TIP3   OH264090   0.592   5.223   4.501  0.1872 -0.7959  0.1488
14200TIP3    H164091   0.501   5.219   4.470  0.1075 -0.9793  0.4038
14200TIP3    H264092   0.587   5.272   4.583  0.4024 -0.2787 -0.1431
14201TIP3   OH264093   1.994   3.468   0.695  0.3131  0.0880  0.1821
14201TIP3    H164094   1.944   3.455   0.614  0.7389 -0.6766  0.0273
14201TIP3    H264095   2.084   3.480   0.665  0.2198  1.6357  0.4443
14202TIP3   OH264096   6.317   1.379  11.990 -0.3673 -0.0038  0.3435
14202TIP3    H164097   6.362   1.435  12.052 -1.1554  2.1028 -0.8958
14202TIP3    H264098   6.269   1.316  12.045  1.6962 -0.4875  1.7212
14203TIP3   OH264099   6.052   5.951  12.136  0.0782  0.8607 -0.2877
14203TIP3    H164100   5.974   5.974  12.187  0.0872 -0.1951  0.2225
14203TIP3    H264101   6.059   6.022  12.071 -1.3605  0.9411 -0.4046
14204TIP3   OH264102   0.905   3.826   0.154 -0.1159 -0.3580 -0.6832
14204TIP3    H164103   0.833   3.889   0.152 -1.0855 -1.3381  0.9476
14204TIP3    H264104   0.913   3.802   0.246  1.6632 -1.0222 -0.9794
14205TIP3   OH264105   6.386   6.247   2.202  0.1249 -0.5727 -0.4051
14205TIP3    H164106   6.308   6.210   2.244  1.5705 -1.6978  1.4430
14205TIP3    H264107   6.448   6.174   2.199  1.7654  0.7539 -0.0956
14206TIP3   OH264108   6.200   4.373   4.087  0.0805  0.6837  0.2513
14206TIP3    H164109   6.234   4.297   4.134 -0.2501  0.3007 -0.1189
14206TIP3    H264110   6.177   4.436   4.156 -0.1342  0.2413  0.5879
14207TIP3   OH264111   0.087   6.440   0.814  0.5583  0.3707 -0.4616
14207TIP3    H164112   0.049   6.453   0.728  0.4052  2.9915 -0.0896
14207TIP3    H264113   0.124   6.526   0.837  1.3059 -0.4635  1.7418
14208TIP3   OH264114   5.396   0.449  14.838 -0.2939 -0.3969 -0.0022
14208TIP3    H164115   5.385   0.511  14.765  0.0763  0.2314  0.4755
14208TIP3    H264116   5.476   0.476  14.881 -1.0374 -0.1244  1.2584
14209TIP3   OH264117   6.316   6.723   4.729  0.4512  0.4488 -0.1164
14209TIP3    H164118   6.301   6.630   4.716  0.4731  0.3545  0.5273
14209TIP3    H264119   6.405   6.738   4.696  0.4692  0.2320 -0.1666
14210TIP3   OH264120   0.247   4.352  14.047 -0.5726  0.1394 -0.4239
14210TIP3    H164121   0.280   4.327  14.133  0.7748  0.5369 -0.8070
14210TIP3    H264122   0.300   4.302  13.985  0.2979  1.8194 -1.1088
14211TIP3   OH264123   1.256   5.362   5.876  0.1106  0.4460 -0.1320
14211TIP3    H164124   1.212   5.436   5.834 -0.0650  0.6412  0.3849
14211TIP3    H264125   1.347   5.367   5.846 -0.0007  0.6166 -0.4388
14212TIP3   OH264126   3.290   2.155  15.084  0.2192 -0.3206 -0.3104
14212TIP3    H164127   3.380   2.157  15.116  0.0864 -0.8530  0.1183
14212TIP3    H264128   3.239   2.199  15.152  0.3181  1.1615 -1.1598
14213TIP3   OH264129   2.695   1.746  13.371  0.1257 -0.0881 -0.4248
14213TIP3    H164130   2.769   1.686  13.374 -0.5900 -0.9907  2.6633
14213TIP3    H264131   2.729   1.828  13.406  0.4759  0.6121 -2.3035
14214TIP3   OH264132   0.926   3.489   1.554 -0.1085  0.1566  0.5499
14214TIP3    H164133   0.856   3.536   1.598  0.7214  0.4594  1.5949
14214TIP3    H264134   0.972   3.443   1.624  0.2680 -0.6621 -0.2131
14215TIP3   OH264135   4.841   2.204   0.911 -0.3433 -0.5616  0.1705
14215TIP3    H164136   4.874   2.164   0.991 -0.8834 -0.8410  0.2584
14215TIP3    H264137   4.845   2.133   0.846 -1.8312 -0.9430  0.4646
14216TIP3   OH264138   1.400   5.464   2.943 -0.5378 -0.2256 -0.6461
14216TIP3    H164139   1.477   5.429   2.899 -0.3388 -0.5222 -0.0642
14216TIP3    H264140   1.346   5.499   2.872 -0.2243 -0.7034 -1.1247
14217TIP3   OH264141   4.548   3.994  12.236 -0.4993 -0.2912  0.3384
14217TIP3    H164142   4.525   4.022  12.148  2.1718 -0.3459 -0.4730
14217TIP3    H264143   4.499   4.051  12.294 -0.6285  1.2436 -1.2145
14218TIP3   OH264144   0.558   0.412  14.580  0.2904 -0.0818 -0.3874
14218TIP3    H164145   0.554   0.505  14.556 -1.8912 -0.3637 -1.3559
14218TIP3    H264146   0.467   0.382  14.578  0.8944 -2.1645  0.2774
14219TIP3   OH264147   0.971   5.575  13.053  0.1445  0.2815 -0.1406
14219TIP3    H164148   1.008   5.640  13.112  1.2734 -0.5917  0.1760
14219TIP3    H264149   0.926   5.513  13.110 -2.0078  1.3977 -0.5376
14220TIP3   OH264150   5.071   5.222  11.326 -0.4123  0.6724  0.0292
14220TIP3    H164151   5.134   5.197  11.393  2.2022 -1.9701 -3.0769
14220TIP3    H264152   5.003   5.156  11.331  1.5425 -1.6582 -1.9284
14221TIP3   OH264153   3.276   6.307   6.090 -0.0490 -0.3482  0.0461
14221TIP3    H164154   3.241   6.375   6.032  0.9307  0.9054  0.8616
14221TIP3    H264155   3.224   6.314   6.170 -0.7813 -1.4429 -0.3157
14222TIP3   OH264156   3.370   2.304  10.814  0.1996  0.0465 -0.2824
14222TIP3    H164157   3.375   2.268  10.902  0.4118  1.1458  0.1645
14222TIP3    H264158   3.367   2.227  10.757 -1.7515 -0.7128  0.7467
14223TIP3   OH264159   6.496   4.204  15.361 -0.3705 -0.4189 -0.2422
14223TIP3    H164160   6.499   4.291  15.322 -0.2527 -0.5229 -0.4619
14223TIP3    H264161   6.562   4.206  15.430  1.3632 -1.1122 -1.8195
14224TIP3   OH264162   4.046   0.961   3.853 -0.3879  0.0583  0.1298
14224TIP3    H164163   4.101   0.888   3.881  0.4188  0.3981 -0.5276
14224TIP3    H264164   4.062   1.029   3.918  0.3260  0.3094 -0.2904
14225TIP3   OH264165   5.911   5.803  15.368 -1.0598  0.2369 -0.4688
14225TIP3    H164166   5.840   5.745  15.396 -0.4454 -0.4695 -0.3217
14225TIP3    H264167   5.875   5.852  15.294 -1.9776  0.5230  0.1537
14226TIP3   OH264168   0.188   1.744   3.622  0.4018 -0.2046  0.7744
14226TIP3    H164169   0.262   1.685   3.607  2.0239  1.7237  0.7980
14226TIP3    H264170   0.225   1.817   3.672 -1.6339  0.5978  1.2107
14227TIP3   OH264171   2.136   3.649  11.839 -0.4626 -0.5803  0.2103
14227TIP3    H164172   2.103   3.674  11.752 -2.5401  1.4617  1.4410
14227TIP3    H264173   2.194   3.721  11.864 -0.1656 -0.9667  0.6394
14228TIP3   OH264174   2.211   6.282  10.922  0.2446  0.2592  0.1447
14228TIP3    H164175   2.161   6.262  10.843  0.1549  1.1544 -0.0283
14228TIP3    H264176   2.214   6.199  10.970 -0.0239 -0.1946 -0.6143
14229TIP3   OH264177   4.443   5.823  15.057  0.6165 -0.2276 -0.8066
14229TIP3    H164178   4.367   5.879  15.038  1.2560  0.3131 -1.8672
14229TIP3    H264179   4.439   5.809  15.151  0.3940  1.5671 -0.5102
14230TIP3   OH264180   0.314   5.234   2.926  0.0918 -0.2315  0.7213
14230TIP3    H164181   0.384   5.195   2.978 -1.1746 -1.5340  1.5592
14230TIP3    H264182   0.330   5.204   2.837  0.5111 -0.6526  0.9360
14231TIP3   OH264183   1.890   1.154  16.576 -0.2079 -0.1644 -0.5145
14231TIP3    H164184   1.957   1.217  16.602 -0.8524 -0.0542  0.9406
14231TIP3    H264185   1.819   1.207  16.541 -0.2077 -0.1706 -0.5242
14232TIP3   OH264186   5.283   6.139   5.138  0.2508 -0.1102  0.0510
14232TIP3    H164187   5.327   6.105   5.060  0.8428 -1.3264  0.8792
14232TIP3    H264188   5.348   6.196   5.179  0.5371 -0.7511  0.5007
14233TIP3   OH264189   1.592   5.771  14.512 -0.4878 -0.5514  0.0027
14233TIP3    H164190   1.592   5.704  14.580 -0.8837 -0.5324  0.0233
14233TIP3    H264191   1.665   5.747  14.455 -0.7342 -1.0982 -0.0887
14234TIP3   OH264192   2.297   5.644   0.537  1.0609 -0.6330  0.9707
14234TIP3    H164193   2.207   5.661   0.564  0.3269  0.0245 -1.5710
14234TIP3    H264194   2.350   5.703   0.590 -0.3214  1.0457  0.5709
14235TIP3   OH264195   0.779   4.698  13.352  0.5913  0.2545  0.4599
14235TIP3    H164196   0.821   4.784  13.355 -0.4233  0.8416 -1.1786
14235TIP3    H264197   0.851   4.637  13.339  1.3596  0.7984  1.9223
14236TIP3   OH264198   4.449   5.651  12.007  0.2908 -0.1000  0.4397
14236TIP3    H164199   4.455   5.562  11.972  3.1610 -0.0277  0.5203
14236TIP3    H264200   4.511   5.701  11.954 -1.4832  1.9721  0.1985
14237TIP3   OH264201   3.578   1.148  12.661  0.4379  0.4560  0.2693
14237TIP3    H164202   3.606   1.200  12.586 -0.2788  2.1874  1.1424
14237TIP3    H264203   3.501   1.195  12.695  0.8345 -0.1892  2.1639
14238TIP3   OH264204   4.640   2.273   4.720 -0.5217  0.4240  0.4412
14238TIP3    H164205   4.573   2.269   4.788 -1.0002  0.4226 -0.0318
14238TIP3    H264206   4.688   2.354   4.738 -1.7265  1.3166 -0.2262
14239TIP3   OH264207   5.269   6.752  11.087 -0.0370  0.3917  0.1346
14239TIP3    H164208   5.248   6.832  11.038 -0.1600  0.1800 -0.1586
14239TIP3    H264209   5.360   6.734  11.066 -0.2588 -0.0240 -0.4748
14240TIP3   OH264210   6.011   2.064  11.815  0.6890  0.1151  0.2731
14240TIP3    H164211   6.088   2.056  11.871  0.0026 -0.8622  1.0985
14240TIP3    H264212   5.944   2.010  11.857 -0.7743  1.7263  0.1255
14241TIP3   OH264213   2.023   4.845   5.547 -0.1434 -0.1102 -0.0018
14241TIP3    H164214   2.078   4.910   5.593 -0.5735 -0.5882  1.2304
14241TIP3    H264215   2.084   4.775   5.525 -0.0649 -0.2200  0.5326
14242TIP3   OH264216   3.345   2.896  15.404 -0.3114 -0.0368  0.2125
14242TIP3    H164217   3.258   2.919  15.439 -0.8378 -2.0865  0.4052
14242TIP3    H264218   3.404   2.961  15.443 -1.7804  1.7068 -0.2973
14243TIP3   OH264219   4.028   6.381   0.170  0.1174 -0.0658 -0.4348
14243TIP3    H164220   3.944   6.353   0.134 -0.1064 -0.3907  0.3227
14243TIP3    H264221   4.090   6.372   0.098 -0.1328 -1.5922 -0.4921
14244TIP3   OH264222   0.914   1.341   2.487  0.2405  0.9024  0.3329
14244TIP3    H164223   0.939   1.260   2.443 -0.6282  0.4924  0.5712
14244TIP3    H264224   0.996   1.373   2.525  0.1674 -1.3623  2.6775
14245TIP3   OH264225   3.714   2.670   5.723 -0.4452  0.0677 -0.1800
14245TIP3    H164226   3.787   2.708   5.674 -0.6483 -1.2244 -1.5735
14245TIP3    H264227   3.756   2.611   5.786 -0.1947  1.5220  1.0657
14246TIP3   OH264228   0.170   4.392  16.122 -0.2949  0.2721  0.3891
14246TIP3    H164229   0.195   4.482  16.143 -1.8855  0.7329  0.4864
14246TIP3    H264230   0.099   4.401  16.058  0.6042 -0.9765 -0.8374
14247TIP3   OH264231   2.451   2.685  16.414  0.2278  0.1179 -0.0917
14247TIP3    H164232   2.415   2.644  16.335  0.3760  1.7326 -1.0368
14247TIP3    H264233   2.377   2.691  16.474  0.0499 -0.8734 -0.1843
14248TIP3   OH264234   6.409   5.227   3.486 -0.3139  0.7535  0.8932
14248TIP3    H164235   6.395   5.315   3.521 -0.7799  0.4167  1.6023
14248TIP3    H264236   6.438   5.240   3.396 -0.9287  1.6202  0.8067
14249TIP3   OH264237   3.452   3.104  13.505 -0.2214 -0.1009  0.8010
14249TIP3    H164238   3.519   3.147  13.453  1.0288 -3.7695 -0.9522
14249TIP3    H264239   3.408   3.175  13.551  0.4031  3.1835 -3.1297
14250TIP3   OH264240   1.412   6.791  16.821 -0.1182  0.6784  0.0840
14250TIP3    H164241   1.366   6.713  16.852 -2.3161  0.7849 -2.5204
14250TIP3    H264242   1.352   6.863  16.840  0.8701  1.4435  0.3914
14251TIP3   OH264243   5.347   6.395  12.853 -0.9586  0.9993  1.1237
14251TIP3    H164244   5.324   6.383  12.945 -0.7342 -2.2929  0.8681
14251TIP3    H264245   5.269   6.368  12.805  0.1038 -0.8927  0.3631
14252TIP3   OH264246   5.802   2.039   3.855  0.2457 -0.2441  0.0723
14252TIP3    H164247   5.812   1.960   3.909 -0.5209 -0.1061  0.4361
14252TIP3    H264248   5.747   2.097   3.908 -2.5089 -1.0052 -1.7224
14253TIP3   OH264249   0.555   0.975  16.273  0.2454 -0.1650 -0.4457
14253TIP3    H164250   0.557   1.019  16.187 -1.4457  0.8359 -0.0212
14253TIP3    H264251   0.492   0.905  16.262 -1.6411  1.2995  0.5214
14254TIP3   OH264252   2.464   3.885   1.077 -0.0535  0.3299  0.3190
14254TIP3    H164253   2.467   3.853   0.987  0.5908 -1.1485  0.8428
14254TIP3    H264254   2.452   3.980   1.068  0.3601  0.2558 -1.3271
14255TIP3   OH264255   3.689   5.212   2.881  0.3500  0.3468 -0.5712
14255TIP3    H164256   3.772   5.165   2.872  1.2898  1.5298  1.3586
14255TIP3    H264257   3.700   5.290   2.827  1.2861  1.4357  1.1034
14256TIP3   OH264258   5.897   3.476   5.466 -0.0040  0.3481  0.3117
14256TIP3    H164259   5.805   3.476   5.491  0.1041 -0.1215  0.7269
14256TIP3    H264260   5.920   3.383   5.457  0.3258  0.4701 -0.1717
14257TIP3   OH264261   5.583   3.151   6.195  0.0994 -0.1971 -0.1476
14257TIP3    H164262   5.504   3.115   6.155 -1.1641  0.7798  1.3266
14257TIP3    H264263   5.579   3.123   6.286  0.1655  1.8481  0.5320
14258TIP3   OH264264   5.907   1.068  15.868  0.1587 -0.2481 -0.4027
14258TIP3    H164265   5.847   1.090  15.939  0.1714 -0.7851 -0.2194
14258TIP3    H264266   5.975   1.014  15.910  0.1137 -0.6520 -0.8419
14259TIP3   OH264267   1.594   1.516  16.929 -0.3801 -0.3821  0.3190
14259TIP3    H164268   1.603   1.460  17.006  2.6669  2.4407  2.2891
14259TIP3    H264269   1.530   1.582  16.954  0.3205  0.3138  0.3194
14260TIP3   OH264270   5.309   3.480  12.268  0.5621 -0.3734  0.2927
14260TIP3    H164271   5.283   3.564  12.306 -0.2971  0.4069 -1.8664
14260TIP3    H264272   5.385   3.453  12.320  0.6484  1.5587  1.2735
14261TIP3   OH264273   0.669   0.670  13.338  0.2017 -0.1629  0.6941
14261TIP3    H164274   0.622   0.640  13.260  1.2934  0.3030 -0.1853
14261TIP3    H264275   0.623   0.630  13.411 -0.2674 -1.4151 -0.2489
14262TIP3   OH264276   0.996   3.319   2.009 -0.5096 -0.3450 -0.5557
14262TIP3    H164277   1.044   3.382   2.063 -0.9495  0.1196 -0.6900
14262TIP3    H264278   0.939   3.273   2.071 -0.2747 -0.5271 -0.4745
14263TIP3   OH264279   6.220   4.136   0.363  0.1634  0.0359 -0.2058
14263TIP3    H164280   6.244   4.078   0.291  2.8606  0.9848 -0.1757
14263TIP3    H264281   6.174   4.209   0.321  0.8222  0.0929 -0.8442
14264TIP3   OH264282   0.762   6.116  13.792  0.0597 -0.0204  0.3894
14264TIP3    H164283   0.775   6.028  13.828 -1.1104  0.3713  1.8904
14264TIP3    H264284   0.765   6.173  13.869  0.4045  1.2127 -0.5182
14265TIP3   OH264285   6.552   1.751  16.160 -0.5395 -0.0741 -0.3498
14265TIP3    H164286   6.500   1.809  16.104 -1.1728  0.0690  0.3704
14265TIP3    H264287   6.496   1.733  16.235  0.8177  0.9629  0.9882
14266TIP3   OH264288   6.208   3.805   4.903 -0.0424  0.3103 -0.1387
14266TIP3    H164289   6.156   3.802   4.822 -0.6472  1.0884  0.2149
14266TIP3    H264290   6.281   3.863   4.882 -0.4477  0.8838  0.0041
14267TIP3   OH264291   6.044   1.907  14.321 -0.0165  0.3359  0.3638
14267TIP3    H164292   6.063   1.822  14.360 -0.9101 -0.4851 -0.9003
14267TIP3    H264293   5.978   1.946  14.379 -0.9533 -0.6419 -0.0137
14268TIP3   OH264294   0.587   0.249   4.937  0.2161 -0.3435  0.1124
14268TIP3    H164295   0.564   0.339   4.918 -0.7711 -0.2894  1.4747
14268TIP3    H264296   0.677   0.240   4.903 -0.1686  0.7076 -1.3004
14269TIP3   OH264297   4.555   1.514   1.282 -0.4264  0.2911  0.6522
14269TIP3    H164298   4.574   1.526   1.189 -3.9200 -0.1338 -0.2802
14269TIP3    H264299   4.480   1.572   1.298 -3.2097 -3.2455  1.7604
14270TIP3   OH264300   6.712   4.166  12.753  0.2146  0.7532 -0.3798
14270TIP3    H164301   6.768   4.195  12.825  1.5993  1.9017 -1.8474
14270TIP3    H264302   6.674   4.084  12.784  1.6994  0.6120  1.2159
14271TIP3   OH264303   6.625   2.428   3.240  0.1610 -0.6570 -0.2783
14271TIP3    H164304   6.575   2.411   3.320 -0.6678  0.7534 -0.4549
14271TIP3    H264305   6.715   2.404   3.262 -0.2293 -1.2602  0.7350
14272TIP3   OH264306   5.996   0.051   4.166 -0.3653  0.3115  0.3087
14272TIP3    H164307   6.019   0.135   4.206  3.9626 -0.0563 -0.8055
14272TIP3    H264308   6.041  -0.014   4.220  0.4474 -0.7527 -1.5512
14273TIP3   OH264309   3.143   0.794   0.550  0.6128  0.0592  0.2755
14273TIP3    H164310   3.234   0.806   0.526  0.1193 -0.8367 -2.3552
14273TIP3    H264311   3.112   0.881   0.573  1.8234  0.5702  0.0238
14274TIP3   OH264312   6.324   2.685  12.008  0.7897  0.0357  0.1450
14274TIP3    H164313   6.404   2.649  12.048 -0.0047 -0.4341  1.3685
14274TIP3    H264314   6.284   2.737  12.078 -0.3282 -0.3089 -0.2331
14275TIP3   OH264315   5.046   0.642   4.410 -0.5655 -0.6123 -0.2941
14275TIP3    H164316   5.083   0.569   4.361  1.5757  0.4352 -0.3643
14275TIP3    H264317   5.074   0.720   4.363 -1.0398  0.3208  0.9008
14276TIP3   OH264318   2.633   0.715   4.965 -0.8268 -0.0728 -0.8287
14276TIP3    H164319   2.655   0.655   4.894  0.0508 -0.1974 -0.4628
14276TIP3    H264320   2.715   0.726   5.014 -1.5936 -0.7081  0.6899
14277TIP3   OH264321   5.270   1.472   0.584  0.3311 -0.4489  0.3934
14277TIP3    H164322   5.298   1.558   0.615 -0.3673 -0.3598  0.7920
14277TIP3    H264323   5.342   1.443   0.528  0.6825  0.2886  0.4414
14278TIP3   OH264324   3.500   4.986   6.095  0.4417  0.5703 -0.1981
14278TIP3    H164325   3.572   5.036   6.132 -0.7104  0.9979  1.6159
14278TIP3    H264326   3.437   4.978   6.167  0.9988 -4.5368  0.0991
14279TIP3   OH264327   2.104   6.496  13.016  0.0022  0.2673 -0.0050
14279TIP3    H164328   2.176   6.447  12.978  0.0025 -0.3369  0.7427
14279TIP3    H264329   2.145   6.575  13.052 -0.1635  1.4243 -2.2199
14280TIP3   OH264330   4.013   2.298   2.498  0.1434  0.0778  0.2658
14280TIP3    H164331   3.939   2.351   2.526  1.4445  1.9605  0.3184
14280TIP3    H264332   4.088   2.336   2.543  1.6121  0.2441 -2.1411
14281TIP3   OH264333   0.731   5.346   4.060 -0.1385  0.8199 -0.6753
14281TIP3    H164334   0.681   5.401   4.120 -1.2417  0.6093 -1.3848
14281TIP3    H264335   0.805   5.315   4.112 -0.9037  0.8877  0.4846
14282TIP3   OH264336   2.104   3.468  14.966  0.1226  0.1409  0.2126
14282TIP3    H164337   2.192   3.486  14.998 -0.1280 -0.5298  1.3405
14282TIP3    H264338   2.071   3.554  14.939  1.6036  0.2035 -1.5871
14283TIP3   OH264339   2.272   5.169   1.340  0.3015  0.5593  0.0797
14283TIP3    H164340   2.266   5.091   1.395 -0.9943  1.1587  0.8394
14283TIP3    H264341   2.245   5.241   1.398 -0.4474  1.2928 -1.1483
14284TIP3   OH264342   5.917   1.515  11.040 -0.2561  0.3273 -0.2908
14284TIP3    H164343   5.935   1.478  11.126 -0.2773  2.6497  0.7848
14284TIP3    H264344   5.833   1.560  11.050  0.4574  1.8949 -1.0537
14285TIP3   OH264345   6.471   5.462  12.611 -0.2908  0.0056 -0.0371
14285TIP3    H164346   6.422   5.386  12.580 -0.5367 -0.7360  2.0709
14285TIP3    H264347   6.412   5.536  12.598 -0.6409 -0.3733 -0.6638
14286TIP3   OH264348   5.910   3.510  11.652 -0.5040 -0.6000  0.3558
14286TIP3    H164349   5.983   3.468  11.696  0.5872  0.4910 -0.3705
14286TIP3    H264350   5.887   3.584  11.708 -1.1021 -0.9551  0.5991
14287TIP3   OH264351   1.355   6.820   4.742  0.8249 -0.6397 -0.3205
14287TIP3    H164352   1.391   6.876   4.811  2.9699 -1.1501 -0.9528
14287TIP3    H264353   1.349   6.733   4.781 -1.8701 -0.1810  0.4492
14288TIP3   OH264354   5.433   3.017   1.973  0.0546  0.0752  0.2165
14288TIP3    H164355   5.474   3.033   2.058  1.4913 -0.4394 -0.3550
14288TIP3    H264356   5.340   3.007   1.993  0.3474  0.1226  1.7000
14289TIP3   OH264357   0.047   2.117   5.127 -0.5858 -0.0220  0.2889
14289TIP3    H164358   0.035   2.101   5.033  0.6882  0.1980  0.0597
14289TIP3    H264359   0.072   2.032   5.162  0.7229  0.2370  0.0709
14290TIP3   OH264360   0.416   6.281  12.676 -0.7918  0.2093  0.0640
14290TIP3    H164361   0.488   6.309  12.732 -0.9204 -0.5829  0.6536
14290TIP3    H264362   0.370   6.215  12.728  0.3959 -2.2682 -1.7801
14291TIP3   OH264363   2.391   3.397  14.005  0.3150  0.0553  0.1739
14291TIP3    H164364   2.334   3.455  14.055 -0.4386 -1.0407  0.6150
14291TIP3    H264365   2.474   3.397  14.053  0.3751  0.8667  0.0816
14292TIP3   OH264366   3.031   4.503  11.890 -0.1320 -0.1758 -0.6745
14292TIP3    H164367   3.101   4.445  11.861  0.0601  0.1227 -0.8135
14292TIP3    H264368   3.021   4.566  11.819 -0.9435 -0.5649 -0.9168
14293TIP3   OH264369   0.087   4.608  15.890  0.0676  0.0170  0.0852
14293TIP3    H164370   0.109   4.687  15.939 -0.7265  1.3390 -1.5906
14293TIP3    H264371   0.165   4.588  15.839  0.3026 -0.3640  0.5822
14294TIP3   OH264372   4.623   0.272   1.491 -0.1783  0.1866 -0.1607
14294TIP3    H164373   4.625   0.322   1.409 -1.5116  1.0071  0.2813
14294TIP3    H264374   4.551   0.311   1.541  1.6244  0.8040  2.1117
14295TIP3   OH264375   2.518   2.609  12.845 -0.1059 -0.5298 -0.3204
14295TIP3    H164376   2.599   2.661  12.844 -0.8899  0.7515 -1.7617
14295TIP3    H264377   2.510   2.574  12.757 -0.4312 -1.8052  0.1945
14296TIP3   OH264378   3.896   2.241  12.902  0.0971 -0.2713 -0.1118
14296TIP3    H164379   3.944   2.240  12.985  0.0225 -0.3978 -0.0706
14296TIP3    H264380   3.825   2.303  12.916  0.3981  0.1083 -0.2561
14297TIP3   OH264381   3.184   0.270   0.193 -0.2371 -0.0454  0.2581
14297TIP3    H164382   3.109   0.329   0.205  0.3015  0.3113  2.3117
14297TIP3    H264383   3.232   0.306   0.118 -1.4020  0.4902 -0.2435
14298TIP3   OH264384   2.314   4.842   5.154 -0.6253 -0.3014  0.0956
14298TIP3    H164385   2.353   4.755   5.145  0.2993  0.1910 -0.9632
14298TIP3    H264386   2.224   4.825   5.182 -0.2263 -1.5523  0.7159
14299TIP3   OH264387   2.208   6.313   5.289 -0.0485 -0.0009  0.1527
14299TIP3    H164388   2.265   6.390   5.277 -0.9104  1.0135  2.0570
14299TIP3    H264389   2.258   6.240   5.253  2.4196  0.8693  1.5599
14300TIP3   OH264390   0.599   2.184   5.680 -0.0181  0.0494 -0.2491
14300TIP3    H164391   0.504   2.183   5.669  0.0340  1.3371 -0.9536
14300TIP3    H264392   0.612   2.180   5.775 -0.8127  0.9962 -0.0895
14301TIP3   OH264393   1.808   2.337   0.034 -0.2182 -0.0925 -0.1663
14301TIP3    H164394   1.879   2.350   0.097 -0.1463 -0.7463 -0.1084
14301TIP3    H264395   1.853   2.309  -0.046 -0.3988 -0.3058 -0.1930
14302TIP3   OH264396   2.763   4.879  12.340  0.2383  0.2714 -0.2622
14302TIP3    H164397   2.796   4.922  12.419 -0.8730  0.5211  0.0812
14302TIP3    H264398   2.685   4.929  12.316 -1.5618 -1.9327  0.5743
14303TIP3   OH264399   5.672   2.779  16.801 -0.1480 -0.1829  0.0374
14303TIP3    H164400   5.613   2.734  16.863 -0.1745  0.4801  0.5001
14303TIP3    H264401   5.622   2.855  16.772  0.2784  0.0835  0.0076
14304TIP3   OH264402   1.146   0.131  14.041 -0.6565 -0.0354  0.2027
14304TIP3    H164403   1.169   0.065  14.107 -1.4406 -0.6478 -0.1183
14304TIP3    H264404   1.214   0.123  13.974  0.3570  0.8488  1.1008
14305TIP3   OH264405   6.399   0.303   0.270 -0.9822 -0.3689  0.2936
14305TIP3    H164406   6.482   0.339   0.241  0.3127 -3.0913  0.3269
14305TIP3    H264407   6.412   0.286   0.364 -2.4076  1.1800  0.8308
14306TIP3   OH264408   3.403   3.561  16.270  0.2429  0.2522  0.2598
14306TIP3    H164409   3.472   3.618  16.303  0.0755 -0.1811  1.3772
14306TIP3    H264410   3.435   3.472  16.285 -0.3973  0.0469  0.4398
14307TIP3   OH264411   3.246   1.877  16.668  0.7687  0.1785  0.1384
14307TIP3    H164412   3.341   1.884  16.673  0.8687 -0.3539 -0.7807
14307TIP3    H264413   3.230   1.819  16.593 -0.3255  1.8230 -0.9833
14308TIP3   OH264414   6.237   6.597   2.424 -0.2443 -0.2837 -0.1125
14308TIP3    H164415   6.163   6.570   2.479 -0.0108 -3.8999 -1.2607
14308TIP3    H264416   6.197   6.637   2.347 -0.8546 -0.0210  0.3355
14309TIP3   OH264417   3.783   0.682  16.161  0.4527 -0.0420 -0.6459
14309TIP3    H164418   3.728   0.669  16.084  0.0890  1.1704 -0.6118
14309TIP3    H264419   3.727   0.731  16.222  0.5492 -1.4210  0.6216
14310TIP3   OH264420   4.487   1.491   3.855  0.1044  0.1071  0.3259
14310TIP3    H164421   4.443   1.505   3.939 -0.5586 -1.0794  0.2096
14310TIP3    H264422   4.494   1.578   3.816 -1.0495  0.4756  0.8969
14311TIP3   OH264423   5.530   0.449  16.307  0.9283 -0.0163 -0.3353
14311TIP3    H164424   5.570   0.515  16.364 -0.0034  0.7716 -0.5579
14311TIP3    H264425   5.527   0.491  16.221  1.2133 -0.7336 -0.7042
14312TIP3   OH264426   3.441   4.039   0.818 -0.6006  0.1226  0.5523
14312TIP3    H164427   3.440   4.000   0.906  0.8632  0.0837  0.5761
14312TIP3    H264428   3.525   4.084   0.813 -1.2800  1.3491 -0.3277
14313TIP3   OH264429   4.456   5.778   2.309  0.6360  0.2488  0.3875
14313TIP3    H164430   4.528   5.819   2.356  0.5935  0.8176 -0.0406
14313TIP3    H264431   4.377   5.812   2.352  0.6121 -0.2572  0.7587
14314TIP3   OH264432   4.573   4.656   3.411 -0.6026 -0.2894  0.2658
14314TIP3    H164433   4.638   4.625   3.474 -0.4135 -0.0776  0.1737
14314TIP3    H264434   4.548   4.578   3.361  0.7587 -0.0902 -0.7798
14315TIP3   OH264435   2.225   4.352  15.502 -0.1784  0.3951 -0.5227
14315TIP3    H164436   2.281   4.412  15.550  0.4419 -0.3448 -0.2940
14315TIP3    H264437   2.274   4.330  15.423 -0.6782  0.6837 -0.9193
14316TIP3   OH264438   1.060   6.390   4.248  0.1583  0.0473 -0.3179
14316TIP3    H164439   1.133   6.433   4.204  1.1955 -1.9094 -0.5838
14316TIP3    H264440   0.985   6.408   4.191  0.8145  0.3716 -1.1135
14317TIP3   OH264441   3.391   4.272   3.139 -0.1262  0.8224 -0.1419
14317TIP3    H164442   3.468   4.329   3.152 -0.2032  1.1360 -1.0141
14317TIP3    H264443   3.428   4.184   3.135  0.0507  0.8452  0.6810
14318TIP3   OH264444   1.300   5.662  14.882 -0.0645  0.0788 -0.0433
14318TIP3    H164445   1.381   5.709  14.863  1.2804 -1.6592  1.0546
14318TIP3    H264446   1.240   5.730  14.915  1.8823  1.0518  1.7597
14319TIP3   OH264447   0.761   2.040  12.002 -0.4292  0.2316  0.3947
14319TIP3    H164448   0.690   2.030  12.066  0.4834  0.1629  1.4120
14319TIP3    H264449   0.755   2.130  11.972 -2.3227 -0.3439 -1.2144
14320TIP3   OH264450   3.447   2.597  13.262  0.4308 -0.6863 -0.1047
14320TIP3    H164451   3.433   2.543  13.340 -1.2094  1.3396  1.1144
14320TIP3    H264452   3.541   2.614  13.262  0.5484 -1.1659  1.1437
14321TIP3   OH264453   3.217   2.271  13.985 -0.1279 -0.1504  0.2613
14321TIP3    H164454   3.301   2.318  13.987 -0.1482 -0.1279  0.5444
14321TIP3    H264455   3.156   2.332  13.944  0.8813 -1.5792 -3.8588
14322TIP3   OH264456   1.228   0.363  15.547  0.4065  0.8947  0.4938
14322TIP3    H164457   1.293   0.299  15.516 -0.6114 -0.3545  0.8416
14322TIP3    H264458   1.275   0.446  15.547  1.5837  0.2749 -0.6280
14323TIP3   OH264459   3.767   5.305   4.582  0.5435  0.4258 -0.6912
14323TIP3    H164460   3.783   5.377   4.521  2.5836 -0.6799 -1.5857
14323TIP3    H264461   3.768   5.227   4.526  1.1330 -0.5109  0.5818
14324TIP3   OH264462   4.804   4.032  12.120 -0.1017  0.3485  0.4148
14324TIP3    H164463   4.787   3.970  12.191 -1.2114 -1.6127 -1.4286
14324TIP3    H264464   4.884   3.999  12.078 -1.1524 -0.4368 -1.0843
14325TIP3   OH264465   2.271   0.266   2.291  0.7002 -0.0971  0.0761
14325TIP3    H164466   2.306   0.243   2.204  1.7459  0.8738  0.2128
14325TIP3    H264467   2.217   0.344   2.275  0.2654 -0.3757  0.1829
14326TIP3   OH264468   1.338   4.846   2.658  0.0092 -0.7641 -0.2415
14326TIP3    H164469   1.291   4.791   2.721 -1.6097 -0.6844 -1.3198
14326TIP3    H264470   1.335   4.934   2.697  1.9119 -1.2371  1.1049
14327TIP3   OH264471   3.283   5.853   4.178 -0.3558  0.1304  0.3102
14327TIP3    H164472   3.325   5.824   4.097 -0.4850 -1.1105  0.6741
14327TIP3    H264473   3.241   5.775   4.213  0.2401  0.4898  1.9136
14328TIP3   OH264474   1.781   4.798   0.713  0.1459 -0.0863 -0.4059
14328TIP3    H164475   1.798   4.853   0.636 -2.4730  1.3487 -0.0726
14328TIP3    H264476   1.737   4.721   0.677  0.6844 -0.3522 -0.5120
14329TIP3   OH264477   0.430   1.116   0.873  0.2460 -0.1312 -0.5607
14329TIP3    H164478   0.409   1.033   0.916  1.0924 -1.2438 -2.1843
14329TIP3    H264479   0.349   1.166   0.876  0.1391 -0.3404  1.8204
14330TIP3   OH264480   2.841   6.533  12.779 -0.1215  0.5979  0.0859
14330TIP3    H164481   2.764   6.534  12.723 -2.1449 -0.5815  2.6294
14330TIP3    H264482   2.888   6.454  12.752 -1.0490  0.0469  0.0314
14331TIP3   OH264483   1.159   1.996   5.053 -0.3759 -0.6493 -0.5556
14331TIP3    H164484   1.171   1.906   5.083 -0.9986 -0.8168 -0.7780
14331TIP3    H264485   1.221   2.048   5.104  0.1748 -1.2434 -0.6147
14332TIP3   OH264486   1.449   6.189  16.073  0.0707  0.3320 -0.0382
14332TIP3    H164487   1.401   6.137  16.008  2.2333 -0.1175 -1.3829
14332TIP3    H264488   1.436   6.279  16.045  0.2306  0.1956 -0.5718
14333TIP3   OH264489   6.063   4.458  13.545 -0.3280 -0.3858 -0.6676
14333TIP3    H164490   6.123   4.489  13.476 -1.2087 -1.4972 -1.9724
14333TIP3    H264491   6.082   4.365  13.554  0.0382 -0.1809  0.9009
14334TIP3   OH264492   5.179   3.687   5.042  0.4327  0.1787 -0.1072
14334TIP3    H164493   5.147   3.714   5.128  0.1221  0.2643 -0.2470
14334TIP3    H264494   5.099   3.670   4.991  0.6147 -0.9777 -0.0336
14335TIP3   OH264495   5.694   2.266   3.390 -0.0610 -0.1472  0.1274
14335TIP3    H164496   5.742   2.236   3.467  0.1816  0.5528  0.2552
14335TIP3    H264497   5.609   2.221   3.395  1.1872 -2.9199 -1.1026
14336TIP3   OH264498   2.702   0.183  13.564 -0.7639 -0.3963 -0.1774
14336TIP3    H164499   2.787   0.178  13.521 -0.4682 -1.5654  0.5041
14336TIP3    H264500   2.639   0.169  13.494 -0.3165 -1.5219 -0.3668
14337TIP3   OH264501   0.818   5.633  12.823  0.0153  0.4244  0.3565
14337TIP3    H164502   0.797   5.726  12.834  0.4345  0.8408 -1.8427
14337TIP3    H264503   0.872   5.611  12.898 -0.3558  1.8824  1.0824
14338TIP3   OH264504   2.938   2.966   3.676 -0.4247  0.0231 -0.7088
14338TIP3    H164505   2.848   2.931   3.682  0.4160 -2.1159  2.3170
14338TIP3    H264506   2.988   2.895   3.637  0.2584  0.5013 -0.7082
14339TIP3   OH264507   5.189   2.838  14.863  0.2072 -0.1867 -0.3534
14339TIP3    H164508   5.264   2.781  14.849  0.6026  0.7850 -2.6821
14339TIP3    H264509   5.217   2.923  14.830 -1.7905  0.2765 -0.9941
14340TIP3   OH264510   6.075   5.329   5.043 -0.6171 -0.2591  0.6631
14340TIP3    H164511   6.132   5.253   5.027 -2.0902 -1.4916  1.0133
14340TIP3    H264512   5.988   5.299   5.019 -0.9253  2.2147 -1.8056
14341TIP3   OH264513   6.686   3.514   4.768 -0.3034  0.1128 -0.2619
14341TIP3    H164514   6.668   3.608   4.759  2.4964  0.6398 -1.5030
14341TIP3    H264515   6.656   3.476   4.685 -1.4545 -0.1189  0.2484
14342TIP3   OH264516   1.291   3.801   2.208  0.3602 -0.5636 -0.2448
14342TIP3    H164517   1.197   3.803   2.225  0.4002 -0.3856 -0.0410
14342TIP3    H264518   1.324   3.731   2.265  0.5657  0.3538  0.7948
14343TIP3   OH264519   6.492   4.313  12.084  0.8176 -0.0673 -0.2818
14343TIP3    H164520   6.557   4.353  12.142  0.2987  1.6383 -0.8245
14343TIP3    H264521   6.413   4.306  12.137  0.2218  1.8684 -0.8145
14344TIP3   OH264522   3.270   6.380  11.822  0.3682 -0.6160 -0.2744
14344TIP3    H164523   3.181   6.383  11.786 -0.4298 -0.2708  1.5693
14344TIP3    H264524   3.263   6.322  11.898  1.8231 -0.9013 -0.3345
14345TIP3   OH264525   3.585   4.539  15.944  0.4044  0.6513  0.0196
14345TIP3    H164526   3.662   4.496  15.979  0.6284  0.7516 -0.3499
14345TIP3    H264527   3.512   4.505  15.997  0.8118  1.3115  1.0402
14346TIP3   OH264528   3.725   4.211   2.803  0.4047 -0.2965 -0.8749
14346TIP3    H164529   3.791   4.234   2.738 -0.0755  0.5980 -1.0647
14346TIP3    H264530   3.645   4.254   2.771  0.2832  0.6195  0.5978
14347TIP3   OH264531   1.201   0.466  17.000 -0.2157  0.4641 -0.1943
14347TIP3    H164532   1.130   0.502  17.053  0.1164 -0.0213  0.6050
14347TIP3    H264533   1.281   0.500  17.041  0.0155  1.8444 -1.7015
14348TIP3   OH264534   6.786   4.300  11.573 -0.2045  0.5383 -0.1579
14348TIP3    H164535   6.766   4.230  11.511 -1.1158 -0.5079  1.2573
14348TIP3    H264536   6.725   4.287  11.645 -0.5851  2.9818  0.0479
14349TIP3   OH264537   0.225   5.970  17.175  0.7493 -0.5508 -0.4717
14349TIP3    H164538   0.277   5.961  17.255 -0.6181 -0.1943  0.5126
14349TIP3    H264539   0.229   5.884  17.134 -0.1819 -1.3901  1.0902
14350TIP3   OH264540   4.586   0.722  15.157 -0.2737  0.4687 -0.3401
14350TIP3    H164541   4.555   0.639  15.193 -1.5479  1.6306  1.4689
14350TIP3    H264542   4.529   0.739  15.083  0.0663 -0.3087 -0.7868
14351TIP3   OH264543   4.182   3.963  14.705 -0.0382  0.3308  0.4924
14351TIP3    H164544   4.225   3.920  14.779  0.6966  1.4005  0.7061
14351TIP3    H264545   4.212   4.054  14.710 -1.4327  0.8347 -0.0379
14352TIP3   OH264546   1.930   2.925  15.525  0.1601 -0.0219 -0.0022
14352TIP3    H164547   1.909   2.843  15.570 -1.3172  0.8629  1.0504
14352TIP3    H264548   2.015   2.910  15.485  0.7908 -1.4422  1.7240
14353TIP3   OH264549   3.552   1.058   1.070 -0.2552 -0.4865 -0.4715
14353TIP3    H164550   3.548   0.977   1.121 -0.6752  0.0674  0.3826
14353TIP3    H264551   3.640   1.057   1.032  0.0183 -0.9678  0.1497
14354TIP3   OH264552   3.731   6.122   3.761 -0.3086 -0.3054  0.0264
14354TIP3    H164553   3.718   6.209   3.724  0.1547  0.0995  0.8116
14354TIP3    H264554   3.694   6.063   3.695  0.4520  0.3967 -1.0763
14355TIP3   OH264555   1.971   1.799   3.080 -0.1045 -0.9324  0.4486
14355TIP3    H164556   1.957   1.890   3.106 -1.3643 -1.0013  0.0524
14355TIP3    H264557   2.065   1.786   3.090 -0.2261 -0.3933  3.1436
14356TIP3   OH264558   3.950   4.004   4.355  0.0739  0.4000 -1.2654
14356TIP3    H164559   3.892   4.052   4.414  0.7546 -0.1080 -0.1487
14356TIP3    H264560   4.028   4.059   4.348  1.6009 -1.1818  1.4021
14357TIP3   OH264561   1.138   4.971  11.449 -0.0342 -0.1102 -0.1459
14357TIP3    H164562   1.230   4.978  11.475  0.9286 -0.2356 -3.1731
14357TIP3    H264563   1.128   4.880  11.420 -1.5107 -0.4630  1.3177
14358TIP3   OH264564   5.721   3.562   3.439  0.1503  1.0261  0.2330
14358TIP3    H164565   5.777   3.508   3.384  0.1401 -0.4366  1.5883
14358TIP3    H264566   5.663   3.607   3.378 -0.3311 -1.0725 -0.9324
14359TIP3   OH264567   5.322   5.157   0.793  0.1100 -0.2307 -0.4137
14359TIP3    H164568   5.404   5.111   0.774 -1.3180 -2.1699 -2.3801
14359TIP3    H264569   5.271   5.095   0.845 -0.3896  0.7063  0.2534
14360TIP3   OH264570   1.639   4.746  16.248 -0.1692  0.1072 -0.3082
14360TIP3    H164571   1.566   4.686  16.231 -1.6745  1.2531  1.7040
14360TIP3    H264572   1.665   4.776  16.161 -2.4483  0.0401 -1.0869
14361TIP3   OH264573   4.750   2.973  12.369 -0.7948  0.0947  0.3711
14361TIP3    H164574   4.687   3.041  12.390 -0.1270  0.2448  2.0128
14361TIP3    H264575   4.713   2.929  12.292 -3.1919 -0.2104  1.6012
14362TIP3   OH264576   5.359   1.259  16.689 -0.0790 -0.3598 -0.0175
14362TIP3    H164577   5.309   1.247  16.770  0.3220  1.0607  0.4676
14362TIP3    H264578   5.380   1.352  16.687  0.7571 -0.5479 -1.2791
14363TIP3   OH264579   0.392   6.192   1.218 -0.1343  0.2128 -0.1926
14363TIP3    H164580   0.392   6.237   1.302 -0.5913 -2.7771  1.5525
14363TIP3    H264581   0.302   6.161   1.208  0.6462 -2.4030  0.0273
14364TIP3   OH264582   1.786   3.071   4.723  0.2709 -0.2173 -1.1481
14364TIP3    H164583   1.779   2.978   4.705  0.9684 -0.2014 -1.5220
14364TIP3    H264584   1.859   3.101   4.669  1.8312  0.0269  0.9841
14365TIP3   OH264585   5.459   2.172   0.431  0.5694 -0.2957 -0.5839
14365TIP3    H164586   5.419   2.200   0.513 -0.1323  0.6521 -1.2240
14365TIP3    H264587   5.418   2.087   0.413 -0.0849 -0.0137 -0.4804
14366TIP3   OH264588   5.940   4.588  14.904 -0.9869  0.1726 -0.2453
14366TIP3    H164589   5.914   4.505  14.943 -0.2633 -0.1112 -0.3538
14366TIP3    H264590   6.023   4.610  14.947 -1.0140  0.6800 -0.4444
14367TIP3   OH264591   6.329   2.576  16.706  1.0291 -0.2913 -0.7224
14367TIP3    H164592   6.346   2.545  16.617  0.6872 -1.8585 -0.2872
14367TIP3    H264593   6.405   2.548  16.757  1.4917  1.1088 -0.6242
14368TIP3   OH264594   6.366   1.599  16.862  0.0006  0.5363  0.3341
14368TIP3    H164595   6.370   1.573  16.770  0.4912  0.4732  0.3698
14368TIP3    H264596   6.361   1.695  16.859 -1.1616  0.4878  0.2229
14369TIP3   OH264597   6.730   2.324   2.479  0.0914  0.4265  0.4971
14369TIP3    H164598   6.642   2.288   2.479 -0.0092  0.4607  3.4142
14369TIP3    H264599   6.722   2.407   2.432 -1.5705  0.7007  1.1958
14370TIP3   OH264600   1.562   1.247   6.208  0.0941  0.2025 -0.2582
14370TIP3    H164601   1.514   1.326   6.182 -0.2810  0.1744  0.3433
14370TIP3    H264602   1.653   1.276   6.216 -0.2526  0.9566  1.4576
14371TIP3   OH264603   1.275   0.164   2.004  0.2182 -0.4589  0.5195
14371TIP3    H164604   1.209   0.191   1.939 -0.7169 -0.6224  1.3794
14371TIP3    H264605   1.271   0.068   2.004 -0.1773 -0.4512  1.1894
14372TIP3   OH264606   0.111   0.191  12.251  0.0131  0.2447  0.6925
14372TIP3    H164607   0.179   0.129  12.223 -0.8814 -1.5299  2.2136
14372TIP3    H264608   0.042   0.181  12.185  0.5794  0.9415 -0.0253
14373TIP3   OH264609   1.431   2.919  14.719  0.4500 -0.1616  0.4953
14373TIP3    H164610   1.496   2.884  14.658 -0.3065 -1.1305  0.2219
14373TIP3    H264611   1.480   2.938  14.799  1.2712  0.1850 -0.0914
14374TIP3   OH264612   3.282   1.510   5.198 -0.4084  1.2752 -0.5532
14374TIP3    H164613   3.367   1.516   5.240 -0.3837  0.1497 -0.4023
14374TIP3    H264614   3.248   1.599   5.197  0.8956  1.7817 -0.8805
14375TIP3   OH264615   3.846   2.560   1.854 -0.4206  0.3457 -0.5656
14375TIP3    H164616   3.842   2.640   1.802  1.6897  1.0279  0.2213
14375TIP3    H264617   3.927   2.517   1.827 -1.0281 -1.0332 -0.2777
14376TIP3   OH264618   3.518   4.280  12.260  0.2971  0.1188 -0.0855
14376TIP3    H164619   3.506   4.373  12.278  0.6143  0.2925 -0.7694
14376TIP3    H264620   3.429   4.246  12.249  0.0549 -0.0290  1.8954
14377TIP3   OH264621   2.952   3.378  12.764  0.5893  0.3558 -0.4825
14377TIP3    H164622   2.887   3.445  12.787  0.4283  0.0407 -0.0042
14377TIP3    H264623   3.027   3.427  12.731 -0.0832  0.7104 -1.5355
14378TIP3   OH264624   2.901   5.557  10.964 -0.1949  0.7106 -0.5609
14378TIP3    H164625   2.938   5.629  10.912 -0.8742  0.5402 -1.2979
14378TIP3    H264626   2.845   5.510  10.902 -1.0347  0.5079  0.3400
14379TIP3   OH264627   5.177   2.670   3.803  0.6158  0.2958  0.3034
14379TIP3    H164628   5.230   2.747   3.784  2.0973 -0.9562 -0.8834
14379TIP3    H264629   5.215   2.600   3.749 -1.2888 -1.0434  0.5826
14380TIP3   OH264630   0.769   1.272  15.878 -0.3734  0.3515  0.3402
14380TIP3    H164631   0.744   1.333  15.948  1.9083  0.2618  1.3320
14380TIP3    H264632   0.784   1.327  15.802 -2.6636  0.4785 -0.0756
14381TIP3   OH264633   1.802   3.405   4.745 -0.2859  0.2732  0.0892
14381TIP3    H164634   1.822   3.407   4.839 -1.8124  1.2367  0.4372
14381TIP3    H264635   1.749   3.483   4.730 -0.1904  0.0610 -1.5630
14382TIP3   OH264636   5.097   4.557   1.175 -0.1519 -0.0899  0.1507
14382TIP3    H164637   5.177   4.523   1.134 -0.4306  1.7417 -2.0713
14382TIP3    H264638   5.028   4.500   1.142 -0.0704 -0.1354  0.0548
14383TIP3   OH264639   0.052   4.635   0.203  0.5311  0.9858  0.3673
14383TIP3    H164640  -0.040   4.620   0.179  0.3440  1.2317  0.9063
14383TIP3    H264641   0.064   4.730   0.192  0.3490  1.1616  1.5089
14384TIP3   OH264642   6.528   6.110   2.642 -0.0915  0.0863  0.1573
14384TIP3    H164643   6.537   6.021   2.607  0.3041  0.6776 -1.3123
14384TIP3    H264644   6.617   6.145   2.642  0.1775 -0.3087  3.0936
14385TIP3   OH264645   5.619   6.547   1.041  0.1506  0.2657 -0.8200
14385TIP3    H164646   5.669   6.625   1.017  0.9287 -0.0642 -0.3193
14385TIP3    H264647   5.679   6.496   1.096 -1.7050  1.3701  2.5768
14386TIP3   OH264648   5.892   6.378   4.281  0.6077 -0.2684  0.1169
14386TIP3    H164649   5.815   6.321   4.270 -0.5161  1.4081 -1.4539
14386TIP3    H264650   5.966   6.322   4.260 -0.2985 -1.6037  0.3417
14387TIP3   OH264651   4.368   2.597   0.212 -0.3017 -0.2302 -0.1182
14387TIP3    H164652   4.279   2.572   0.188 -0.4151 -1.6296  1.5822
14387TIP3    H264653   4.422   2.568   0.139 -1.0500 -0.8598 -0.4297
14388TIP3   OH264654   0.715   0.293   1.423 -0.1346 -0.2072 -0.1840
14388TIP3    H164655   0.768   0.267   1.348 -2.4453  3.8194 -3.7307
14388TIP3    H264656   0.770   0.353   1.472  0.1913  0.2290 -1.0593
14389TIP3   OH264657   1.564   5.507   0.271  0.1877  0.2431 -0.7903
14389TIP3    H164658   1.470   5.525   0.265  0.0756  0.2227  0.6001
14389TIP3    H264659   1.605   5.593   0.278  0.2168  0.2251 -0.7395
14390TIP3   OH264660   0.382   3.587   2.644  0.1550 -0.3164 -0.4337
14390TIP3    H164661   0.471   3.552   2.640  0.3452  0.0245  0.4863
14390TIP3    H264662   0.379   3.653   2.575  1.4040  1.3648  1.0244
14391TIP3   OH264663   0.399   2.423  14.007 -0.0295  0.1732 -0.0196
14391TIP3    H164664   0.427   2.482  13.938  0.1463  0.3408  0.1952
14391TIP3    H264665   0.465   2.432  14.075  0.2786 -0.6501 -0.1912
14392TIP3   OH264666   4.299   1.983  16.596 -0.2450  0.5949  0.1986
14392TIP3    H164667   4.322   1.891  16.609  0.8231  0.7744 -0.2765
14392TIP3    H264668   4.308   2.022  16.683 -0.4230  0.3078  0.3470
14393TIP3   OH264669   3.900   5.259  15.660 -0.0800  0.3116  0.9696
14393TIP3    H164670   3.949   5.188  15.701  0.8336 -2.0124 -3.4448
14393TIP3    H264671   3.825   5.216  15.619  1.4607  1.2650 -3.4123
14394TIP3   OH264672   3.594   1.742  12.180 -0.3286 -0.7210 -0.1387
14394TIP3    H164673   3.677   1.777  12.147 -0.7354  1.0421  0.6216
14394TIP3    H264674   3.533   1.751  12.107 -0.4979  0.4386  0.1367
14395TIP3   OH264675   2.537   1.623  13.656 -0.1406  0.2769 -0.3171
14395TIP3    H164676   2.515   1.595  13.745  1.7797  1.1785  0.4999
14395TIP3    H264677   2.615   1.572  13.635 -1.4550 -1.1076 -2.1741
14396TIP3   OH264678   3.053   3.092  14.845  0.0205  0.6351 -0.0403
14396TIP3    H164679   3.087   3.181  14.852  1.2243  0.2534 -0.7190
14396TIP3    H264680   3.091   3.059  14.764 -0.0027 -0.6799  0.4737
14397TIP3   OH264681   5.562   4.295  12.653 -0.2014 -0.4167 -0.4500
14397TIP3    H164682   5.617   4.329  12.724 -0.0426 -0.2546 -0.6484
14397TIP3    H264683   5.619   4.235  12.605  0.8707  2.0783 -2.5501
14398TIP3   OH264684   1.468   6.678   3.351  0.1004 -0.0675  0.6439
14398TIP3    H164685   1.533   6.615   3.381  0.1369 -0.0890  0.5225
14398TIP3    H264686   1.518   6.739   3.297  0.3332  0.8805  1.8873
14399TIP3   OH264687   3.147   6.583  11.302 -0.0779  0.0631 -0.6322
14399TIP3    H164688   3.083   6.594  11.232  0.3744  0.3410 -1.0075
14399TIP3    H264689   3.127   6.497  11.339 -2.5501  1.2830  1.2005
14400TIP3   OH264690   3.508   5.389  11.558  0.3123 -0.3283  0.1965
14400TIP3    H164691   3.448   5.459  11.584  1.4982  0.6618  0.3404
14400TIP3    H264692   3.535   5.348  11.640 -1.9019 -2.3579  0.0532
14401TIP3   OH264693   0.277   4.476   0.880 -0.7289 -0.3638  0.4866
14401TIP3    H164694   0.331   4.398   0.896 -0.1245  0.2792  1.8055
14401TIP3    H264695   0.193   4.456   0.920 -1.6244 -1.4908 -1.8435
14402TIP3   OH264696   6.773   6.756  11.858  0.3961  0.4134  0.2573
14402TIP3    H164697   6.695   6.804  11.830  0.0101 -0.5179 -0.3491
14402TIP3    H264698   6.738   6.682  11.909  0.8883  0.1097  0.1619
14403TIP3   OH264699   5.650   5.680  11.910 -0.3596  0.8043  0.5327
14403TIP3    H164700   5.630   5.681  12.004 -0.0113 -0.3756  0.6479
14403TIP3    H264701   5.740   5.646  11.906 -0.2955  1.0496 -0.2188
14404TIP3   OH264702   5.750   6.242  17.002  0.1413 -0.6395  0.6359
14404TIP3    H164703   5.736   6.334  16.980 -2.3202 -1.1016  0.0139
14404TIP3    H264704   5.781   6.202  16.921  2.0495 -0.2433  1.1295
14405TIP3   OH264705   6.071   3.282   3.823  0.6328  0.2218 -0.4244
14405TIP3    H164706   6.117   3.363   3.803  0.1295  0.5866 -0.1377
14405TIP3    H264707   5.984   3.294   3.784  0.6517 -0.2952 -0.6262
14406TIP3   OH264708   5.812   0.967   5.190  0.1475  0.7496  0.3278
14406TIP3    H164709   5.818   1.056   5.156  1.7357  0.4245 -0.3594
14406TIP3    H264710   5.755   0.922   5.128 -1.3268  1.4452  1.1225
14407TIP3   OH264711   0.878   6.527   1.548 -0.8657 -0.1422  0.2439
14407TIP3    H164712   0.865   6.432   1.553 -1.7565 -0.0117  0.5234
14407TIP3    H264713   0.876   6.557   1.639  1.8635 -0.1273  0.3916
14408TIP3   OH264714   4.796   4.829  12.937 -0.3619  0.5568  0.3522
14408TIP3    H164715   4.744   4.750  12.954 -1.5549  1.1932 -0.1641
14408TIP3    H264716   4.815   4.824  12.843  3.0711 -1.1236  0.9863
14409TIP3   OH264717   0.081   5.326   3.929  0.8539  0.4204 -0.2620
14409TIP3    H164718   0.003   5.371   3.960  0.4475 -0.3259 -0.1737
14409TIP3    H264719   0.052   5.236   3.914  1.3913  0.4323 -1.4421
14410TIP3   OH264720   3.056   5.500   5.994 -0.0560 -0.4214 -0.4684
14410TIP3    H164721   3.050   5.406   5.977 -1.5028 -0.1614 -1.6153
14410TIP3    H264722   3.109   5.534   5.922  1.5043 -0.4877  0.6084
14411TIP3   OH264723   1.782   0.593   5.662 -0.3032 -0.3334 -0.3859
14411TIP3    H164724   1.801   0.499   5.665 -3.2977 -1.0110  0.4200
14411TIP3    H264725   1.836   0.631   5.731  0.7441 -1.4734 -0.5422
14412TIP3   OH264726   3.070   4.786  16.632  0.8763  0.1899  0.1081
14412TIP3    H164727   3.121   4.790  16.713  0.0001 -0.8941  0.7514
14412TIP3    H264728   2.985   4.823  16.655  0.6354 -0.0812 -0.3207
14413TIP3   OH264729   4.409   3.144   4.354  0.0704 -0.0479 -0.0449
14413TIP3    H164730   4.370   3.059   4.377 -0.0542 -0.4612 -1.6727
14413TIP3    H264731   4.376   3.163   4.267  0.8693  1.2283 -0.0994
14414TIP3   OH264732   3.688   6.363   4.245  0.1370 -0.1915 -0.1900
14414TIP3    H164733   3.675   6.456   4.261 -0.3888 -0.4274  0.8278
14414TIP3    H264734   3.734   6.360   4.161 -0.5085  0.9424 -0.6089
14415TIP3   OH264735   0.253   0.038   2.691 -0.0383  0.0101  0.6793
14415TIP3    H164736   0.245  -0.036   2.630  0.6960  0.6811 -0.2770
14415TIP3    H264737   0.344   0.034   2.722 -0.0662  0.3614  0.8128
14416TIP3   OH264738   1.243   1.404   3.352 -0.0764 -0.1315  0.0169
14416TIP3    H164739   1.275   1.480   3.304  0.4758 -0.3598  0.0147
14416TIP3    H264740   1.305   1.393   3.424 -0.6753 -0.0310  0.5591
14417TIP3   OH264741   1.901   5.795  12.663  0.1908  0.1087 -0.6499
14417TIP3    H164742   1.907   5.857  12.591 -1.4291 -1.1300 -1.9230
14417TIP3    H264743   1.820   5.818  12.708 -0.3294 -0.9300 -1.0245
14418TIP3   OH264744   2.983   1.706  17.050 -0.1904  0.3361 -0.9307
14418TIP3    H164745   3.013   1.620  17.078 -0.1786  0.5171 -0.3859
14418TIP3    H264746   3.062   1.759  17.045 -0.1696  0.2595 -1.4821
14419TIP3   OH264747   5.813   5.314   5.035  0.5538  0.3270 -0.1570
14419TIP3    H164748   5.796   5.352   5.121 -0.2749 -0.5201  0.0749
14419TIP3    H264749   5.799   5.220   5.048 -1.1956  0.3384 -1.5649
14420TIP3   OH264750   4.666   0.419  15.518 -0.1812  0.4648  0.2413
14420TIP3    H164751   4.600   0.483  15.492  0.2076  0.7854  0.0250
14420TIP3    H264752   4.727   0.468  15.573  0.1166  0.2804  0.0788
14421TIP3   OH264753   0.314   4.216  13.405 -0.3061  0.0114  0.1155
14421TIP3    H164754   0.393   4.167  13.384 -0.5021 -0.6318  0.8382
14421TIP3    H264755   0.284   4.179  13.488 -0.6294  1.1503  0.5279
14422TIP3   OH264756   4.415   3.893  12.688 -0.5470 -0.2604 -0.1807
14422TIP3    H164757   4.401   3.801  12.712 -0.3284 -0.6175 -1.3611
14422TIP3    H264758   4.425   3.938  12.771 -1.2233 -1.2126  0.4428
14423TIP3   OH264759   6.341   4.308  13.332 -0.1476  0.7990  0.0319
14423TIP3    H164760   6.321   4.320  13.239  2.2185 -0.5835 -0.7353
14423TIP3    H264761   6.261   4.270  13.369 -0.0739 -1.8654 -2.2253
14424TIP3   OH264762   0.740   0.297  15.376  0.2062 -0.5335 -0.2872
14424TIP3    H164763   0.774   0.224  15.427  1.6951 -0.5090 -1.1663
14424TIP3    H264764   0.816   0.356  15.364  0.0931 -0.7670 -2.8430
14425TIP3   OH264765   5.895   2.967   4.780 -0.2375 -0.7428  0.1307
14425TIP3    H164766   5.899   3.043   4.722  0.0278 -0.3478  0.6589
14425TIP3    H264767   5.802   2.950   4.791 -0.3111 -0.2153  0.3592
14426TIP3   OH264768   6.614   3.663   5.732 -0.5152 -0.3277 -0.1895
14426TIP3    H164769   6.641   3.579   5.695 -0.4980 -0.9194  1.1193
14426TIP3    H264770   6.587   3.642   5.821 -0.1923  1.1141  0.2649
14427TIP3   OH264771   1.903   2.612   2.743  0.1196 -0.6837 -0.5233
14427TIP3    H164772   1.978   2.645   2.694 -0.3769 -0.9976 -1.5285
14427TIP3    H264773   1.903   2.662   2.824  0.1786  0.8296 -1.4214
14428TIP3   OH264774   1.270   5.448   5.567 -0.0408 -0.1166 -0.2474
14428TIP3    H164775   1.301   5.533   5.599 -1.9275 -0.1448  1.8721
14428TIP3    H264776   1.186   5.435   5.611  1.0474 -3.9385  1.0544
14429TIP3   OH264777   4.702   1.873  12.528 -0.1888  1.0009 -0.6102
14429TIP3    H164778   4.629   1.867  12.589  0.1550  0.9069 -0.2032
14429TIP3    H264779   4.671   1.930  12.459 -1.2076 -0.2544 -1.2345
14430TIP3   OH264780   4.930   0.266  13.891 -0.3367 -0.8496 -0.5847
14430TIP3    H164781   5.023   0.248  13.895 -0.3088 -1.0191 -1.7743
14430TIP3    H264782   4.897   0.241  13.977  0.9818  0.8517  0.4707
14431TIP3   OH264783   4.475   5.405  15.523 -0.0635 -0.5636 -0.2972
14431TIP3    H164784   4.385   5.424  15.550  0.3224  0.7693  0.1240
14431TIP3    H264785   4.476   5.425  15.429  1.0738  5.0928  0.5754
14432TIP3   OH264786   2.766   3.534   2.655  0.5243 -0.0568  0.0419
14432TIP3    H164787   2.738   3.616   2.615 -1.0145 -0.8345 -0.6103
14432TIP3    H264788   2.823   3.494   2.590 -0.7769 -0.6342 -0.7933
14433TIP3   OH264789   1.158   1.324  15.396 -0.1359 -0.5605 -0.3878
14433TIP3    H164790   1.184   1.266  15.325  0.0455 -1.8208  0.6595
14433TIP3    H264791   1.193   1.282  15.475 -1.9054 -0.2143  0.6340
14434TIP3   OH264792   3.621   5.160  15.233  0.6649 -0.1942 -0.1652
14434TIP3    H164793   3.594   5.075  15.201 -0.6943 -0.1585  0.7842
14434TIP3    H264794   3.620   5.217  15.156 -0.1711 -0.6448 -0.5000
14435TIP3   OH264795   3.948   0.166   5.585 -0.0422  0.6660 -0.2290
14435TIP3    H164796   3.879   0.102   5.568 -1.6361  2.1756  0.3377
14435TIP3    H264797   3.938   0.232   5.516 -0.7079  2.1018  1.1815
14436TIP3   OH264798   6.333   5.771   1.944  0.3246  0.0103 -0.2737
14436TIP3    H164799   6.360   5.708   1.877  0.6976 -0.6833  0.5163
14436TIP3    H264800   6.415   5.797   1.986  0.3738  2.1619 -1.5383
14437TIP3   OH264801   0.005   4.107   4.729 -0.1870 -0.1967  0.0522
14437TIP3    H164802  -0.005   4.202   4.740  0.4758 -0.1696  0.4530
14437TIP3    H264803  -0.038   4.070   4.806  1.1399 -0.1453  0.8420
14438TIP3   OH264804   2.067   4.745  15.535 -0.2629 -0.0255  0.1202
14438TIP3    H164805   1.981   4.726  15.498  0.0789 -1.8902  0.1805
14438TIP3    H264806   2.048   4.798  15.613 -1.3518 -0.4330  0.1501
14439TIP3   OH264807   4.856   5.868  14.135  0.4295 -0.2175 -0.6144
14439TIP3    H164808   4.810   5.891  14.055  0.6588 -2.4011 -1.4233
14439TIP3    H264809   4.794   5.888  14.205 -0.2588  0.4920 -1.4037
14440TIP3   OH264810   5.397   1.487  11.634 -0.7501 -0.2493 -0.3713
14440TIP3    H164811   5.463   1.474  11.702 -0.3995 -0.1133 -0.6813
14440TIP3    H264812   5.338   1.412  11.643 -1.2810  0.2673  0.7227
14441TIP3   OH264813   5.089   2.110  13.657  0.4501  0.2153 -0.2278
14441TIP3    H164814   5.004   2.069  13.644  0.1001  0.1422  1.9893
14441TIP3    H264815   5.086   2.189  13.604 -0.7717 -0.0753 -0.6254
14442TIP3   OH264816   6.392   4.417  11.221 -0.2321  0.2317  0.3937
14442TIP3    H164817   6.448   4.345  11.191 -0.0068  0.5184  0.1258
14442TIP3    H264818   6.412   4.490  11.163 -1.0358  0.2796  0.1620
14443TIP3   OH264819   3.762   6.340   0.083 -0.1157 -0.0540  0.1207
14443TIP3    H164820   3.740   6.433   0.079 -0.4041  0.1264  3.3960
14443TIP3    H264821   3.680   6.297   0.108  0.2440 -1.0938 -0.4312
14444TIP3   OH264822   6.056   4.090  13.252  0.1476 -0.3029 -0.5291
14444TIP3    H164823   5.979   4.033  13.255  1.0734 -1.8039 -2.7782
14444TIP3    H264824   6.101   4.075  13.335 -1.0706 -0.7026  0.0765
14445TIP3   OH264825   4.374   4.068  12.462  0.0300 -0.0145  0.4835
14445TIP3    H164826   4.312   3.997  12.444 -0.4338  0.2568  0.9839
14445TIP3    H264827   4.439   4.029  12.519  1.2182 -0.7388 -1.2803
14446TIP3   OH264828   3.280   5.915   1.530  0.1720 -0.1182 -0.3155
14446TIP3    H164829   3.279   5.950   1.619 -0.9573  0.1632 -0.4262
14446TIP3    H264830   3.373   5.902   1.511  0.5175  1.1497  0.3801
14447TIP3   OH264831   2.884   0.402  13.258  0.3999  0.6207 -0.8063
14447TIP3    H164832   2.887   0.358  13.173  1.4467  2.5045 -1.8157
14447TIP3    H264833   2.815   0.468  13.248 -0.7124 -0.2790  0.4688
14448TIP3   OH264834   6.106   5.876   5.036 -0.0857 -0.2803 -0.3555
14448TIP3    H164835   6.139   5.787   5.027 -0.7136 -0.3489 -2.5936
14448TIP3    H264836   6.058   5.876   5.119  1.5802 -1.4190  0.6885
14449TIP3   OH264837   2.405   2.183  16.412  0.3187  0.5468 -0.2274
14449TIP3    H164838   2.436   2.165  16.323  4.3052 -0.3500  1.1403
14449TIP3    H264839   2.331   2.242  16.400 -0.1615 -0.5905 -4.1504
14450TIP3   OH264840   1.741   2.963   2.660 -0.0183  0.3967 -0.8335
14450TIP3    H164841   1.768   2.895   2.722 -1.5759 -0.1292 -0.6924
14450TIP3    H264842   1.707   3.033   2.716 -0.1001  0.5275 -1.0480
14451TIP3   OH264843   6.532   5.107   2.680  0.0116  0.5100  0.6146
14451TIP3    H164844   6.607   5.051   2.699  1.0748  1.9240  0.7768
14451TIP3    H264845   6.548   5.139   2.591 -0.9548  0.0026  0.2487
14452TIP3   OH264846   2.102   5.740  15.917  0.2176  0.4733 -0.2442
14452TIP3    H164847   2.101   5.771  15.826 -1.5865 -0.3775 -0.5600
14452TIP3    H264848   2.010   5.720  15.936  0.8645 -1.5251  1.0214
14453TIP3   OH264849   3.468   2.585  11.095  0.0594 -0.0542 -0.1117
14453TIP3    H164850   3.493   2.594  11.003 -0.8667  1.9177 -0.2242
14453TIP3    H264851   3.530   2.522  11.131 -0.1279 -1.5703 -2.2874
14454TIP3   OH264852   0.293   2.333   2.680 -0.6629 -0.3465 -0.1317
14454TIP3    H164853   0.225   2.390   2.717  1.8404  1.3529  2.2306
14454TIP3    H264854   0.344   2.390   2.623  0.7005 -0.7297  0.6780
14455TIP3   OH264855   5.747   3.850   2.808 -0.2868  0.1244 -0.3306
14455TIP3    H164856   5.671   3.797   2.784 -2.3611  2.8206 -0.1268
14455TIP3    H264857   5.808   3.839   2.735 -0.2960 -2.9519 -0.0009
14456TIP3   OH264858   6.811   2.433  16.204  0.1938  0.0305 -0.0208
14456TIP3    H164859   6.852   2.460  16.287  0.0582 -0.2587  0.1420
14456TIP3    H264860   6.869   2.365  16.170  0.6093  0.6198 -0.5009
14457TIP3   OH264861   2.554   2.483  11.191 -0.2793  0.0211  0.0119
14457TIP3    H164862   2.485   2.531  11.144  0.5209 -0.1620 -1.3878
14457TIP3    H264863   2.528   2.391  11.184 -0.9993  0.0838  1.3705
14458TIP3   OH264864   1.517   6.455   1.468  0.3447  0.4026  0.0556
14458TIP3    H164865   1.601   6.457   1.421  0.5149 -0.4186  0.3129
14458TIP3    H264866   1.541   6.431   1.558 -0.1462  0.3946  0.1873
14459TIP3   OH264867   4.929   0.058  15.310 -0.2175 -0.3942 -0.0532
14459TIP3    H164868   4.894   0.013  15.387 -0.3205 -0.5959 -0.2162
14459TIP3    H264869   4.912   0.151  15.326 -3.9438 -0.5958 -1.5971
14460TIP3   OH264870   4.643   4.794   1.613  0.0721 -0.3444 -0.1403
14460TIP3    H164871   4.553   4.804   1.581 -0.2479  2.3387  1.2469
14460TIP3    H264872   4.692   4.758   1.539 -1.1799  2.7294 -2.7006
14461TIP3   OH264873   5.740   1.663  12.114  0.6231 -0.4684 -0.3254
14461TIP3    H164874   5.688   1.737  12.144 -0.9606 -1.3915 -0.7269
14461TIP3    H264875   5.745   1.604  12.189 -0.8085 -1.3923 -0.9192
14462TIP3   OH264876   0.971   0.344   3.062  0.0796  0.0940  0.4360
14462TIP3    H164877   0.921   0.408   3.112 -1.3827 -0.7956  0.1698
14462TIP3    H264878   1.046   0.324   3.117  0.3694  1.7407  0.6851
14463TIP3   OH264879   2.409   1.727  15.477  1.0382  0.0761  0.0964
14463TIP3    H164880   2.334   1.692  15.429  1.3331 -0.3191 -0.0802
14463TIP3    H264881   2.460   1.773  15.411  0.5478  1.0345  0.3640
14464TIP3   OH264882   3.078   6.519  14.321  0.3861  0.5114 -0.0439
14464TIP3    H164883   3.009   6.459  14.291  1.6116 -0.2953 -1.3975
14464TIP3    H264884   3.122   6.472  14.391  0.1242  0.6569  0.2208
14465TIP3   OH264885   1.772   1.777  13.935  0.3654  0.2068  0.0075
14465TIP3    H164886   1.758   1.807  13.845  0.6009  1.1555  0.2818
14465TIP3    H264887   1.727   1.693  13.939 -1.6568  1.2131 -0.3535
14466TIP3   OH264888   2.924   0.478   3.814 -0.0398 -0.2347 -0.5614
14466TIP3    H164889   2.943   0.452   3.904  0.5615  1.3066 -0.2015
14466TIP3    H264890   2.829   0.492   3.813 -0.1305 -0.8389 -0.3245
14467TIP3   OH264891   4.236   0.577  14.054  0.1242 -0.4845 -0.0554
14467TIP3    H164892   4.153   0.548  14.092  0.3994 -1.0827  0.0849
14467TIP3    H264893   4.217   0.666  14.023 -1.0268 -1.1496 -1.4289
14468TIP3   OH264894   6.292   5.176   4.014 -0.0497 -0.3745 -0.0004
14468TIP3    H164895   6.233   5.249   4.036 -0.6707 -0.6650 -0.6528
14468TIP3    H264896   6.379   5.207   4.039 -0.4458  0.1512  0.7756
14469TIP3   OH264897   5.679   3.312  16.057  0.7594  0.5221 -0.0577
14469TIP3    H164898   5.713   3.358  15.980  0.7541  0.2046 -0.2487
14469TIP3    H264899   5.602   3.266  16.025  0.2551  1.0760  0.3291
14470TIP3   OH264900   3.863   2.981   2.637 -0.2498 -0.1127 -0.1527
14470TIP3    H164901   3.813   3.063   2.645 -0.1172 -0.1002  0.6079
14470TIP3    H264902   3.953   3.010   2.622 -0.0934 -0.1053  0.7640
14471TIP3   OH264903   6.483   4.616   0.300 -0.3645 -0.3747 -0.0903
14471TIP3    H164904   6.562   4.606   0.353 -0.9000  1.5900  1.1818
14471TIP3    H264905   6.419   4.559   0.342  0.0617 -1.2029 -0.5297
14472TIP3   OH264906   4.701   4.388   2.383 -0.1211  0.8770 -0.3736
14472TIP3    H164907   4.667   4.335   2.455 -0.6770  1.7837  0.0454
14472TIP3    H264908   4.795   4.397   2.403 -0.4449  1.9289  0.7826
14473TIP3   OH264909   4.865   4.594   4.387 -0.0653 -0.1318 -0.1488
14473TIP3    H164910   4.773   4.569   4.396 -0.0011 -0.2657  0.1548
14473TIP3    H264911   4.892   4.556   4.304 -0.1113 -0.6262  0.0622
14474TIP3   OH264912   6.136   6.763   5.383 -0.4133 -0.1477 -0.2554
14474TIP3    H164913   6.132   6.844   5.434  1.2503 -0.1383 -0.0953
14474TIP3    H264914   6.046   6.750   5.354 -0.8914  1.2912  0.4329
14475TIP3   OH264915   3.605   0.633  12.054  0.5045 -0.5397  0.0190
14475TIP3    H164916   3.551   0.562  12.089 -1.6798  1.1535  0.4095
14475TIP3    H264917   3.571   0.712  12.098  0.9977  1.0734 -2.2859
14476TIP3   OH264918   4.106   4.491   4.472 -0.1482 -0.4442  0.6185
14476TIP3    H164919   4.132   4.579   4.499 -0.0311  0.6124 -2.5217
14476TIP3    H264920   4.014   4.484   4.498 -0.0365  0.4233  1.2808
14477TIP3   OH264921   0.017   0.413   1.839  0.5075  0.5514  0.2053
14477TIP3    H164922   0.031   0.435   1.746 -0.0104 -0.4676 -0.1328
14477TIP3    H264923   0.099   0.437   1.882  1.1486  0.0619 -0.7077
14478TIP3   OH264924   4.814   0.264   3.006  0.5551 -0.5925  1.1253
14478TIP3    H164925   4.725   0.245   2.973  1.3906 -1.3197 -0.8985
14478TIP3    H264926   4.815   0.227   3.094 -1.2545 -0.2625  1.3307
14479TIP3   OH264927   2.404   5.818   1.628 -0.1080  0.6108 -0.0605
14479TIP3    H164928   2.407   5.729   1.594  1.2435  0.2196  0.9851
14479TIP3    H264929   2.450   5.870   1.562 -0.9325  0.5632 -0.6910
14480TIP3   OH264930   0.073   5.716   1.533  0.4929 -0.6396  0.4924
14480TIP3    H164931   0.072   5.750   1.444 -0.9971 -1.3116  0.2355
14480TIP3    H264932   0.003   5.651   1.536  2.1047 -2.4481  1.4652
14481TIP3   OH264933   5.387   2.095  13.555 -0.4095  0.1221 -0.7358
14481TIP3    H164934   5.299   2.089  13.517 -1.1246 -0.0413  0.8580
14481TIP3    H264935   5.389   2.181  13.596 -0.3088 -0.3661  0.3214
14482TIP3   OH264936   5.530   3.291  16.434  0.0585 -0.1670  0.2177
14482TIP3    H164937   5.480   3.215  16.463 -0.2715 -0.1462 -0.2822
14482TIP3    H264938   5.580   3.259  16.358 -1.5361  0.5777 -1.2217
14483TIP3   OH264939   3.616   6.063   2.855 -0.2858 -0.1643  0.5454
14483TIP3    H164940   3.622   6.049   2.760  1.7038 -0.3005  0.6463
14483TIP3    H264941   3.550   6.131   2.865 -0.1173  0.2598 -0.9852
14484TIP3   OH264942   4.751   3.928  15.617  0.0739 -0.6569  0.0887
14484TIP3    H164943   4.706   4.000  15.573  1.5857 -0.1398 -0.6776
14484TIP3    H264944   4.728   3.851  15.566  1.3939 -0.1415 -1.3820
14485TIP3   OH264945   4.576   0.918   0.067 -0.3229 -0.3674  0.0594
14485TIP3    H164946   4.530   0.837   0.090 -0.6997 -0.5572 -1.2782
14485TIP3    H264947   4.527   0.987   0.113  0.1197 -0.8983  1.3684
14486TIP3   OH264948   6.236   0.548  11.259 -0.1942 -0.0261 -0.0210
14486TIP3    H164949   6.204   0.464  11.292  0.7373 -0.6203 -0.5878
14486TIP3    H264950   6.316   0.564  11.307  0.3602 -0.1472 -0.8758
14487TIP3   OH264951   0.625   5.470   1.372 -0.2941  0.4854 -0.4311
14487TIP3    H164952   0.591   5.398   1.320  0.3045  0.2434 -0.4974
14487TIP3    H264953   0.623   5.546   1.313 -3.5567  1.2453  0.4468
14488TIP3   OH264954   2.601   6.702  11.282 -0.3056  0.3541 -0.6151
14488TIP3    H164955   2.607   6.759  11.205  1.4539  1.1256  0.0386
14488TIP3    H264956   2.619   6.760  11.356 -0.7163 -0.6274  0.2822
14489TIP3   OH264957   3.480   3.638  13.613  0.0021  0.1290  0.1921
14489TIP3    H164958   3.562   3.591  13.596  0.5119  1.4078 -1.0392
14489TIP3    H264959   3.506   3.716  13.661 -0.7006 -0.1919  1.1395
14490TIP3   OH264960   0.829   4.749  16.938 -0.1002  0.1997  0.1608
14490TIP3    H164961   0.813   4.834  16.977 -1.2028 -0.2304  0.6827
14490TIP3    H264962   0.924   4.736  16.946  0.1688  1.6009 -0.4371
14491TIP3   OH264963   4.596   3.982  15.856  0.3029  0.1020 -0.0674
14491TIP3    H164964   4.558   4.068  15.838 -1.4119 -0.7075 -0.5214
14491TIP3    H264965   4.672   3.977  15.799 -0.2840  0.8440 -0.9487
14492TIP3   OH264966   6.198   3.841  17.045  0.1503 -0.2129  0.2216
14492TIP3    H164967   6.236   3.775  17.102 -1.4076 -0.9402  0.4454
14492TIP3    H264968   6.141   3.892  17.102  0.1018  0.3183 -0.2913
14493TIP3   OH264969   0.569   0.071  11.689  0.3040  0.2295  0.0701
14493TIP3    H164970   0.525  -0.002  11.733  1.2043 -1.1183 -1.1811
14493TIP3    H264971   0.558   0.053  11.596  0.4247  1.7958 -0.2760
14494TIP3   OH264972   3.687   3.483  13.704 -0.1375 -0.0403 -0.5219
14494TIP3    H164973   3.730   3.483  13.789  0.6359 -0.5662 -0.9058
14494TIP3    H264974   3.756   3.460  13.641 -0.7487  0.0934 -1.2646
14495TIP3   OH264975   4.763   6.572  14.019  0.3895 -0.2556 -0.1571
14495TIP3    H164976   4.822   6.608  13.953 -0.6444  0.2138 -0.8496
14495TIP3    H264977   4.793   6.482  14.031  0.9616 -0.1627 -0.8320
14496TIP3   OH264978   0.313   5.838   1.425 -1.0081 -0.3493  0.2664
14496TIP3    H164979   0.241   5.853   1.486 -1.7952  0.9105 -0.9307
14496TIP3    H264980   0.294   5.753   1.386 -1.0399 -0.6960  1.0192
14497TIP3   OH264981   5.712   0.327   2.340 -0.6090  0.4252  0.2655
14497TIP3    H164982   5.668   0.390   2.397  1.2088  0.7672  1.3551
14497TIP3    H264983   5.711   0.245   2.389  0.2575  0.5257  0.4652
14498TIP3   OH264984   0.578   5.193  17.054  0.0199 -0.5590  0.5794
14498TIP3    H164985   0.597   5.283  17.030 -0.6555 -0.7289 -0.7128
14498TIP3    H264986   0.596   5.188  17.148  0.7953  0.7054  0.5140
14499TIP3   OH264987   0.719   5.210  16.204 -0.3810 -0.1165 -0.6853
14499TIP3    H164988   0.684   5.177  16.120  0.6233 -1.6554 -0.5367
14499TIP3    H264989   0.648   5.196  16.266  0.0628 -2.3163 -0.5861
14500TIP3   OH264990   2.889   2.233   4.336  0.8909  0.0853  0.1354
14500TIP3    H164991   2.870   2.319   4.299  0.4884  0.5270  1.2952
14500TIP3    H264992   2.961   2.199   4.283 -1.0014 -0.2632 -2.3899
14501TIP3   OH264993   1.686   1.714   1.014  0.2529 -0.4261 -0.0293
14501TIP3    H164994   1.673   1.660   0.936 -1.7182  0.7574 -0.5879
14501TIP3    H264995   1.603   1.709   1.061  0.3055  1.3981  0.3369
14502TIP3   OH264996   5.665   3.276   5.171  0.2739  0.5210  0.2554
14502TIP3    H164997   5.610   3.200   5.154  1.1002 -0.4398  1.6838
14502TIP3    H264998   5.755   3.244   5.157  0.5819  1.5200 -0.1319
14503TIP3   OH264999   4.119   2.110  12.748  0.0445  0.2220  0.1293
14503TIP3    H165000   4.046   2.171  12.751  0.6073  0.8807  1.9647
14503TIP3    H265001   4.104   2.051  12.821  0.8380 -0.2659 -0.0886
14504TIP3   OH265002   5.093   4.759  16.073 -0.1935  0.4250 -0.1092
14504TIP3    H165003   5.175   4.806  16.089  0.7955 -0.9289 -0.9389
14504TIP3    H265004   5.047   4.811  16.008  0.6041  0.5568 -0.5782
14505TIP3   OH265005   1.325   3.697   3.570 -0.0684  0.3855 -0.3055
14505TIP3    H165006   1.369   3.685   3.654  0.7160 -0.8064 -0.8591
14505TIP3    H265007   1.257   3.630   3.569 -1.7076  1.9501  0.3690
14506TIP3   OH265008   3.519   6.169   1.251 -0.7021  0.1116  0.3520
14506TIP3    H165009   3.602   6.143   1.213 -1.3003 -0.0325 -0.9154
14506TIP3    H265010   3.507   6.260   1.222 -0.0843  0.8423  2.1797
14507TIP3   OH265011   6.407   5.550   1.797 -0.2926 -0.0872  0.0025
14507TIP3    H165012   6.420   5.496   1.875  2.1502  0.6281  0.1785
14507TIP3    H265013   6.444   5.498   1.726  1.7826  1.1149  0.1222
14508TIP3   OH265014   3.852   2.441   2.654  0.2515  0.4152  0.4556
14508TIP3    H165015   3.867   2.535   2.661 -2.1875  0.8298  0.9781
14508TIP3    H265016   3.792   2.421   2.726 -0.5133 -1.2420 -0.5840
14509TIP3   OH265017   2.340   4.475  14.902 -0.2237 -0.6017 -0.4933
14509TIP3    H165018   2.329   4.393  14.950 -0.6280  0.2205  0.8838
14509TIP3    H265019   2.254   4.492  14.864  0.1354 -1.3307 -1.6979
14510TIP3   OH265020   6.328   5.576   4.018  0.1935 -0.2580  0.3910
14510TIP3    H165021   6.364   5.568   3.930  0.3641 -0.5959  0.4925
14510TIP3    H265022   6.249   5.522   4.017 -0.3559  0.5297  0.1506
14511TIP3   OH265023   6.663   0.922  13.638  0.5427  0.8524  0.5035
14511TIP3    H165024   6.755   0.928  13.612  0.7931  1.8930  1.5619
14511TIP3    H265025   6.651   0.991  13.703 -1.2396  1.4245 -0.3320
14512TIP3   OH265026   2.474   0.077  15.201 -0.5258 -0.5929 -0.4372
14512TIP3    H165027   2.467   0.141  15.130  1.4556  0.0903 -0.0844
14512TIP3    H265028   2.445  -0.005  15.162 -0.4666 -0.0272 -1.7252
14513TIP3   OH265029   1.565   6.459  16.433  0.0397 -0.0586 -0.2066
14513TIP3    H165030   1.558   6.410  16.514  1.1624  0.5443  0.2799
14513TIP3    H265031   1.494   6.524  16.438 -1.9818 -2.0300 -1.2215
14514TIP3   OH265032   4.143   5.145  17.018 -0.1208 -0.2437  0.2337
14514TIP3    H165033   4.222   5.190  16.990 -1.0658  0.9782 -0.6083
14514TIP3    H265034   4.090   5.212  17.060 -0.5358 -1.1410  1.2057
14515TIP3   OH265035   1.989   0.467   5.076 -0.2004  0.1383  0.3685
14515TIP3    H165036   1.937   0.525   5.132  0.8214  2.8431 -1.3112
14515TIP3    H265037   2.069   0.515   5.058  0.3948 -1.4774 -1.7668
14516TIP3   OH265038   0.403   6.600  11.384  0.6544  0.2863  0.0519
14516TIP3    H165039   0.339   6.557  11.440  1.0645 -0.7274 -0.2370
14516TIP3    H265040   0.352   6.663  11.333 -0.1545 -0.7041 -0.3784
14517TIP3   OH265041   6.028   5.794   5.515  0.1659  0.0202 -0.1429
14517TIP3    H165042   5.940   5.822   5.541  0.2583  1.1428 -0.9661
14517TIP3    H265043   6.086   5.843   5.573  0.2681 -0.1074 -0.1379
14518TIP3   OH265044   2.947   3.306  15.068  0.1779  0.0579 -0.7974
14518TIP3    H165045   2.957   3.297  15.162  1.1360  1.0479 -0.7722
14518TIP3    H265046   2.930   3.217  15.036 -1.8576 -0.0433  0.4629
14519TIP3   OH265047   4.676   3.613  12.472 -0.1755 -0.3888 -0.2231
14519TIP3    H165048   4.678   3.524  12.508 -2.4655 -1.1135 -1.6637
14519TIP3    H265049   4.736   3.610  12.397 -0.3071 -0.7529 -0.3164
14520TIP3   OH265050   4.944   0.470  12.440  0.0401 -0.3264  0.3200
14520TIP3    H165051   4.882   0.397  12.438  0.9484 -1.1334  0.4899
14520TIP3    H265052   5.009   0.447  12.374 -0.7610  1.3785 -1.1505
14521TIP3   OH265053   4.651   2.861  15.643  0.5618  0.6339 -0.2379
14521TIP3    H165054   4.574   2.878  15.697  1.8392  0.7641  1.6145
14521TIP3    H265055   4.650   2.766  15.629  0.3482  0.5658  0.2258
14522TIP3   OH265056   4.823   1.485   3.518 -0.9234 -0.2596 -0.2093
14522TIP3    H165057   4.898   1.475   3.459  0.7768  0.3796  1.7091
14522TIP3    H265058   4.830   1.411   3.578 -1.2241  0.3508  0.5989
14523TIP3   OH265059   4.117   6.321  11.747  0.4026  0.5382  0.1992
14523TIP3    H165060   4.038   6.311  11.694 -1.1644  0.6908  2.3643
14523TIP3    H265061   4.167   6.241  11.732 -1.2891 -0.6189  0.5257
14524TIP3   OH265062   3.620   0.193  12.566 -0.1401 -0.3899 -0.0960
14524TIP3    H165063   3.607   0.098  12.561  1.4986 -0.6349 -0.3735
14524TIP3    H265064   3.579   0.227  12.487  0.2269 -1.0162 -0.5679
14525TIP3   OH265065   3.800   2.392   1.532 -0.3976  0.4318 -0.5750
14525TIP3    H165066   3.739   2.459   1.561 -1.0115 -0.2122 -0.3367
14525TIP3    H265067   3.878   2.404   1.586 -0.7080  0.6168 -0.1681
14526TIP3   OH265068   4.562   6.311   3.732 -0.3168  0.0597  0.1087
14526TIP3    H165069   4.656   6.312   3.750 -0.0898  1.0763 -1.0364
14526TIP3    H265070   4.523   6.361   3.804  0.0604 -0.0420  0.3828
14527TIP3   OH265071   5.437   6.485   2.181 -0.0886 -0.1214  0.3014
14527TIP3    H165072   5.389   6.430   2.120 -0.7153  0.0377  0.6380
14527TIP3    H265073   5.518   6.507   2.135  0.1253 -1.2352  0.1307
14528TIP3   OH265074   1.213   2.003   5.509  0.4914  0.1099  0.6421
14528TIP3    H165075   1.264   1.922   5.502  1.6374  0.8365  0.2770
14528TIP3    H265076   1.251   2.049   5.584  0.5376  0.7617  0.2309
14529TIP3   OH265077   6.006   4.443   0.534 -0.0813 -0.5632  0.4311
14529TIP3    H165078   6.077   4.437   0.598  0.5532  0.2119 -0.1836
14529TIP3    H265079   5.958   4.523   0.558 -0.8917 -1.1913  0.9695
14530TIP3   OH265080   2.698   5.299   0.380 -0.3519  0.0835 -0.2720
14530TIP3    H165081   2.714   5.204   0.381  0.8393  0.2725 -0.7154
14530TIP3    H265082   2.783   5.338   0.360 -0.4645  1.3390  1.4814
14531TIP3   OH265083   1.158   6.422   2.840  0.5009 -0.4577 -0.1676
14531TIP3    H165084   1.208   6.463   2.769 -0.4139  2.3383  0.7046
14531TIP3    H265085   1.210   6.345   2.863  2.9887  0.8129 -1.1198
14532TIP3   OH265086   0.479   6.323  13.197 -0.1629 -0.1288 -0.4143
14532TIP3    H165087   0.517   6.239  13.223 -2.2081 -1.0531 -0.2306
14532TIP3    H265088   0.554   6.380  13.183  1.2394 -1.6090  0.7388
14533TIP3   OH265089   1.772   0.212  14.232 -0.2652  0.2365 -0.0284
14533TIP3    H165090   1.793   0.134  14.283  0.7677  0.1842 -0.5129
14533TIP3    H265091   1.850   0.268  14.240 -1.1170  1.3940  0.6106
14534TIP3   OH265092   5.926   2.799  14.736  0.5515  0.5575 -0.5585
14534TIP3    H165093   5.878   2.881  14.739  1.9678  1.4018  1.6474
14534TIP3    H265094   5.958   2.786  14.826  1.9823 -1.4084 -1.2640
14535TIP3   OH265095   0.535   4.516   1.744 -0.2976  0.7265  0.2612
14535TIP3    H165096   0.534   4.458   1.821  2.9082  1.0208  0.6543
14535TIP3    H265097   0.493   4.596   1.774 -1.1514  0.0450  0.9597
14536TIP3   OH265098   0.915   3.349   0.891  0.5195 -0.0912  0.5663
14536TIP3    H165099   0.934   3.355   0.797  1.2669  2.2315  0.7859
14536TIP3    H265100   0.964   3.422   0.930 -0.9842 -0.0511  2.5573
14537TIP3   OH265101   6.396   1.551  14.638  0.3354 -0.5725  0.2388
14537TIP3    H165102   6.464   1.525  14.700  0.4476 -3.1547 -0.8401
14537TIP3    H265103   6.439   1.551  14.553 -0.7120 -1.0038 -0.3134
14538TIP3   OH265104   6.636   6.592   5.611  0.4960 -0.5466 -0.3701
14538TIP3    H165105   6.565   6.655   5.597 -1.0343 -1.7852  1.2257
14538TIP3    H265106   6.598   6.507   5.588  1.8945 -1.1199 -0.6824
14539TIP3   OH265107   5.130   2.818  13.676 -0.2147 -0.1090  0.3790
14539TIP3    H165108   5.074   2.740  13.674 -1.4297  0.7552 -0.3301
14539TIP3    H265109   5.076   2.886  13.714 -0.3734  1.2594 -2.0949
14540TIP3   OH265110   6.125   6.662  10.329  0.3641 -0.1784 -1.1669
14540TIP3    H165111   6.145   6.690  10.239  0.7493  0.6240 -0.8426
14540TIP3    H265112   6.103   6.742  10.375  0.1886 -0.5820 -0.5308
14541TIP3   OH265113   4.889   1.939  12.244 -0.2977 -0.1709  0.1312
14541TIP3    H165114   4.849   1.859  12.210  0.8815 -0.5295 -0.4809
14541TIP3    H265115   4.817   1.988  12.284 -1.4882 -0.3989 -1.6436
14542TIP3   OH265116   3.880   0.073  12.541 -0.2714  0.6380  0.1659
14542TIP3    H165117   3.875   0.071  12.445  1.2200 -0.0420  0.0694
14542TIP3    H265118   3.789   0.087  12.569 -0.6505  1.5328 -1.3418
14543TIP3   OH265119   2.587   1.073  13.408 -0.0130  0.1510  0.4650
14543TIP3    H165120   2.569   1.149  13.464 -2.7685  0.1320 -0.2495
14543TIP3    H265121   2.618   1.110  13.326  1.8756  0.2755  1.1766
14544TIP3   OH265122   0.216   6.496  11.578  0.2805 -0.5329 -0.2655
14544TIP3    H165123   0.261   6.457  11.653  0.0899 -0.9390 -0.3601
14544TIP3    H265124   0.151   6.431  11.552  0.0279 -0.1933 -0.4912
14545TIP3   OH265125   5.615   6.754   3.604  0.4828 -0.0923 -0.0142
14545TIP3    H165126   5.676   6.824   3.629 -0.5024  0.3738  1.2056
14545TIP3    H265127   5.661   6.673   3.626  1.2184  0.1884 -0.4549
14546TIP3   OH265128   5.889   5.029   6.092  0.1250  0.1050 -0.1116
14546TIP3    H165129   5.889   4.935   6.078 -0.4530  0.0738  0.1076
14546TIP3    H265130   5.915   5.040   6.183  1.5268  0.2192 -0.5004
14547TIP3   OH265131   2.970   1.160  14.243 -0.1172 -0.2033  0.7795
14547TIP3    H165132   2.899   1.105  14.210  0.9863 -0.5658 -1.1793
14547TIP3    H265133   2.946   1.249  14.216  1.0102 -0.5544 -1.6480
14548TIP3   OH265134   1.968   1.735  12.491 -0.0716  0.5820 -0.6571
14548TIP3    H165135   1.903   1.743  12.421  0.9381  0.4019 -1.6408
14548TIP3    H265136   2.012   1.820  12.494 -0.8365  0.9707  0.5371
14549TIP3   OH265137   0.572   4.600  13.504  0.4042 -0.5457 -0.5251
14549TIP3    H165138   0.562   4.645  13.588  0.6645 -1.0946 -0.1979
14549TIP3    H265139   0.654   4.635  13.468  0.6938 -0.8658 -0.1943
14550TIP3   OH265140   2.771   2.578  15.205 -0.0296 -0.0693  0.5250
14550TIP3    H165141   2.749   2.643  15.139  0.4767 -0.7721 -0.3530
14550TIP3    H265142   2.805   2.629  15.279 -2.2749  0.8507  0.9899
14551TIP3   OH265143   5.975   3.056   5.824  0.4329 -0.1679  0.2720
14551TIP3    H165144   6.049   3.035   5.767 -0.2403 -0.8171 -0.3823
14551TIP3    H265145   5.964   2.977   5.878 -0.6533 -0.6300 -0.5986
14552TIP3   OH265146   0.299   4.371   2.775 -0.4373  0.2659  0.4647
14552TIP3    H165147   0.324   4.462   2.787  0.4066 -0.0929  1.6576
14552TIP3    H265148   0.383   4.324   2.765 -0.8691 -0.3459 -0.4514
14553TIP3   OH265149   6.102   0.431  13.712  0.1442 -0.6754  0.3601
14553TIP3    H165150   6.095   0.503  13.650  0.7212 -0.9312 -0.0077
14553TIP3    H265151   6.123   0.474  13.795 -0.2598 -0.3626  0.3057
14554TIP3   OH265152   5.764   0.805  16.197  0.2834  0.0762  0.0785
14554TIP3    H165153   5.829   0.874  16.182  0.5869 -0.0856  0.6060
14554TIP3    H265154   5.761   0.758  16.114 -0.1908  0.9347 -0.4047
14555TIP3   OH265155   2.170   3.302  15.219  0.1628 -0.0591 -0.3695
14555TIP3    H165156   2.193   3.395  15.218 -0.5533  0.1213 -0.8820
14555TIP3    H265157   2.244   3.260  15.264  1.0021  0.6180 -1.0609
14556TIP3   OH265158   2.651   6.476   1.283 -0.1234  0.2229  0.7214
14556TIP3    H165159   2.714   6.428   1.337 -1.2318 -0.1795  1.6883
14556TIP3    H265160   2.705   6.530   1.226  1.1130 -0.6792  1.0020
14557TIP3   OH265161   5.544   4.179  15.644  0.3172  0.0379 -0.0604
14557TIP3    H165162   5.537   4.175  15.740  1.1040 -2.1955 -0.0497
14557TIP3    H265163   5.468   4.230  15.617 -0.2592  0.1934  1.7082
14558TIP3   OH265164   2.968   4.690  12.283 -0.0937  0.0837 -0.0649
14558TIP3    H165165   2.884   4.731  12.305 -1.4005 -2.7930  0.8537
14558TIP3    H265166   3.016   4.688  12.365 -0.1966 -0.5037 -0.0153
14559TIP3   OH265167   5.194   0.220  17.116  0.2437 -0.3209 -0.5829
14559TIP3    H165168   5.222   0.172  17.038  1.2844  1.9631 -1.7163
14559TIP3    H265169   5.112   0.263  17.089  0.0831 -0.3160 -0.0841
14560TIP3   OH265170   0.847   0.165   5.137 -0.2776 -0.0772  0.1263
14560TIP3    H165171   0.805   0.156   5.052  1.6487 -1.1837 -0.7538
14560TIP3    H265172   0.810   0.094   5.189 -1.1093  0.3177  0.0970
14561TIP3   OH265173   0.550   6.700  14.923  0.2019  0.2594 -0.7610
14561TIP3    H165174   0.593   6.625  14.883 -0.1330 -0.3524 -0.0036
14561TIP3    H265175   0.457   6.678  14.921  0.2886 -0.9718  2.5357
14562TIP3   OH265176   3.405   3.958  14.400  0.9896  0.2323 -0.0518
14562TIP3    H165177   3.492   3.966  14.439  1.2451  1.4750 -0.8444
14562TIP3    H265178   3.417   3.979  14.308  0.9432 -5.2721 -1.7077
14563TIP3   OH265179   4.003   4.176  11.586 -0.5991  0.4850 -0.1644
14563TIP3    H165180   4.028   4.166  11.677  0.8311 -1.6104 -0.7049
14563TIP3    H265181   3.984   4.269  11.576 -1.1222  0.7184  2.3076
14564TIP3   OH265182   1.837   4.972   1.453  0.0214  0.2040  0.2484
14564TIP3    H165183   1.891   5.050   1.443 -0.0204  0.2160  0.1209
14564TIP3    H265184   1.751   4.998   1.420  0.4149 -0.3850 -1.3120
14565TIP3   OH265185   3.657   6.161  11.709  0.3150 -0.3014 -0.3106
14565TIP3    H165186   3.665   6.067  11.725 -4.0151 -0.7547  0.2620
14565TIP3    H265187   3.658   6.169  11.614 -2.0753 -1.3953 -0.4950
14566TIP3   OH265188   5.392   0.642  11.979  0.0809  0.4911 -0.1980
14566TIP3    H165189   5.462   0.581  12.002  1.1635  1.0815 -1.7298
14566TIP3    H265190   5.388   0.703  12.052 -0.5241 -0.9600  1.0232
14567TIP3   OH265191   2.218   4.809  12.139  0.1163  0.4441  0.2693
14567TIP3    H165192   2.176   4.761  12.210 -0.4488  2.0230  1.0590
14567TIP3    H265193   2.283   4.865  12.183 -0.1324  1.3340 -0.4549
14568TIP3   OH265194   1.084   6.385   1.685  0.4224 -0.2945  0.1199
14568TIP3    H165195   1.030   6.378   1.764 -0.6695 -1.3351 -0.6751
14568TIP3    H265196   1.022   6.402   1.615  1.3245  0.1280 -0.6043
14569TIP3   OH265197   2.822   5.657   1.885 -0.1769  0.4498  0.6908
14569TIP3    H165198   2.879   5.657   1.962  0.1928  2.2540  0.4842
14569TIP3    H265199   2.822   5.749   1.856 -0.9928 -0.0242 -0.9473
14570TIP3   OH265200   5.417   6.267  15.177 -0.4772  0.0376 -0.2023
14570TIP3    H165201   5.322   6.260  15.180 -0.4598 -0.7498  3.7053
14570TIP3    H265202   5.434   6.328  15.104 -3.9172  0.3319 -0.9388
14571TIP3   OH265203   5.455   4.642  12.549 -0.5245 -0.0801 -0.6265
14571TIP3    H165204   5.535   4.594  12.530 -0.1219  0.5064 -0.4511
14571TIP3    H265205   5.384   4.582  12.526 -0.0408 -0.1483 -2.0082
14572TIP3   OH265206   1.282   1.910   0.812 -0.2634 -0.4107 -0.4578
14572TIP3    H165207   1.190   1.903   0.786 -0.8918  2.7686  0.3885
14572TIP3    H265208   1.327   1.933   0.731 -0.4379 -0.7996 -0.6645
14573TIP3   OH265209   6.256   3.588  15.191 -0.6908  0.1342  0.0215
14573TIP3    H165210   6.299   3.657  15.242 -0.6349 -0.8178  1.2932
14573TIP3    H265211   6.188   3.553  15.249 -1.7551  0.1456 -1.1731
14574TIP3   OH265212   1.912   5.290  12.405 -0.5641  0.3597 -0.2364
14574TIP3    H165213   1.876   5.371  12.441 -0.5846  0.4533 -0.4641
14574TIP3    H265214   1.994   5.316  12.365 -0.3479  0.1854  0.0881
14575TIP3   OH265215   4.629   1.196  16.338 -0.0663 -0.1788  0.2764
14575TIP3    H165216   4.540   1.170  16.359  0.1501 -0.8602  0.3880
14575TIP3    H265217   4.684   1.129  16.380  0.5674  1.0675  1.4869
14576TIP3   OH265218   5.079   0.888   4.976 -0.5232 -0.4588  0.2524
14576TIP3    H165219   4.996   0.860   5.015 -1.3755  2.1325  0.5215
14576TIP3    H265220   5.142   0.887   5.048 -0.9787  0.0069  0.6620
14577TIP3   OH265221   3.091   2.384   0.803 -0.4360 -0.1106 -0.3648
14577TIP3    H165222   3.122   2.475   0.794  0.9138 -0.4576  0.4084
14577TIP3    H265223   3.055   2.362   0.718  0.6136  0.6661 -1.0393
14578TIP3   OH265224   5.345   0.698  15.464 -0.1493 -0.3272  0.7253
14578TIP3    H165225   5.387   0.783  15.470 -0.3971 -0.1181 -0.3145
14578TIP3    H265226   5.417   0.637  15.448 -0.0977 -0.1443  0.2474
14579TIP3   OH265227   4.276   4.340   5.336 -0.2230  0.4640  0.1703
14579TIP3    H165228   4.247   4.332   5.245  0.1600  1.1311 -0.0228
14579TIP3    H265229   4.207   4.391   5.379 -1.5730 -1.7845  0.8590
14580TIP3   OH265230   2.859   0.947  17.161  0.0554  0.1403 -0.5011
14580TIP3    H165231   2.807   1.018  17.124 -0.3095  0.5744  0.7615
14580TIP3    H265232   2.793   0.884  17.191  0.3710 -0.6587 -1.4441
14581TIP3   OH265233   4.514   1.716  14.031  1.2419 -0.5625  0.2101
14581TIP3    H165234   4.464   1.634  14.032  1.6401 -0.8083  0.8526
14581TIP3    H265235   4.458   1.778  13.984 -0.5467 -0.3098  2.4411
14582TIP3   OH265236   4.390   3.859   3.948  0.0173 -0.0320 -0.3426
14582TIP3    H165237   4.323   3.865   4.017 -0.4833 -2.7624 -0.4495
14582TIP3    H265238   4.473   3.874   3.993 -0.4678  0.4418  0.4074
14583TIP3   OH265239   5.282   1.369  13.343 -0.2291 -0.1492  0.0801
14583TIP3    H165240   5.190   1.383  13.366 -0.3322  1.4037 -1.1491
14583TIP3    H265241   5.297   1.425  13.266  1.9578  0.2561  0.7339
14584TIP3   OH265242   4.260   1.187  10.544  0.2020  0.1948 -0.5927
14584TIP3    H165243   4.166   1.199  10.550  0.1141  0.1372 -1.6954
14584TIP3    H265244   4.297   1.259  10.596 -0.4415 -0.9516  1.5605
14585TIP3   OH265245   0.607   4.071   1.071  0.4980  0.1208  0.3002
14585TIP3    H165246   0.598   4.100   1.162 -1.4504  1.1987 -0.1829
14585TIP3    H265247   0.525   4.026   1.052 -0.1958  2.0430 -1.6240
14586TIP3   OH265248   3.754   3.438   5.368  0.0375  0.0244 -0.1260
14586TIP3    H165249   3.691   3.421   5.299 -0.9472  0.2100  0.6974
14586TIP3    H265250   3.749   3.533   5.383 -0.3324 -0.1078  0.6957
14587TIP3   OH265251   6.688   2.480   1.593  0.0301  0.2844 -0.3142
14587TIP3    H165252   6.632   2.404   1.609  0.1390 -0.2682 -2.2539
14587TIP3    H265253   6.697   2.483   1.498  3.0197  0.5638 -0.0999
14588TIP3   OH265254   3.580   5.864  15.789  0.2306  0.1294  0.2799
14588TIP3    H165255   3.636   5.930  15.828 -2.3171  2.0351  1.0102
14588TIP3    H265256   3.628   5.833  15.712  1.8265  2.3739  0.2948
14589TIP3   OH265257   0.306   6.678   4.163 -0.1859  0.3866  0.1499
14589TIP3    H165258   0.339   6.653   4.077  1.8726  0.4198  0.8740
14589TIP3    H265259   0.312   6.773   4.164  1.7898  0.3088  1.0014
14590TIP3   OH265260   2.692   6.205  11.784 -0.2380  0.4886  0.8947
14590TIP3    H165261   2.604   6.193  11.820 -0.0901  2.1163  1.8691
14590TIP3    H265262   2.745   6.236  11.858  1.1713 -0.3971  0.3171
14591TIP3   OH265263   3.554   1.651  14.895  0.1648 -0.3442 -0.4386
14591TIP3    H165264   3.481   1.660  14.834 -1.1499 -1.1730  0.9282
14591TIP3    H265265   3.518   1.601  14.969  1.7630  0.3302  0.8809
14592TIP3   OH265266   0.295   3.766  13.052  0.5583 -0.2740  0.2668
14592TIP3    H165267   0.251   3.685  13.077  1.2338 -1.1524 -1.2707
14592TIP3    H265268   0.238   3.836  13.086 -0.0768 -1.3669  1.5353
14593TIP3   OH265269   4.722   5.750  16.356 -0.1532 -0.2243  0.4536
14593TIP3    H165270   4.645   5.764  16.300 -0.8766 -0.1047  1.4652
14593TIP3    H265271   4.750   5.838  16.381 -0.0393 -0.2951  0.5720
14594TIP3   OH265272   3.153   0.940  11.381  0.0952 -0.2816  0.1864
14594TIP3    H165273   3.103   0.925  11.300 -1.7945  1.9120  0.8320
14594TIP3    H265274   3.099   0.901  11.450  0.2369  0.4056  0.6957
14595TIP3   OH265275   3.910   3.016  12.394  0.3453  0.1014 -0.0814
14595TIP3    H165276   3.909   2.982  12.304  1.6828 -0.1781 -0.0122
14595TIP3    H265277   4.003   3.033  12.412  0.2077 -0.6323  1.5373
14596TIP3   OH265278   2.353   4.077  13.708  0.1837 -0.2193 -0.3370
14596TIP3    H165279   2.312   4.140  13.768  1.2433  1.4373 -1.2937
14596TIP3    H265280   2.282   4.050  13.650 -0.0996  0.7760 -0.4686
14597TIP3   OH265281   0.075   6.429  12.662 -0.2791 -0.0020  0.8202
14597TIP3    H165282   0.009   6.369  12.696  0.6342 -1.9007 -0.5816
14597TIP3    H265283   0.137   6.373  12.616  0.4534  2.0542 -0.8671
14598TIP3   OH265284   3.814   4.233   0.109  0.0891 -0.2074 -0.2171
14598TIP3    H165285   3.803   4.321   0.145 -0.5377  1.2843 -3.6380
14598TIP3    H265286   3.731   4.189   0.126  0.2677 -0.0380  1.1864
14599TIP3   OH265287   5.123   3.148   0.930  0.5929 -0.5273 -0.3205
14599TIP3    H165288   5.039   3.150   0.976  0.6901  0.4568 -0.1803
14599TIP3    H265289   5.106   3.190   0.846  1.1352  0.4502  0.0468
14600TIP3   OH265290   3.137   1.488   2.928  0.5323 -0.2990  0.8139
14600TIP3    H165291   3.136   1.560   2.991 -0.4491 -0.0044  0.4860
14600TIP3    H265292   3.082   1.518   2.856 -0.6069 -1.7053  1.0477
14601TIP3   OH265293   2.234   3.787   1.399 -0.3232 -0.2015 -0.3258
14601TIP3    H165294   2.233   3.825   1.311  0.8365 -0.8150 -0.6228
14601TIP3    H265295   2.147   3.748   1.410 -0.1552 -0.9789 -1.5934
14602TIP3   OH265296   0.059   2.261   5.457 -0.4583  0.2982 -0.2557
14602TIP3    H165297  -0.029   2.301   5.455 -0.8262 -0.4034  0.8786
14602TIP3    H265298   0.079   2.253   5.550  0.7280  0.2331 -0.5031
14603TIP3   OH265299   4.225   6.749  14.600  0.2192  0.4992 -0.1993
14603TIP3    H165300   4.247   6.828  14.550  0.8311  1.1140  0.9857
14603TIP3    H265301   4.134   6.762  14.626 -0.2576 -0.0429 -1.5034
14604TIP3   OH265302   3.100   1.785   0.897  0.4238 -0.1970 -0.0030
14604TIP3    H165303   3.035   1.779   0.967  1.0887 -0.0736  0.6441
14604TIP3    H265304   3.055   1.831   0.826  0.0664  0.6690  0.7649
14605TIP3   OH265305   1.069   1.168   3.994  0.0050 -0.3887  0.9546
14605TIP3    H165306   1.078   1.208   4.081  1.0501  0.1702  0.6104
14605TIP3    H265307   1.002   1.101   4.005  0.2646 -0.4638  2.2426
14606TIP3   OH265308   4.191   5.588  11.687  0.5640 -0.5397  0.0433
14606TIP3    H165309   4.280   5.619  11.668  2.1390 -2.8086  2.9465
14606TIP3    H265310   4.178   5.515  11.626  0.8250 -0.4148 -0.1639
14607TIP3   OH265311   5.829   2.117  15.070  0.1797  0.3045 -0.5665
14607TIP3    H165312   5.823   2.158  14.984  1.1858 -1.2169 -1.4007
14607TIP3    H265313   5.753   2.151  15.118 -0.3663  1.2224 -2.0154
14608TIP3   OH265314   6.250   0.570   5.782 -0.4311 -0.3887  0.6674
14608TIP3    H165315   6.324   0.596   5.727 -0.3138  0.9954  1.4429
14608TIP3    H265316   6.173   0.605   5.738 -0.3841  0.2796  1.1029
14609TIP3   OH265317   0.639   5.222  15.184 -0.7023  0.2500 -0.5125
14609TIP3    H165318   0.604   5.134  15.172 -0.9346  0.3533 -0.5912
14609TIP3    H265319   0.564   5.275  15.211 -0.3916  0.2461  0.3737
14610TIP3   OH265320   1.689   4.664   4.585  0.1939 -0.7917 -0.0744
14610TIP3    H165321   1.689   4.576   4.548  1.8093 -1.9537  2.4463
14610TIP3    H265322   1.771   4.670   4.634  0.4045  2.3535 -0.5747
14611TIP3   OH265323   2.140   1.232   0.883  0.4699  0.0790 -0.3437
14611TIP3    H165324   2.111   1.323   0.877  0.9601  0.3647  1.2064
14611TIP3    H265325   2.223   1.230   0.835  0.6653  0.5507 -0.0289
14612TIP3   OH265326   2.377   2.883  16.134 -0.4756 -0.1260 -0.1909
14612TIP3    H165327   2.379   2.970  16.092  0.7292 -0.3225 -0.5812
14612TIP3    H265328   2.433   2.829  16.078 -2.7317 -1.6980 -1.0648
14613TIP3   OH265329   4.903   6.322   4.901 -0.2110  0.0595 -0.1121
14613TIP3    H165330   4.937   6.240   4.865  2.7925  0.4099  1.6126
14613TIP3    H265331   4.853   6.295   4.978 -1.8214 -0.2832 -1.2237
14614TIP3   OH265332   2.497   4.258  12.892  0.1824  0.8120  0.1429
14614TIP3    H165333   2.434   4.191  12.868 -0.6543  1.5421  0.2281
14614TIP3    H265334   2.464   4.338  12.850  0.0715  1.5727  1.6125
14615TIP3   OH265335   2.605   4.768  13.911  0.3765 -0.7293  0.3974
14615TIP3    H165336   2.524   4.817  13.920  0.4111 -0.3775 -1.0301
14615TIP3    H265337   2.672   4.826  13.947  0.4502  0.4202 -1.4750
14616TIP3   OH265338   1.260   1.488  14.259 -0.0007 -0.1575  0.4766
14616TIP3    H165339   1.329   1.513  14.320 -1.0670 -0.6566  1.9258
14616TIP3    H265340   1.295   1.514  14.173  0.6586  2.5625  1.4424
14617TIP3   OH265341   4.063   4.634   0.926  0.6803  0.0462  0.5414
14617TIP3    H165342   4.111   4.602   1.002 -0.7652 -0.0486  1.4321
14617TIP3    H265343   3.972   4.614   0.943  0.1115  1.5570 -0.4331
14618TIP3   OH265344   2.188   2.068  11.733  0.7148  0.1709 -0.3852
14618TIP3    H165345   2.117   2.090  11.672 -0.6828  0.0604  1.1295
14618TIP3    H265346   2.168   2.119  11.812  2.5386  0.3983 -0.0251
14619TIP3   OH265347   3.187   0.466   1.027 -0.0122  0.0883  0.0609
14619TIP3    H165348   3.215   0.527   0.959 -0.0105 -0.6315 -0.5967
14619TIP3    H265349   3.269   0.432   1.063 -0.0219 -0.0494 -0.0490
14620TIP3   OH265350   3.990   5.511   4.116 -0.5850 -0.8825  0.0286
14620TIP3    H165351   3.907   5.469   4.097  0.1481 -2.1696 -0.4863
14620TIP3    H265352   4.042   5.499   4.036  0.9775 -2.3717  1.1775
14621TIP3   OH265353   3.874   2.776   2.236 -0.1929  0.4238  0.0781
14621TIP3    H165354   3.802   2.828   2.271 -0.8007 -0.8055  0.7354
14621TIP3    H265355   3.913   2.831   2.168 -0.8865  1.6599  0.6545
14622TIP3   OH265356   3.096   4.039   5.509  0.3944 -0.1340  0.3932
14622TIP3    H165357   3.112   4.057   5.602 -1.2924 -0.5219  0.7951
14622TIP3    H265358   3.182   4.020   5.473  1.0159 -0.5017  1.9947
14623TIP3   OH265359   5.403   5.204   1.274  0.3165 -0.7183  0.7719
14623TIP3    H165360   5.421   5.272   1.209  2.2596 -1.5294  0.3873
14623TIP3    H265361   5.462   5.132   1.251  0.2307 -1.4928  2.7290
14624TIP3   OH265362   2.192   6.813   4.961 -0.2749 -0.1057 -0.1978
14624TIP3    H165363   2.195   6.846   5.051  0.3247 -0.0409 -0.2405
14624TIP3    H265364   2.223   6.886   4.907 -0.5406 -0.1759 -0.4488
14625TIP3   OH265365   4.795   4.309   5.926  0.3748 -0.0944  0.2256
14625TIP3    H165366   4.703   4.281   5.930  0.2044  0.3760 -0.4108
14625TIP3    H265367   4.837   4.262   5.999 -0.1766 -1.0250 -0.0372
14626TIP3   OH265368   1.481   6.409  16.710  0.1150  0.0552 -0.3229
14626TIP3    H165369   1.422   6.425  16.784  1.8969 -0.6605  1.3452
14626TIP3    H265370   1.524   6.493  16.695 -0.2988  0.2193 -0.6044
14627TIP3   OH265371   4.698   4.454   3.594  0.7139  0.1267  0.4116
14627TIP3    H165372   4.772   4.408   3.633 -0.0286 -1.2892  0.1982
14627TIP3    H265373   4.630   4.388   3.586 -0.0379  1.0148 -0.8948
14628TIP3   OH265374   6.477   3.446   0.685 -0.1800 -0.6578  0.4573
14628TIP3    H165375   6.413   3.510   0.655 -1.1434 -1.1002  1.5194
14628TIP3    H265376   6.514   3.484   0.764  0.9198 -0.3969 -0.1529
14629TIP3   OH265377   6.460   2.959  11.560  0.2804 -0.2628 -0.5364
14629TIP3    H165378   6.416   2.919  11.635  0.1614 -1.5018 -1.2383
14629TIP3    H265379   6.547   2.983  11.593  0.9627 -2.5689 -0.4467
14630TIP3   OH265380   4.069   1.075   5.648 -0.2584 -0.2169  0.0356
14630TIP3    H165381   4.067   0.987   5.684 -2.7202  0.3459  1.5017
14630TIP3    H265382   3.983   1.087   5.608  0.9563  0.6308 -2.5598
14631TIP3   OH265383   5.357   4.600  11.565 -0.0386 -0.4325 -0.2939
14631TIP3    H165384   5.359   4.559  11.479 -0.5842  0.0215 -0.5295
14631TIP3    H265385   5.291   4.551  11.614 -0.3559 -0.1418 -0.4238
14632TIP3   OH265386   5.633   0.778  15.048 -0.3719  0.4654  0.0802
14632TIP3    H165387   5.540   0.759  15.044 -0.2885 -0.5456  1.9648
14632TIP3    H265388   5.641   0.846  15.114  0.1199  1.4860 -1.0054
14633TIP3   OH265389   3.285   0.321  14.667 -0.5318 -0.0079 -0.3751
14633TIP3    H165390   3.333   0.306  14.585  0.3354  2.0031 -0.2768
14633TIP3    H265391   3.309   0.409  14.693 -3.1659  0.5317  0.4875
14634TIP3   OH265392   3.544   5.826  14.694  0.2097 -0.2406  0.1196
14634TIP3    H165393   3.484   5.753  14.710 -1.0006  0.7331  0.1762
14634TIP3    H265394   3.562   5.861  14.782 -0.8887  0.8036 -0.0512
14635TIP3   OH265395   3.554   4.047  16.757 -0.2845  0.5787 -0.0492
14635TIP3    H165396   3.593   3.969  16.717  1.5630  0.8562  1.1055
14635TIP3    H265397   3.498   4.012  16.827 -0.0209  0.2538  0.0055
14636TIP3   OH265398   4.648   2.721   5.971 -0.0593  0.1248  0.0785
14636TIP3    H165399   4.666   2.693   5.881 -1.3272 -0.2367 -0.0824
14636TIP3    H265400   4.613   2.810   5.961  1.4317  0.7832  0.3795
14637TIP3   OH265401   4.656   0.976   3.560 -0.2434  0.0466  0.0045
14637TIP3    H165402   4.719   0.968   3.489 -0.8395  1.6104 -0.7425
14637TIP3    H265403   4.703   0.944   3.637  1.2079  0.5068 -0.6512
14638TIP3   OH265404   4.445   1.716   1.812  0.0455  0.2725 -0.5079
14638TIP3    H165405   4.478   1.772   1.742 -1.8353  0.0044 -1.6761
14638TIP3    H265406   4.505   1.732   1.886  0.0467  3.2365 -1.0291
14639TIP3   OH265407   1.790   4.661   0.949  0.3014 -0.1715 -0.5567
14639TIP3    H165408   1.821   4.644   0.861  0.8702  0.4049 -0.4787
14639TIP3    H265409   1.750   4.748   0.944 -1.5749 -1.0016 -0.7131
14640TIP3   OH265410   3.796   6.366   4.013 -0.7579  0.6028 -0.0053
14640TIP3    H165411   3.888   6.391   4.006 -0.3834 -0.4326  1.0213
14640TIP3    H265412   3.769   6.352   3.922  0.4688 -0.3326 -0.2543
14641TIP3   OH265413   2.290   4.238   4.092  0.2273  0.5012 -0.0036
14641TIP3    H165414   2.253   4.154   4.065  0.4146  0.3487  0.2069
14641TIP3    H265415   2.225   4.303   4.066  0.9597  0.5083 -2.0632
14642TIP3   OH265416   6.819   3.363  13.095  0.5861 -0.4677  0.2018
14642TIP3    H165417   6.748   3.299  13.096  0.2619 -0.1196  1.4060
14642TIP3    H265418   6.891   3.318  13.051 -0.4036 -0.7746 -1.1542
14643TIP3   OH265419   2.276   5.234  12.495  0.0952 -0.1346 -0.0562
14643TIP3    H165420   2.352   5.287  12.473  0.1378 -0.8322 -1.6956
14643TIP3    H265421   2.220   5.294  12.545  1.2681  0.6736  0.3358
14644TIP3   OH265422   3.115   2.469  12.755 -0.4548  0.4225 -0.3338
14644TIP3    H165423   3.206   2.496  12.752 -0.2026 -0.4404 -0.6886
14644TIP3    H265424   3.092   2.449  12.664 -1.3055  1.5928 -0.4014
14645TIP3   OH265425   2.896   1.126  13.724 -0.0042 -0.4175 -0.4798
14645TIP3    H165426   2.885   1.170  13.640 -0.6680 -0.2735 -0.3202
14645TIP3    H265427   2.818   1.148  13.774  0.8531  0.3465  0.5665
14646TIP3   OH265428   5.180   3.906   5.291  0.3445  0.3276 -0.0265
14646TIP3    H165429   5.272   3.905   5.265  0.2964  0.9237 -0.2390
14646TIP3    H265430   5.181   3.940   5.381  0.6317 -2.9461  1.3526
14647TIP3   OH265431   0.056   5.861   2.789  0.1028 -0.5327  0.8655
14647TIP3    H165432   0.098   5.936   2.831  0.7342  0.1476 -0.9139
14647TIP3    H265433   0.128   5.811   2.751 -0.4774 -0.8407  0.1501
14648TIP3   OH265434   0.824   1.928   6.340  0.4116  0.0385 -0.2286
14648TIP3    H165435   0.795   1.919   6.249 -0.8204 -0.4788  0.1914
14648TIP3    H265436   0.896   1.865   6.348  1.1769  0.7707 -1.0813
14649TIP3   OH265437   1.734   3.010   5.145  0.1668 -0.0153  0.0685
14649TIP3    H165438   1.805   2.991   5.206  1.3830 -0.4904 -1.4340
14649TIP3    H265439   1.775   3.063   5.076 -1.1290  0.4009 -0.4113
14650TIP3   OH265440   4.506   0.552   1.731  0.0132 -0.0561 -0.2180
14650TIP3    H165441   4.505   0.626   1.791  1.8729 -0.2979  0.1674
14650TIP3    H265442   4.507   0.475   1.788  2.0551 -0.2854 -0.4876
14651TIP3   OH265443   4.030   4.224   2.901 -0.2969 -0.1996  0.2806
14651TIP3    H165444   4.050   4.167   2.827  1.9885 -0.8237  1.3118
14651TIP3    H265445   4.067   4.308   2.878 -2.4145  0.5720 -0.6075
14652TIP3   OH265446   5.097   3.092  10.533 -0.5217  0.3502 -0.3764
14652TIP3    H165447   5.178   3.079  10.484  0.1516 -0.0647  0.8048
14652TIP3    H265448   5.057   3.005  10.537 -1.7069  0.7686 -2.0460
14653TIP3   OH265449   1.495   4.548   3.760 -0.0105 -0.0827 -0.4698
14653TIP3    H165450   1.476   4.454   3.759  1.9543 -0.5133 -1.8974
14653TIP3    H265451   1.517   4.570   3.670 -0.7518  1.8588 -0.2336
14654TIP3   OH265452   5.056   2.225  11.292  0.5075  0.0993 -0.4220
14654TIP3    H165453   5.118   2.191  11.227  0.7880  0.0949 -0.1567
14654TIP3    H265454   5.007   2.292  11.244 -1.0450 -1.6362 -1.3538
14655TIP3   OH265455   0.276   1.629   1.262  0.0259  0.1444 -0.7000
14655TIP3    H165456   0.331   1.685   1.317 -0.4291  1.7849 -1.8420
14655TIP3    H265457   0.186   1.649   1.290 -0.1188 -0.7090 -0.5095
14656TIP3   OH265458   0.202   4.334  10.975 -0.4078 -0.5660  0.2360
14656TIP3    H165459   0.147   4.324  10.897  1.2980  0.4512 -1.1850
14656TIP3    H265460   0.277   4.276  10.958  0.2111  0.0285  0.8834
14657TIP3   OH265461   4.860   5.020   4.963  0.6694 -0.1562 -0.4729
14657TIP3    H165462   4.944   5.055   4.994  0.9111 -0.1895 -1.0698
14657TIP3    H265463   4.810   5.003   5.043  1.2701 -0.2332 -0.1045
14658TIP3   OH265464   0.487   4.940   3.309  0.6553 -0.3454  0.7571
14658TIP3    H165465   0.472   4.861   3.257  0.7886 -0.0562  0.2686
14658TIP3    H265466   0.554   4.915   3.372 -0.1719 -0.9715  1.4151
14659TIP3   OH265467   0.924   2.812   3.798 -0.4599 -0.1191 -0.6133
14659TIP3    H165468   0.850   2.868   3.774 -0.4640 -0.4465 -1.4178
14659TIP3    H265469   0.887   2.748   3.859 -0.5149  0.5668  0.0930
14660TIP3   OH265470   0.891   5.478   2.676 -0.4066 -0.6990 -0.0677
14660TIP3    H165471   0.809   5.484   2.627  0.2910 -0.3057 -1.2293
14660TIP3    H265472   0.885   5.547   2.742  0.1848  1.3264 -2.0387
14661TIP3   OH265473   1.947   4.109  13.373 -0.6407 -0.5514 -1.0006
14661TIP3    H165474   2.018   4.141  13.317 -0.6248 -0.6733 -1.0498
14661TIP3    H265475   1.887   4.184  13.381 -0.8419 -0.6550 -1.5024
14662TIP3   OH265476   2.446   5.538   3.045  0.3999 -0.1628  0.7560
14662TIP3    H165477   2.500   5.533   3.124  1.1094 -1.6391  0.2150
14662TIP3    H265478   2.413   5.449   3.033  0.3083  0.0324 -0.5976
14663TIP3   OH265479   5.656   3.861   3.864  0.4733  0.2088 -0.8106
14663TIP3    H165480   5.587   3.801   3.837 -0.0155  0.3161  0.1519
14663TIP3    H265481   5.648   3.936   3.806  2.2030 -1.3145 -3.2325
14664TIP3   OH265482   4.488   6.672  14.318 -0.1530  0.2720  0.0339
14664TIP3    H165483   4.527   6.600  14.367  1.4586  1.3886  0.4752
14664TIP3    H265484   4.487   6.642  14.227  0.7865 -0.1810  0.1674
14665TIP3   OH265485   1.021   1.158  14.826  0.5693 -0.2581 -0.0050
14665TIP3    H165486   0.951   1.109  14.869 -0.4381  0.3800 -0.8804
14665TIP3    H265487   1.061   1.210  14.897  0.6614 -1.1737  0.6356
14666TIP3   OH265488   3.152   4.024   4.852 -0.1711  0.3311  0.3840
14666TIP3    H165489   3.232   3.984   4.817 -0.0730  0.2289  0.7293
14666TIP3    H265490   3.153   4.113   4.816  0.4718  0.5689  0.9619
14667TIP3   OH265491   6.299   2.209   0.804  0.3644  0.6937 -0.3721
14667TIP3    H165492   6.246   2.262   0.745  0.2619 -0.0386 -0.9527
14667TIP3    H265493   6.335   2.140   0.749  1.6338  0.9546  0.0791
14668TIP3   OH265494   5.959   4.018  14.303 -0.6603  0.1760  0.2638
14668TIP3    H165495   5.908   3.961  14.360 -1.0547  0.5936  0.3322
14668TIP3    H265496   5.930   4.107  14.324  1.1779  0.5797  1.4012
14669TIP3   OH265497   2.686   5.773   5.712 -0.1429  0.1702  0.1837
14669TIP3    H165498   2.764   5.792   5.765  0.3743 -0.8511 -0.1905
14669TIP3    H265499   2.706   5.690   5.669 -1.0011  0.4410 -0.7730
14670TIP3   OH265500   4.266   3.742  16.406  0.0353  0.6215  0.4185
14670TIP3    H165501   4.191   3.801  16.411 -0.9631 -0.6305  0.7505
14670TIP3    H265502   4.228   3.655  16.414  1.4726 -0.0744 -0.0676
14671TIP3   OH265503   2.534   0.394  11.615 -0.5774  0.1443 -0.1442
14671TIP3    H165504   2.521   0.299  11.616 -0.3322  0.0410 -2.3577
14671TIP3    H265505   2.629   0.405  11.614 -0.5787  0.4811  1.2072
14672TIP3   OH265506   0.553   3.221  12.661  0.2531  0.0605  0.2617
14672TIP3    H165507   0.632   3.226  12.608 -0.1738  1.0300 -0.3166
14672TIP3    H265508   0.583   3.193  12.747  1.0027 -1.1936 -0.3794
14673TIP3   OH265509   6.187   2.107  12.899 -0.2143 -0.0263  0.7519
14673TIP3    H165510   6.281   2.102  12.914 -0.3184 -1.1541  1.0749
14673TIP3    H265511   6.166   2.199  12.913  0.8946  0.3130  0.3259
14674TIP3   OH265512   0.880   6.199   0.273  0.1110  0.2353  0.9524
14674TIP3    H165513   0.933   6.257   0.328 -0.7896  0.7963  1.2373
14674TIP3    H265514   0.838   6.257   0.210 -1.0318 -0.0648  1.4213
14675TIP3   OH265515   1.009   4.630   0.502  0.1304  0.1019  0.3193
14675TIP3    H165516   0.991   4.721   0.525 -1.1895  0.0997 -0.6029
14675TIP3    H265517   1.077   4.635   0.435  0.2574  0.3820  0.4685
14676TIP3   OH265518   5.823   0.110   3.557 -0.1046 -0.2427 -0.0164
14676TIP3    H165519   5.913   0.111   3.522  1.0602 -1.4090  2.6218
14676TIP3    H265520   5.796   0.201   3.556  0.4258 -0.0523 -2.4067
14677TIP3   OH265521   1.606   6.522   0.683 -0.1062 -0.3002  0.1090
14677TIP3    H165522   1.518   6.484   0.693  0.4141 -1.5197  0.2896
14677TIP3    H265523   1.601   6.606   0.729 -1.2103 -0.2885  0.0006
14678TIP3   OH265524   6.622   2.812   2.642 -0.4251  0.0262 -0.1427
14678TIP3    H165525   6.609   2.883   2.578 -0.5242 -0.4368 -0.6410
14678TIP3    H265526   6.650   2.857   2.722 -3.7984  1.0069  0.6535
14679TIP3   OH265527   3.636   1.051  16.199  0.0832  0.6004 -0.4379
14679TIP3    H165528   3.687   1.018  16.273 -0.6408 -0.1283 -0.2577
14679TIP3    H265529   3.638   1.146  16.210  1.0297  0.5638 -0.1928
14680TIP3   OH265530   0.952   2.274   0.229  0.5451  0.0352  0.0907
14680TIP3    H165531   0.941   2.252   0.136 -1.3725 -0.0308  0.2889
14680TIP3    H265532   0.964   2.369   0.230  1.3974 -0.0614 -0.2668
14681TIP3   OH265533   2.306   6.151  12.932  0.4123  0.1570 -0.3024
14681TIP3    H165534   2.354   6.142  13.014  0.8990  1.4274 -0.4312
14681TIP3    H265535   2.312   6.065  12.891 -0.5628 -0.7558  1.3573
14682TIP3   OH265536   5.714   0.930   6.218 -0.0028 -0.1407 -0.4228
14682TIP3    H165537   5.786   0.980   6.257 -0.1068 -2.0962  2.6836
14682TIP3    H265538   5.639   0.951   6.273 -0.7691 -1.3168 -0.9882
14683TIP3   OH265539   4.042   0.807   2.461 -0.2948  0.0232 -0.1298
14683TIP3    H165540   4.043   0.724   2.508  2.4441  0.2557  0.3321
14683TIP3    H265541   4.051   0.874   2.529  1.5799  0.4598 -0.7514
14684TIP3   OH265542   3.491   5.006   5.754  0.2665  0.4484  0.5887
14684TIP3    H165543   3.501   4.937   5.689  1.8162  0.4826  0.7504
14684TIP3    H265544   3.453   4.962   5.830  3.1040 -0.7626  1.4234
14685TIP3   OH265545   3.810   2.703   1.320  0.7869  0.2618  0.8958
14685TIP3    H165546   3.811   2.754   1.240 -2.0582 -0.7331  0.1085
14685TIP3    H265547   3.813   2.612   1.290  1.3608 -0.1078  2.0199
14686TIP3   OH265548   5.469   5.033  12.296 -0.3267  0.0743  0.2886
14686TIP3    H165549   5.500   4.984  12.373  1.3133 -0.6995 -0.8038
14686TIP3    H265550   5.388   5.075  12.325  0.3023 -0.1049  2.4663
14687TIP3   OH265551   0.504   4.879   0.991  0.2298  0.1163  0.1543
14687TIP3    H165552   0.495   4.968   1.023 -0.5484 -0.3888  1.4067
14687TIP3    H265553   0.419   4.859   0.952  0.1958 -0.2719  0.4214
14688TIP3   OH265554   3.704   5.869   2.593  0.0233 -0.1722  0.2872
14688TIP3    H165555   3.789   5.849   2.553 -0.7223 -1.3581 -0.7850
14688TIP3    H265556   3.664   5.783   2.606 -1.5331  0.4122 -0.4436
14689TIP3   OH265557   2.455   5.964   3.860 -0.2705 -0.0855  0.0095
14689TIP3    H165558   2.429   5.874   3.843  0.4622 -0.1077 -1.0855
14689TIP3    H265559   2.537   5.956   3.909  0.1162 -0.0203 -0.6203
14690TIP3   OH265560   2.052   5.595   5.578  0.3267  0.1267  0.0002
14690TIP3    H165561   1.994   5.519   5.584 -1.6471  1.6061  0.6638
14690TIP3    H265562   2.096   5.585   5.494 -0.7460 -1.1383 -0.4522
14691TIP3   OH265563   4.752   1.368   5.412  0.1155 -0.2771 -0.1582
14691TIP3    H165564   4.662   1.342   5.394 -0.2332 -0.2750  1.4162
14691TIP3    H265565   4.753   1.463   5.401 -0.7880  0.0995  2.3269
14692TIP3   OH265566   4.518   1.577  13.777 -0.0048 -0.0008 -0.0346
14692TIP3    H165567   4.577   1.540  13.843 -1.3249  0.5624  1.5250
14692TIP3    H265568   4.431   1.554  13.807 -0.9927  4.2810  1.1619
14693TIP3   OH265569   0.280   3.004   4.830  0.2751 -0.1621 -0.2837
14693TIP3    H165570   0.264   3.087   4.785  1.7938 -0.4634 -1.4876
14693TIP3    H265571   0.282   3.027   4.923  1.2131  1.2841 -0.6213
14694TIP3   OH265572   0.719   0.881  13.932 -0.4136  0.6198 -0.2377
14694TIP3    H165573   0.802   0.926  13.949 -0.5615  1.3553 -1.3364
14694TIP3    H265574   0.738   0.789  13.945 -0.2202  0.9709  2.5568
14695TIP3   OH265575   5.027   2.652  12.579 -0.0492 -0.4012  0.0227
14695TIP3    H165576   4.937   2.676  12.556 -0.4888 -1.0992  0.9166
14695TIP3    H265577   5.026   2.646  12.675  0.9077 -0.5783  0.0305
14696TIP3   OH265578   0.359   2.406   1.243  0.0849 -0.3282 -0.2729
14696TIP3    H165579   0.390   2.383   1.155  0.9342 -0.0905 -0.0469
14696TIP3    H265580   0.438   2.403   1.297 -0.2533  0.5405  0.2809
14697TIP3   OH265581   2.176   0.064  12.857  0.2179 -0.7756 -0.3673
14697TIP3    H165582   2.142   0.056  12.946  2.2116  2.6462  0.9122
14697TIP3    H265583   2.119   0.129  12.815  1.5085  0.5077 -0.2081
14698TIP3   OH265584   2.647   6.137  14.438 -0.1335 -0.6285  0.6364
14698TIP3    H165585   2.687   6.223  14.428 -0.1388 -0.8156 -1.4453
14698TIP3    H265586   2.703   6.091  14.501  0.2329  0.6659  1.2785
14699TIP3   OH265587   3.792   5.961   5.178  0.6150 -0.4078 -0.1952
14699TIP3    H165588   3.732   6.035   5.168 -0.1129 -0.9763 -0.0653
14699TIP3    H265589   3.863   5.980   5.116  1.6920  1.5986  1.5142
14700TIP3   OH265590   1.491   4.781   1.217  0.6927 -0.0798 -0.0954
14700TIP3    H165591   1.548   4.749   1.287  0.6692  0.9459  0.4132
14700TIP3    H265592   1.427   4.837   1.261  0.5421  0.4064 -0.9032
14701TIP3   OH265593   2.188   1.133  10.642  0.0415  0.2904 -0.1709
14701TIP3    H165594   2.275   1.140  10.604  0.6430  0.9151  1.2578
14701TIP3    H265595   2.150   1.220  10.631  0.0917  0.3797  0.3224
14702TIP3   OH265596   3.476   3.273  16.297  0.6543  0.2141 -0.2535
14702TIP3    H165597   3.565   3.254  16.326  1.0068  0.6731 -0.9951
14702TIP3    H265598   3.419   3.226  16.358  1.4060 -0.0731  0.2279
14703TIP3   OH265599   4.956   6.819   2.171 -0.0040  0.0580 -0.1679
14703TIP3    H165600   4.916   6.849   2.252  0.7682  0.4072  0.0932
14703TIP3    H265601   4.953   6.895   2.113  2.9994  1.1433  0.8787
14704TIP3   OH265602   5.743   1.858   4.207 -0.0958 -0.8066  0.1675
14704TIP3    H165603   5.820   1.910   4.184 -0.3761 -0.7063 -0.5886
14704TIP3    H265604   5.762   1.822   4.293 -0.2107  1.1909  1.0894
14705TIP3   OH265605   1.693   4.410   4.026  0.1316 -0.0276 -0.4498
14705TIP3    H165606   1.723   4.319   4.021  2.1925  0.6461 -3.0066
14705TIP3    H265607   1.712   4.446   3.939 -0.4259  2.9039  0.5221
14706TIP3   OH265608   6.184   0.328   4.578 -0.1348 -0.0565 -0.3078
14706TIP3    H165609   6.241   0.372   4.515  0.2355  1.4125  0.9662
14706TIP3    H265610   6.235   0.326   4.659 -0.6004 -1.8669 -0.0119
14707TIP3   OH265611   5.776   1.873  14.974  0.2861  1.1073 -0.5062
14707TIP3    H165612   5.768   1.806  15.042 -2.0106  0.4206 -1.3414
14707TIP3    H265613   5.799   1.953  15.021 -0.4237  0.4852  0.9638
14708TIP3   OH265614   0.715   6.810  14.748 -0.0485 -0.0633  0.3367
14708TIP3    H165615   0.779   6.778  14.812 -0.8034 -0.8782  0.7026
14708TIP3    H265616   0.632   6.808  14.795 -0.3368  1.0459 -0.1177
14709TIP3   OH265617   2.859   6.340   1.408 -0.0428 -0.4289  0.1838
14709TIP3    H165618   2.894   6.255   1.433 -1.0344 -0.9294 -0.0618
14709TIP3    H265619   2.918   6.371   1.339  0.6344 -0.6620  0.6463
14710TIP3   OH265620   2.850   5.483   3.195  0.1455  0.1030 -0.3590
14710TIP3    H165621   2.919   5.475   3.128  1.8946 -1.7233  1.5259
14710TIP3    H265622   2.778   5.527   3.150  2.0986  1.0821 -2.7717
14711TIP3   OH265623   5.581   0.246   0.000  0.0289 -0.6180 -0.5587
14711TIP3    H165624   5.643   0.308   0.040 -0.6896 -0.0279 -0.3202
14711TIP3    H265625   5.632   0.201  -0.067  0.8391 -0.4823 -0.0518
14712TIP3   OH265626   5.914   0.787   1.413  0.8260  0.3939 -0.1958
14712TIP3    H165627   6.006   0.769   1.393  0.8933  2.3947 -2.0501
14712TIP3    H265628   5.868   0.765   1.332 -0.7484 -2.7938  1.4107
14713TIP3   OH265629   6.288   3.274   5.511  0.0147 -0.2056 -0.6016
14713TIP3    H165630   6.330   3.361   5.515  1.5507 -0.9139 -0.3999
14713TIP3    H265631   6.308   3.235   5.596 -0.9066 -0.6700 -0.5908
14714TIP3   OH265632   6.538   4.419   1.367 -0.2595 -0.0429  0.0292
14714TIP3    H165633   6.572   4.398   1.454 -0.7926 -1.1070 -0.0052
14714TIP3    H265634   6.469   4.484   1.384 -2.1977 -2.1670  0.7230
14715TIP3   OH265635   6.397   3.816  15.283 -0.4029 -0.1488 -0.4000
14715TIP3    H165636   6.458   3.886  15.260 -0.4418  0.2272  0.5815
14715TIP3    H265637   6.324   3.861  15.326 -0.7406 -0.7298 -0.3565
14716TIP3   OH265638   5.248   3.115  16.981 -0.5542 -0.0904 -0.3383
14716TIP3    H165639   5.315   3.182  16.993 -1.6428  1.0734 -0.5021
14716TIP3    H265640   5.293   3.043  16.938  0.7502  0.3478  0.2326
14717TIP3   OH265641   6.375   1.314  16.387 -0.4761  0.2084  0.3408
14717TIP3    H165642   6.377   1.380  16.318 -0.3877 -0.5273 -0.3787
14717TIP3    H265643   6.346   1.234  16.342  1.4341 -0.7593  0.7355
14718TIP3   OH265644   5.853   5.065  16.997 -0.3246 -0.9535  0.1522
14718TIP3    H165645   5.831   5.016  17.076  1.3240 -0.2481  1.0900
14718TIP3    H265646   5.917   5.010  16.952  0.3280 -0.4006  0.3936
14719TIP3   OH265647   4.169   2.523   5.763 -0.4089 -0.4289  0.1117
14719TIP3    H165648   4.216   2.440   5.755 -1.3962 -1.2122  1.8256
14719TIP3    H265649   4.229   2.580   5.810  0.5793  0.1444 -1.7385
14720TIP3   OH265650   2.863   4.149   3.583 -1.2709  0.2896 -0.3311
14720TIP3    H165651   2.796   4.082   3.594 -0.0615 -0.9890 -0.4188
14720TIP3    H265652   2.863   4.196   3.666 -1.7139 -0.2381 -0.0199
14721TIP3   OH265653   6.663   3.712  15.427 -0.0190  0.2493 -0.2181
14721TIP3    H165654   6.752   3.722  15.460  0.3271  0.9765 -1.2931
14721TIP3    H265655   6.617   3.661  15.494  1.3479 -0.6217  0.0918
14722TIP3   OH265656   0.145   5.120  15.710 -0.3080 -0.5639 -0.4205
14722TIP3    H165657   0.074   5.183  15.690  0.3932 -0.5152 -3.2327
14722TIP3    H265658   0.189   5.158  15.786 -2.7380 -0.1664  0.9191
14723TIP3   OH265659   0.619   5.474  10.971 -0.5266  0.2955  0.3190
14723TIP3    H165660   0.681   5.407  10.943 -0.8802  0.0669  0.0758
14723TIP3    H265661   0.672   5.538  11.017 -0.5090 -1.4101  2.8626
14724TIP3   OH265662   0.984   3.388  14.829 -0.0414  0.0136  0.2597
14724TIP3    H165663   0.917   3.332  14.789  0.7391  0.1514 -1.3493
14724TIP3    H265664   1.040   3.327  14.877  0.5674 -0.6124 -1.1512
14725TIP3   OH265665   4.716   0.364   1.994 -0.2533 -0.2141 -0.1260
14725TIP3    H165666   4.625   0.392   1.983 -0.3645 -0.4519  0.1581
14725TIP3    H265667   4.710   0.269   2.008  0.1040 -0.3590 -0.9322
14726TIP3   OH265668   1.716   5.374   6.127 -0.2955 -0.1339  0.1765
14726TIP3    H165669   1.690   5.466   6.131  0.8927  0.1794  1.4787
14726TIP3    H265670   1.750   5.354   6.214  0.3730 -1.5348 -0.3593
14727TIP3   OH265671   1.989   5.644   0.310  0.1953  0.0237 -0.3665
14727TIP3    H165672   2.079   5.669   0.332  0.3378 -0.0398 -0.8705
14727TIP3    H265673   1.998   5.564   0.259 -0.1063  0.3678 -0.9719
14728TIP3   OH265674   5.931   1.721  11.419  0.0136 -0.5175 -0.2227
14728TIP3    H165675   5.838   1.699  11.425 -0.8211  1.9734 -1.9649
14728TIP3    H265676   5.957   1.738  11.510 -1.3089 -0.9635  0.2729
14729TIP3   OH265677   2.674   1.981  11.484 -0.0953 -0.6726  0.0714
14729TIP3    H165678   2.597   1.998  11.538  1.1647  2.5696  1.1248
14729TIP3    H265679   2.726   1.919  11.536 -0.7643 -0.7836  0.6321
14730TIP3   OH265680   6.453   4.209  12.882  0.1397  1.0389  0.4375
14730TIP3    H165681   6.532   4.232  12.832  1.3180 -0.8845  1.2978
14730TIP3    H265682   6.465   4.117  12.904 -1.0975  1.3787  2.8655
14731TIP3   OH265683   3.989   1.751   5.113  0.3860  0.1272 -0.0168
14731TIP3    H165684   3.933   1.826   5.090 -0.4044 -0.9192 -1.7427
14731TIP3    H265685   3.939   1.675   5.083  2.3207 -0.9157 -0.7611
14732TIP3   OH265686   5.838   2.214   3.615  0.4145  0.0887 -0.5811
14732TIP3    H165687   5.932   2.195   3.604  0.2906 -0.0128 -1.6340
14732TIP3    H265688   5.813   2.170   3.696  1.1737 -0.2807 -0.5421
14733TIP3   OH265689   4.868   3.742   6.506  0.5127 -0.3703  0.1318
14733TIP3    H165690   4.865   3.747   6.602  0.0664 -0.2388  0.1132
14733TIP3    H265691   4.893   3.651   6.488  0.8067 -0.3386  0.3753
14734TIP3   OH265692   6.708   3.295   1.390 -0.1990  0.1254 -0.9042
14734TIP3    H165693   6.795   3.260   1.374 -0.0796  0.3120 -0.6702
14734TIP3    H265694   6.723   3.377   1.437 -0.5212 -0.1312 -0.3445
14735TIP3   OH265695   1.966   6.717   5.966  0.2247  0.1881  0.3966
14735TIP3    H165696   1.941   6.806   5.990  0.8462 -0.0423  2.0474
14735TIP3    H265697   1.957   6.667   6.047 -0.8483 -1.4433 -0.6761
14736TIP3   OH265698   0.929   1.877  14.657 -0.2477 -0.4369  0.3784
14736TIP3    H165699   0.932   1.811  14.726  2.4698 -1.3366 -0.4930
14736TIP3    H265700   0.999   1.938  14.679 -1.2184  0.8885 -0.0913
14737TIP3   OH265701   0.293   0.477  16.043  0.6729 -0.1648  0.2638
14737TIP3    H165702   0.225   0.544  16.049  0.7980  0.0610 -0.6716
14737TIP3    H265703   0.370   0.517  16.084  0.0589 -0.7229  2.0733
14738TIP3   OH265704   4.523   4.016  13.161 -0.5103 -0.0050 -0.2807
14738TIP3    H165705   4.487   4.085  13.216  1.6988  1.5434 -0.6321
14738TIP3    H265706   4.566   3.956  13.223 -2.9411 -1.5223  0.0804
14739TIP3   OH265707   0.495   1.351  11.386 -0.0420  0.0365  0.3277
14739TIP3    H165708   0.548   1.386  11.458 -0.1086  0.8563 -0.0146
14739TIP3    H265709   0.429   1.297  11.430 -0.2403  0.7278  0.9118
14740TIP3   OH265710   0.720   0.715   1.400  0.3722 -0.3862  0.0545
14740TIP3    H165711   0.775   0.645   1.436  1.6035 -0.0973 -1.2154
14740TIP3    H265712   0.677   0.752   1.477  2.8556  0.1643  1.2824
14741TIP3   OH265713   5.463   0.769  11.181  0.1065  0.5239 -0.1403
14741TIP3    H165714   5.444   0.773  11.275 -1.3049  1.6982 -0.4309
14741TIP3    H265715   5.471   0.676  11.162 -0.5920  0.2137  0.9770
14742TIP3   OH265716   6.483   6.355  12.497 -0.5019 -0.1672  0.5621
14742TIP3    H165717   6.521   6.303  12.426 -0.8359  0.7183 -0.2790
14742TIP3    H265718   6.392   6.325  12.503 -0.9356  0.8739 -0.4887
14743TIP3   OH265719   1.522   3.005   5.903 -0.1476  0.4305  0.4936
14743TIP3    H165720   1.498   3.042   5.818 -0.8602 -0.5801  0.2360
14743TIP3    H265721   1.532   2.912   5.887 -1.2317  0.0757  1.7039
14744TIP3   OH265722   5.689   6.312  13.510 -0.1918 -0.2435  0.2658
14744TIP3    H165723   5.778   6.305  13.546  0.0956 -0.1892 -0.4243
14744TIP3    H265724   5.693   6.388  13.452 -0.7150 -0.1916  0.2943
14745TIP3   OH265725   3.416   4.653  16.433 -0.0179 -0.6775 -0.0898
14745TIP3    H165726   3.330   4.618  16.410  0.1857 -0.2607 -1.5603
14745TIP3    H265727   3.476   4.616  16.368  0.3471  1.6660 -1.1783
14746TIP3   OH265728   2.742   3.572   2.187  0.3314 -0.4596  0.4939
14746TIP3    H165729   2.810   3.556   2.252 -0.6383  0.3970  1.7697
14746TIP3    H265730   2.661   3.543   2.229 -0.4540  1.0286  0.0837
14747TIP3   OH265731   2.257   6.478  11.123  0.2108  0.0976  0.2657
14747TIP3    H165732   2.248   6.570  11.098  0.9283 -0.0154 -0.4309
14747TIP3    H265733   2.257   6.431  11.040  0.6901 -0.4601  0.5756
14748TIP3   OH265734   2.969   4.686  16.356  0.3920 -0.1480  0.4486
14748TIP3    H165735   3.048   4.649  16.317 -0.3043 -1.0591 -0.1413
14748TIP3    H265736   3.000   4.732  16.434  1.4301 -0.9885  0.5513
14749TIP3   OH265737   4.001   4.847  11.145  0.6539  0.4161  0.0885
14749TIP3    H165738   4.024   4.865  11.237  1.8278  1.2451 -0.3535
14749TIP3    H265739   4.060   4.777  11.118  1.1989  1.0532 -0.4037
14750TIP3   OH265740   3.180   6.315  13.732  0.2119  0.2105 -0.4767
14750TIP3    H165741   3.117   6.367  13.781  1.1750  0.1060  0.9310
14750TIP3    H265742   3.221   6.377  13.671  0.0262  0.6829 -0.1237
14751TIP3   OH265743   5.277   4.777  16.491  0.6906  0.2844 -0.5778
14751TIP3    H165744   5.190   4.795  16.527  0.8251  1.0329 -0.6180
14751TIP3    H265745   5.300   4.692  16.527  0.7073  0.8854  0.9144
14752TIP3   OH265746   1.856   0.793   3.999  0.0175 -0.5330 -0.6610
14752TIP3    H165747   1.780   0.852   3.998 -0.2910 -0.9230 -0.7504
14752TIP3    H265748   1.888   0.793   3.908 -0.1228 -0.6745 -0.7121
14753TIP3   OH265749   3.548   5.763   1.668 -0.0130 -0.2865 -0.3794
14753TIP3    H165750   3.621   5.779   1.728  0.5054 -0.4995 -0.9425
14753TIP3    H265751   3.578   5.796   1.584  0.1396 -1.9471 -1.0253
14754TIP3   OH265752   2.213   2.780   0.543 -0.2472  0.0730 -1.1947
14754TIP3    H165753   2.185   2.761   0.632  1.4067 -1.7799 -0.9936
14754TIP3    H265754   2.147   2.841   0.509  0.9729  3.9055  2.4475
14755TIP3   OH265755   3.892   3.424   1.602  0.6813 -0.2445  0.2381
14755TIP3    H165756   3.963   3.365   1.626  0.9653 -0.2430 -0.5417
14755TIP3    H265757   3.927   3.512   1.619  0.3816 -0.2811  1.0818
14756TIP3   OH265758   5.874   6.243  15.681  0.5693  0.2240 -0.0829
14756TIP3    H165759   5.926   6.321  15.702  0.2435  0.6409 -0.7901
14756TIP3    H265760   5.913   6.209  15.600  0.1009  0.2110 -0.3040
14757TIP3   OH265761   6.235   2.728  13.005  0.4698  0.2325  0.3106
14757TIP3    H165762   6.267   2.639  13.012 -1.6744 -0.7009 -0.7309
14757TIP3    H265763   6.227   2.759  13.096 -1.5296 -1.7516  0.8955
14758TIP3   OH265764   4.727   2.895  16.297  0.2189 -0.1386  0.0304
14758TIP3    H165765   4.651   2.852  16.259  1.6441 -2.6524 -0.2117
14758TIP3    H265766   4.722   2.986  16.266 -2.2301 -0.4152 -0.5742
14759TIP3   OH265767   3.056   5.453  15.328 -0.3453  0.4541  0.1487
14759TIP3    H165768   2.962   5.447  15.344 -0.1611  0.7411  1.4201
14759TIP3    H265769   3.096   5.412  15.405  0.5882  1.2379  0.0937
14760TIP3   OH265770   0.695   4.673   1.516 -0.3961  0.4719  0.1142
14760TIP3    H165771   0.784   4.660   1.484 -0.6028 -1.8343  0.2605
14760TIP3    H265772   0.703   4.670   1.611 -0.7227 -0.9961  0.1260
14761TIP3   OH265773   5.182   6.496  14.909  0.6639  0.6530 -0.1370
14761TIP3    H165774   5.118   6.492  14.838  1.8838  1.0640 -1.3055
14761TIP3    H265775   5.199   6.589  14.921 -0.9566  0.7404  2.0805
14762TIP3   OH265776   1.110   1.435   5.226 -0.1161 -0.0769 -0.4411
14762TIP3    H165777   1.042   1.501   5.236  0.6365  0.4551  1.6413
14762TIP3    H265778   1.126   1.402   5.315  2.3724 -0.1300 -0.8329
14763TIP3   OH265779   0.721   1.184   2.703 -0.2374 -0.7014  0.1091
14763TIP3    H165780   0.687   1.098   2.677 -0.4418 -0.7259  0.4578
14763TIP3    H265781   0.678   1.246   2.644 -1.5559 -0.6378  1.1068
14764TIP3   OH265782   3.169   6.806   1.001 -0.5168  0.6307 -0.7928
14764TIP3    H165783   3.086   6.814   0.955 -0.0300 -0.0986 -1.8208
14764TIP3    H265784   3.233   6.783   0.934 -0.1652 -2.7423  0.5277
14765TIP3   OH265785   6.022   4.918  14.166  0.0449  0.5914 -0.0295
14765TIP3    H165786   5.952   4.870  14.121  0.2061  1.4886 -1.3057
14765TIP3    H265787   6.090   4.853  14.182 -0.5790 -0.0330  0.1501
14766TIP3   OH265788   2.353   1.355  11.635  0.7728  0.8666  0.0465
14766TIP3    H165789   2.392   1.278  11.677  1.7372  0.4096 -1.5910
14766TIP3    H265790   2.312   1.320  11.555  0.3146  1.9114 -0.1887
14767TIP3   OH265791   5.796   3.297   6.095 -0.1513  0.1764 -0.4838
14767TIP3    H165792   5.726   3.242   6.132  0.1150 -1.4923 -2.3311
14767TIP3    H265793   5.872   3.240   6.093  0.4251  0.9664 -1.4762
14768TIP3   OH265794   4.182   1.875  12.565  0.1396 -0.6906 -0.5802
14768TIP3    H165795   4.219   1.922  12.490  2.0145  0.7863  1.1303
14768TIP3    H265796   4.153   1.944  12.625  1.3338 -1.6868  1.2632
14769TIP3   OH265797   4.268   4.380  14.427  0.5196  0.1044 -0.3301
14769TIP3    H165798   4.331   4.309  14.417 -0.0231 -0.3034 -0.9001
14769TIP3    H265799   4.318   4.459  14.409  0.9265 -0.1992 -0.5468
14770TIP3   OH265800   2.139   5.007  14.712  0.0089 -0.0527  1.0046
14770TIP3    H165801   2.215   5.062  14.692  0.3204 -0.4044  1.2068
14770TIP3    H265802   2.080   5.066  14.759 -0.8717  0.8666 -1.1411
14771TIP3   OH265803   1.140   5.786  12.630 -0.6545  0.1794  0.6235
14771TIP3    H165804   1.133   5.737  12.712 -1.5601 -0.0470  0.4229
14771TIP3    H265805   1.153   5.877  12.657  1.2194 -0.1527  1.0005
14772TIP3   OH265806   3.823   4.535   2.917 -0.3584  0.2672 -0.3554
14772TIP3    H165807   3.908   4.518   2.875  0.2113  0.3456  0.7274
14772TIP3    H265808   3.827   4.486   2.999 -0.6554  1.6883  0.5337
14773TIP3   OH265809   5.425   6.347  11.306  0.1166  0.2737  0.2697
14773TIP3    H165810   5.440   6.330  11.213  1.2925 -1.5205  0.7420
14773TIP3    H265811   5.502   6.398  11.334 -0.0875  0.5509  0.3297
14774TIP3   OH265812   6.434   4.976  13.434  0.5283  0.1915 -0.0126
14774TIP3    H165813   6.501   4.973  13.503  0.8361  0.4662 -0.2933
14774TIP3    H265814   6.354   4.946  13.477  1.2963 -2.4151 -0.2151
14775TIP3   OH265815   3.113   2.062   4.276  0.3831  0.3181 -0.4633
14775TIP3    H165816   3.089   2.046   4.368 -0.4964 -3.6263 -1.1887
14775TIP3    H265817   3.204   2.033   4.270 -0.1238 -1.2045 -1.1478
14776TIP3   OH265818   2.376   0.690   5.727  0.2410  0.1437 -0.0338
14776TIP3    H165819   2.426   0.621   5.683  0.7525 -0.0667  0.8538
14776TIP3    H265820   2.294   0.648   5.753 -0.4145  0.4757 -1.4469
14777TIP3   OH265821   4.844   3.738   6.000  0.3208 -0.5873  0.0754
14777TIP3    H165822   4.765   3.785   5.973  1.3817  1.1671 -0.1424
14777TIP3    H265823   4.868   3.777   6.084  2.0032  0.2822 -0.7710
14778TIP3   OH265824   1.141   0.471  13.915  0.0596  0.1278 -0.2283
14778TIP3    H165825   1.231   0.503  13.923  0.4447 -0.7512 -0.8552
14778TIP3    H265826   1.113   0.500  13.828 -0.3137  0.4958  0.0097
14779TIP3   OH265827   3.754   4.288   5.624  0.2499  0.2475  0.0501
14779TIP3    H165828   3.754   4.196   5.599  0.4481  0.3706 -0.4328
14779TIP3    H265829   3.814   4.330   5.561 -0.5585  0.8560 -0.3409
14780TIP3   OH265830   5.540   3.603   3.812  0.4385  0.0664  0.4366
14780TIP3    H165831   5.539   3.561   3.726 -0.3618  0.5747  0.1859
14780TIP3    H265832   5.606   3.555   3.861  0.7105 -0.4126 -0.3715
14781TIP3   OH265833   5.429   5.859   5.217 -0.3004  0.1257 -0.5161
14781TIP3    H165834   5.435   5.954   5.204  0.7796  0.1149 -0.1755
14781TIP3    H265835   5.383   5.827   5.139  0.1480  0.8244 -1.0830
14782TIP3   OH265836   2.642   4.806  15.467 -0.0643  0.0502  0.6567
14782TIP3    H165837   2.678   4.841  15.386  0.4050  0.4351  1.0253
14782TIP3    H265838   2.674   4.865  15.535  0.0718 -0.6314  1.2007
14783TIP3   OH265839   2.023   1.608  12.741 -0.3247  0.1157 -0.8670
14783TIP3    H165840   1.996   1.637  12.654  1.2527  1.3517 -0.9911
14783TIP3    H265841   2.004   1.683  12.798  2.4517  0.9530 -0.9253
14784TIP3   OH265842   6.612   1.944  11.048 -0.7797  0.3619  0.8265
14784TIP3    H165843   6.644   1.936  10.959  1.1213 -0.6016  1.5330
14784TIP3    H265844   6.517   1.943  11.040 -0.6574 -1.2131 -1.0630
14785TIP3   OH265845   4.314   5.916   2.759 -0.9638  0.2553 -0.2255
14785TIP3    H165846   4.365   5.963   2.825 -1.8826 -0.3287  0.9397
14785TIP3    H265847   4.299   5.981   2.690 -0.7637  1.1676  0.5620
14786TIP3   OH265848   3.704   2.460   0.627  0.4409  0.5259 -0.5018
14786TIP3    H165849   3.720   2.384   0.683 -0.6125  0.7075  0.0685
14786TIP3    H265850   3.644   2.515   0.677  0.7036  1.4434 -1.1711
14787TIP3   OH265851   6.357   5.575   3.354  0.0779  0.2772 -0.5600
14787TIP3    H165852   6.294   5.545   3.289 -0.9534  1.4368 -0.1341
14787TIP3    H265853   6.412   5.638   3.306  0.9343 -0.7236 -0.9279
14788TIP3   OH265854   2.940   0.459   3.481 -0.1465 -0.5594  0.2570
14788TIP3    H165855   2.966   0.446   3.572 -1.3427  1.3574  0.9458
14788TIP3    H265856   2.904   0.548   3.479 -0.2950 -0.5990 -2.0677
14789TIP3   OH265857   5.514   3.243  12.654  0.2419  0.5402  0.4739
14789TIP3    H165858   5.560   3.317  12.694 -0.5623  2.4889 -1.9338
14789TIP3    H265859   5.421   3.267  12.658  0.0328  0.1404 -1.1969
14790TIP3   OH265860   1.417   4.432   2.171  0.6396 -0.5756  1.2105
14790TIP3    H165861   1.407   4.345   2.133 -0.6528 -0.5620  1.4549
14790TIP3    H265862   1.429   4.417   2.265  4.0175 -0.6184  0.8935
14791TIP3   OH265863   0.726   1.798   5.145  0.2677 -0.1099  0.3406
14791TIP3    H165864   0.706   1.714   5.105 -0.6757  0.3287 -0.1415
14791TIP3    H265865   0.812   1.821   5.112 -0.7204  0.5231 -1.9739
14792TIP3   OH265866   4.696   5.874   2.452 -0.1766 -0.2632 -0.2578
14792TIP3    H165867   4.745   5.856   2.372  1.6446  3.3591 -0.1866
14792TIP3    H265868   4.727   5.809   2.515  1.8773 -0.3215 -1.2624
14793TIP3   OH265869   4.647   2.776  11.202 -0.0934  0.1380 -0.0480
14793TIP3    H165870   4.647   2.714  11.130 -0.8873 -0.6703  0.6187
14793TIP3    H265871   4.739   2.785  11.226  0.1965  0.5601 -1.2618
14794TIP3   OH265872   3.250   1.812   4.577  0.1817 -0.2181  0.0648
14794TIP3    H165873   3.291   1.784   4.495 -3.2911 -1.1981 -1.5552
14794TIP3    H265874   3.229   1.730   4.622  0.4647  0.2582  1.0923
14795TIP3   OH265875   1.515   5.170   2.419  0.6902 -0.1188 -0.2671
14795TIP3    H165876   1.576   5.230   2.375 -1.4082  0.7419 -2.2388
14795TIP3    H265877   1.451   5.147   2.351 -1.3826 -0.6776  1.7402
14796TIP3   OH265878   2.886   0.332   5.489 -0.1689  0.2749  0.1005
14796TIP3    H165879   2.854   0.271   5.555  0.9932 -0.1677  0.2789
14796TIP3    H265880   2.811   0.348   5.432 -0.2521 -2.0657 -0.5329
14797TIP3   OH265881   3.862   0.752  17.057  0.9624  0.0959  0.7448
14797TIP3    H165882   3.834   0.794  16.976  0.6039 -1.8259 -0.1739
14797TIP3    H265883   3.852   0.820  17.124 -2.9596  0.4904 -0.0324
14798TIP3   OH265884   0.832   0.752  12.419  0.5499 -0.5551 -0.5328
14798TIP3    H165885   0.736   0.754  12.418  0.5628  1.5561 -0.7016
14798TIP3    H265886   0.857   0.746  12.327  0.5825 -0.6965 -0.5144
14799TIP3   OH265887   0.276   4.645  16.179  0.9171 -0.0554 -0.3109
14799TIP3    H165888   0.352   4.669  16.233  1.4645 -0.3449 -0.9367
14799TIP3    H265889   0.251   4.725  16.134  1.2401 -0.1040 -0.5753
14800TIP3   OH265890   4.954   1.853   0.307  0.5086 -0.4170  0.4606
14800TIP3    H165891   4.911   1.799   0.240  0.2013 -0.4255  0.6623
14800TIP3    H265892   4.884   1.872   0.370  1.1138 -1.5436  1.5057
14801TIP3   OH265893   6.473   4.948   3.986  0.5076 -0.5746 -0.0369
14801TIP3    H165894   6.403   5.014   3.985  1.8959  1.0154 -2.8317
14801TIP3    H265895   6.427   4.864   3.991 -1.4049  0.4764  1.5915
14802TIP3   OH265896   1.332   0.237  12.364  0.1860 -0.0587 -0.0206
14802TIP3    H165897   1.418   0.236  12.407  0.0185 -2.3386  0.3760
14802TIP3    H265898   1.351   0.213  12.273 -0.0498 -1.1583  0.2015
14803TIP3   OH265899   6.684   0.378  16.931  0.1601 -0.4458  0.6255
14803TIP3    H165900   6.736   0.338  17.001 -0.9383 -0.2271  1.5986
14803TIP3    H265901   6.684   0.472  16.951  0.8040 -0.2288 -0.3412
14804TIP3   OH265902   5.603   2.100   5.478 -0.0912  0.0690  0.0591
14804TIP3    H165903   5.574   2.187   5.503  0.0225  0.5302 -1.3339
14804TIP3    H265904   5.532   2.042   5.505 -0.3604  0.6468  0.6006
14805TIP3   OH265905   3.081   4.854  15.437 -0.1809 -0.4481  0.2543
14805TIP3    H165906   3.150   4.918  15.422 -1.0676 -0.0412 -2.8692
14805TIP3    H265907   3.124   4.769  15.427 -0.1332 -0.1967 -2.4207
14806TIP3   OH265908   0.377   4.366   1.520 -0.0402 -0.5804 -0.7419
14806TIP3    H165909   0.441   4.399   1.457  0.6311 -0.4528 -0.0106
14806TIP3    H265910   0.405   4.403   1.604 -1.2765 -0.2514 -0.4604
14807TIP3   OH265911   4.461   5.425   4.709  0.5337  0.7732 -1.0073
14807TIP3    H165912   4.518   5.413   4.785  0.6452  1.9150 -0.9017
14807TIP3    H265913   4.385   5.472   4.743 -1.7639 -2.8008 -0.5952
14808TIP3   OH265914   5.504   1.152   3.353 -0.6437  0.0190  0.1131
14808TIP3    H165915   5.440   1.200   3.406 -0.1114  1.6993 -0.6773
14808TIP3    H265916   5.475   1.165   3.263  0.8401  0.9762 -0.2788
14809TIP3   OH265917   4.547   2.567   3.496  0.2906  0.3692 -0.4303
14809TIP3    H165918   4.486   2.513   3.445 -0.2029  0.4506  0.0688
14809TIP3    H265919   4.594   2.503   3.550  1.7565  0.1292 -1.9163
14810TIP3   OH265920   0.079   4.211  13.256 -0.1914 -0.6855  0.2899
14810TIP3    H165921   0.097   4.272  13.185 -0.0924 -0.4260  0.5348
14810TIP3    H265922   0.156   4.217  13.313 -2.2443  2.9474  3.1757
14811TIP3   OH265923   4.318   1.459  12.897 -0.1451  0.1720 -0.8415
14811TIP3    H165924   4.241   1.457  12.954  0.1952  0.9236 -0.3343
14811TIP3    H265925   4.308   1.383  12.841 -0.0966 -1.0597  0.7542
14812TIP3   OH265926   6.732   6.211  11.043 -0.5157  0.5526  0.0195
14812TIP3    H165927   6.734   6.278  10.975 -2.0999 -0.7112 -1.3579
14812TIP3    H265928   6.740   6.128  10.996 -4.9620 -0.5919  0.8512
14813TIP3   OH265929   2.051   5.674   0.632 -0.2063 -0.2134  0.3867
14813TIP3    H165930   1.964   5.663   0.594  0.5028 -1.6537 -0.9459
14813TIP3    H265931   2.047   5.627   0.715 -0.3609 -1.3636 -0.2534
14814TIP3   OH265932   2.512   3.451   2.249 -0.0044 -0.2261  0.1411
14814TIP3    H165933   2.436   3.471   2.303 -0.7270 -1.8995 -0.1867
14814TIP3    H265934   2.491   3.367   2.209  1.4355 -0.0498 -1.0581
14815TIP3   OH265935   0.397   0.962  12.556 -0.2294  0.6689  0.0617
14815TIP3    H165936   0.361   0.938  12.471  0.4763 -0.6364  0.1141
14815TIP3    H265937   0.396   0.880  12.607  2.4487  0.6340  0.1882
14816TIP3   OH265938   3.780   2.436   3.463 -0.0691  0.3256 -0.4576
14816TIP3    H165939   3.729   2.516   3.470 -0.0997  0.3286 -0.7081
14816TIP3    H265940   3.730   2.380   3.403 -0.3454 -0.1130  0.1686
14817TIP3   OH265941   2.793   2.463   3.253 -0.3131  0.0965  0.3219
14817TIP3    H165942   2.853   2.506   3.191  2.0899 -1.9121  1.0771
14817TIP3    H265943   2.747   2.535   3.296  0.9478  1.7152 -0.9012
14818TIP3   OH265944   1.039   6.817   2.193 -0.2930  0.1726 -0.2129
14818TIP3    H165945   1.077   6.810   2.106 -2.1553 -0.1283 -1.0463
14818TIP3    H265946   0.958   6.766   2.188 -1.1236  1.2604  1.2749
14819TIP3   OH265947   3.817   0.210  15.161 -0.3949 -0.2981  0.3087
14819TIP3    H165948   3.834   0.303  15.173 -2.9590  0.7635 -2.7504
14819TIP3    H265949   3.763   0.186  15.237 -0.4354  0.9530  0.7039
14820TIP3   OH265950   2.142   0.692   2.679 -0.2342  0.2047  0.3691
14820TIP3    H165951   2.217   0.726   2.630  0.2187  0.1959  1.0450
14820TIP3    H265952   2.074   0.759   2.667 -0.6553 -0.4808 -1.4824
14821TIP3   OH265953   6.699   0.446  15.344  0.9174  0.0455  0.2101
14821TIP3    H165954   6.784   0.404  15.330  0.5622 -0.3018 -1.0174
14821TIP3    H265955   6.637   0.373  15.346  0.4198  0.4089 -0.9439
14822TIP3   OH265956   3.351   4.975   5.095  0.0632  0.3507  0.1595
14822TIP3    H165957   3.300   4.988   5.175 -1.1597 -1.8435 -0.2075
14822TIP3    H265958   3.442   4.976   5.125 -0.3390  0.2260  1.4595
14823TIP3   OH265959   1.893   1.060   0.925  0.0361 -0.5914  0.3508
14823TIP3    H165960   1.850   1.068   0.840 -0.7512 -1.8354  0.6088
14823TIP3    H265961   1.976   1.105   0.914  0.5307 -1.8507 -1.4896
14824TIP3   OH265962   4.261   5.879  16.512 -0.1758  0.0837 -0.2312
14824TIP3    H165963   4.293   5.952  16.565 -2.4974  1.4286 -0.5689
14824TIP3    H265964   4.214   5.921  16.440 -1.4445 -1.7432 -0.5267
14825TIP3   OH265965   4.324   2.700   4.127  0.1850 -0.1268  0.0264
14825TIP3    H165966   4.293   2.617   4.090  0.0394  0.3227 -0.9068
14825TIP3    H265967   4.369   2.743   4.054 -1.2487  1.3758 -0.0519
14826TIP3   OH265968   2.391   5.592  12.546  0.2203 -0.2355 -0.0227
14826TIP3    H165969   2.468   5.561  12.498 -0.1378 -1.3269  0.0941
14826TIP3    H265970   2.427   5.637  12.623  0.7534  0.0113 -0.4067
14827TIP3   OH265971   4.243   1.659  16.927 -0.2943  0.2935 -0.1262
14827TIP3    H165972   4.196   1.729  16.972 -4.4393 -1.8870 -0.5704
14827TIP3    H265973   4.177   1.591  16.914  3.1817 -3.3582 -0.5696
14828TIP3   OH265974   2.057   2.406   4.692 -0.4331  0.1557 -0.6879
14828TIP3    H165975   2.010   2.420   4.774 -0.8928  0.9709 -1.0753
14828TIP3    H265976   2.011   2.334   4.649 -0.1057 -0.3629 -0.1708
14829TIP3   OH265977   6.460   0.320   0.888 -0.0526 -0.1709 -0.0147
14829TIP3    H165978   6.496   0.309   0.976  0.5533 -0.7401 -0.3285
14829TIP3    H265979   6.489   0.406   0.860 -0.5385  0.1588  0.4731
14830TIP3   OH265980   0.251   3.246   2.240 -0.2285  0.2820 -0.5924
14830TIP3    H165981   0.333   3.294   2.228 -0.6731  1.1717 -0.1560
14830TIP3    H265982   0.219   3.231   2.151  1.0399 -1.2297 -0.8354
14831TIP3   OH265983   5.337   2.298  13.333  0.1802 -0.0710  0.6701
14831TIP3    H165984   5.383   2.253  13.262  0.4960 -0.3320  1.0339
14831TIP3    H265985   5.272   2.352  13.289  0.6444  0.0840  0.1564
14832TIP3   OH265986   3.598   6.741  12.612 -0.0924  0.0403 -0.2504
14832TIP3    H165987   3.651   6.683  12.556 -0.6167 -0.8494  0.1644
14832TIP3    H265988   3.516   6.694  12.625 -0.4215  0.7573  0.3238
14833TIP3   OH265989   6.672   0.563   3.395 -0.2341 -0.3633 -0.3364
14833TIP3    H165990   6.718   0.633   3.349  1.2224 -0.6621  0.6231
14833TIP3    H265991   6.733   0.490   3.395 -0.6804 -0.7650  0.9905
14834TIP3   OH265992   3.677   3.954  12.808  0.4003 -0.0196  0.3054
14834TIP3    H165993   3.605   3.947  12.871  0.2174 -0.7620  0.0199
14834TIP3    H265994   3.750   3.910  12.851  0.9309  1.4070  0.9239
14835TIP3   OH265995   5.790   1.061   0.029 -0.0379  0.6597  0.5384
14835TIP3    H165996   5.855   1.073  -0.040 -0.0701  0.7803  0.5294
14835TIP3    H265997   5.736   0.988  -0.002  1.6846 -1.2541  1.7360
14836TIP3   OH265998   1.080   0.682   5.019  0.4064  0.1464  0.1742
14836TIP3    H165999   0.999   0.636   4.998 -0.2070  1.4072 -0.2656
14836TIP3    H266000   1.121   0.627   5.086 -0.4157 -0.9164 -0.1664
14837TIP3   OH266001   6.512   2.485   0.142 -0.5203 -0.0571  0.0104
14837TIP3    H166002   6.499   2.406   0.195  0.6535 -0.1673  0.1571
14837TIP3    H266003   6.423   2.515   0.121 -0.9842 -0.8887  0.7336
14838TIP3   OH266004   1.147   6.200   0.710 -0.0800  0.2353 -0.2596
14838TIP3    H166005   1.152   6.219   0.617 -1.3856  0.8351 -0.2285
14838TIP3    H266006   1.077   6.136   0.718 -1.5546  1.8714  0.5133
14839TIP3   OH266007   3.064   0.436  14.433 -0.5417  0.6111  0.2237
14839TIP3    H166008   3.059   0.343  14.453  1.9484 -0.3058 -2.6323
14839TIP3    H266009   3.086   0.478  14.516  1.5508 -1.8245  1.0415
14840TIP3   OH266010   6.571   3.514  15.612  0.3584 -0.1701  0.4241
14840TIP3    H166011   6.636   3.459  15.570  1.1607 -0.6383  2.2032
14840TIP3    H266012   6.572   3.488  15.704 -1.7707  0.3698  0.6699
14841TIP3   OH266013   3.811   4.798  15.668  0.2344  0.1928 -0.0574
14841TIP3    H166014   3.742   4.772  15.729 -1.0495  1.1112 -1.0527
14841TIP3    H266015   3.885   4.741  15.689 -1.1233 -1.4695  0.4482
14842TIP3   OH266016   2.465   6.478   2.459 -0.3866 -0.1292 -0.3092
14842TIP3    H166017   2.495   6.526   2.382 -0.2961  2.2235  1.0896
14842TIP3    H266018   2.500   6.390   2.448  1.5801  0.7749 -1.8572
14843TIP3   OH266019   1.840   3.455  12.494 -0.8089  0.3614 -0.3544
14843TIP3    H166020   1.791   3.373  12.483  1.0839 -0.9415  0.3906
14843TIP3    H266021   1.866   3.479  12.405  0.6458 -1.2077 -0.4014
14844TIP3   OH266022   4.782   0.655   3.558  0.5547 -0.0571  0.2917
14844TIP3    H166023   4.803   0.707   3.480 -0.0682 -1.6358 -0.9889
14844TIP3    H266024   4.866   0.648   3.604  2.1743 -2.8900 -2.6515
14845TIP3   OH266025   1.229   0.753  13.193  0.4552  0.4701 -0.0238
14845TIP3    H166026   1.166   0.791  13.132 -2.1909 -0.5122  1.9614
14845TIP3    H266027   1.205   0.789  13.278 -0.3423 -3.2246  1.5098
14846TIP3   OH266028   0.843   4.354   5.620  0.5591 -0.3166  0.5196
14846TIP3    H166029   0.903   4.295   5.664  3.2144  2.1136  0.4484
14846TIP3    H266030   0.814   4.415   5.688  0.4480  0.2402 -0.0114
14847TIP3   OH266031   5.944   2.383   0.846 -0.0068 -0.3498  0.3872
14847TIP3    H166032   5.944   2.453   0.913  3.0166 -1.3313  1.5793
14847TIP3    H266033   5.899   2.310   0.889  0.4327 -0.4340  0.7112
14848TIP3   OH266034   1.126   1.359  15.045  0.1489  0.0058  0.3122
14848TIP3    H166035   1.179   1.437  15.062 -1.6021  0.8549  2.5252
14848TIP3    H266036   1.036   1.388  15.061 -0.6355 -2.3116  0.4740
14849TIP3   OH266037   5.397   5.450  12.809 -0.3556 -0.0411  0.0509
14849TIP3    H166038   5.346   5.531  12.801 -0.1066  0.1445  0.2926
14849TIP3    H266039   5.381   5.403  12.727  0.3175  0.7351 -0.5422
14850TIP3   OH266040   4.192   4.326   6.414 -0.1916 -0.7147 -0.1195
14850TIP3    H166041   4.255   4.312   6.485  0.4659  1.1762 -0.2794
14850TIP3    H266042   4.178   4.421   6.412 -0.8355 -0.8031 -1.9792
14851TIP3   OH266043   6.482   5.565  14.602 -0.1969 -0.1449  0.1197
14851TIP3    H166044   6.508   5.581  14.693 -1.7239  2.0772  0.2589
14851TIP3    H266045   6.532   5.488  14.576  1.1174 -0.1979  2.4819
14852TIP3   OH266046   1.632   6.229  14.024  0.3036 -0.3562 -0.6644
14852TIP3    H166047   1.557   6.191  14.071  0.9223 -2.3915 -1.2316
14852TIP3    H266048   1.593   6.283  13.956 -0.6084  1.0705  0.8966
14853TIP3   OH266049   2.400   2.466   3.600  0.3234  0.3148 -0.1634
14853TIP3    H166050   2.336   2.498   3.663  0.6032  0.4909  0.0273
14853TIP3    H266051   2.426   2.544   3.550  0.1753  0.1941 -0.4356
14854TIP3   OH266052   1.329   1.372  13.749  0.1557  0.2046 -0.3460
14854TIP3    H166053   1.351   1.465  13.749 -2.1019  0.8073  0.5049
14854TIP3    H266054   1.412   1.327  13.768  1.1891  2.0472 -0.2857
14855TIP3   OH266055   0.116   5.102  12.217 -0.6789  0.0096 -0.0042
14855TIP3    H166056   0.138   5.105  12.123 -1.0816 -0.9858 -0.1435
14855TIP3    H266057   0.103   5.194  12.241  0.6268  0.3872 -0.6275
14856TIP3   OH266058   2.858   3.809  13.288 -0.1999 -0.4531 -0.3372
14856TIP3    H166059   2.904   3.886  13.322  0.2837 -0.9607  0.1747
14856TIP3    H266060   2.925   3.740  13.287 -0.6623 -0.9018 -0.6742
14857TIP3   OH266061   5.652   4.842  15.191 -0.3445  0.0819 -0.0824
14857TIP3    H166062   5.707   4.888  15.254  1.2467 -0.1814 -1.1993
14857TIP3    H266063   5.574   4.897  15.182  0.1098  0.9139  0.9378
14858TIP3   OH266064   3.581   6.288   5.414  0.3962 -0.3408  0.8896
14858TIP3    H166065   3.558   6.271   5.323 -0.0029 -2.0114  1.2719
14858TIP3    H266066   3.608   6.203   5.448  2.9951  0.7184  1.6645
14859TIP3   OH266067   3.726   1.382   4.297 -0.4265  0.0423  0.1682
14859TIP3    H166068   3.759   1.418   4.379 -0.1424  0.6793 -0.2220
14859TIP3    H266069   3.641   1.424   4.285 -1.1209 -1.1164  0.8472
14860TIP3   OH266070   4.406   4.663   0.917 -0.1661 -0.4520 -0.2214
14860TIP3    H166071   4.390   4.755   0.936  2.2203  0.0649 -0.3392
14860TIP3    H266072   4.440   4.662   0.827  3.1473 -0.8935  0.8782
14861TIP3   OH266073   0.931   4.463  13.814 -0.0976  0.5749 -0.0318
14861TIP3    H166074   0.871   4.396  13.783  0.5563  0.2121 -0.5427
14861TIP3    H266075   1.010   4.415  13.840  0.7081  1.1979 -1.2149
14862TIP3   OH266076   6.550   3.507  12.845  0.2765 -0.5165  0.9367
14862TIP3    H166077   6.544   3.420  12.885 -0.1797 -0.3273  1.2877
14862TIP3    H266078   6.460   3.529  12.821  0.0884  0.6143  2.5099
14863TIP3   OH266079   0.890   2.799  13.176  0.1583 -0.1980 -0.2402
14863TIP3    H166080   0.899   2.705  13.190 -0.5786 -0.6488 -2.4203
14863TIP3    H266081   0.968   2.825  13.127 -0.5589 -0.0936 -1.3652
14864TIP3   OH266082   0.470   5.697   6.175  0.2402  0.3023 -0.0570
14864TIP3    H166083   0.434   5.708   6.263  1.3860 -0.8980  0.6075
14864TIP3    H266084   0.460   5.782   6.133 -1.7952  0.4558  0.6674
14865TIP3   OH266085   5.449   4.744  13.411 -0.1543 -0.3917 -0.5104
14865TIP3    H166086   5.405   4.705  13.336 -1.1375  0.4042 -0.3712
14865TIP3    H266087   5.488   4.670  13.458 -2.5675 -1.3215  0.1570
14866TIP3   OH266088   0.219   4.628  12.561 -0.0091 -0.1570  0.5885
14866TIP3    H166089   0.146   4.689  12.553 -0.3976 -0.7413 -0.7227
14866TIP3    H266090   0.198   4.576  12.638  0.0115  0.9402  1.3548
14867TIP3   OH266091   2.572   6.623   2.191 -0.7785  0.1715  0.2612
14867TIP3    H166092   2.569   6.715   2.216 -1.6413  0.2570 -0.0985
14867TIP3    H266093   2.638   6.618   2.122  0.1663  0.2896  1.1370
14868TIP3   OH266094   3.404   2.318   0.598 -0.4844  0.3361  0.0417
14868TIP3    H166095   3.421   2.376   0.523  1.4000  1.3591  1.1564
14868TIP3    H266096   3.413   2.376   0.674  0.8633 -1.2650  1.1814
14869TIP3   OH266097   2.948   6.105  13.447  0.2977  0.2965 -0.1122
14869TIP3    H166098   2.939   6.077  13.538  1.3073 -0.7368 -0.3155
14869TIP3    H266099   3.034   6.147  13.442  0.5156 -0.2080 -0.7248
14870TIP3   OH266100   6.233   5.530  11.336 -0.0886 -0.4384  0.5177
14870TIP3    H166101   6.314   5.541  11.287 -1.1250  2.4086 -0.7320
14870TIP3    H266102   6.258   5.542  11.428  0.7358  2.0334  0.0332
14871TIP3   OH266103   2.685   2.049   4.264  0.5253 -0.0281  0.0585
14871TIP3    H166104   2.733   2.106   4.324 -1.9555  1.1444  1.1006
14871TIP3    H266105   2.678   2.100   4.183 -0.3077  0.5205  0.4565
14872TIP3   OH266106   6.553   6.328   5.654  0.6209  0.1971  0.4429
14872TIP3    H166107   6.462   6.333   5.624  1.7722  0.4932 -3.6625
14872TIP3    H266108   6.561   6.241   5.693 -1.3036  0.0317  0.5661
14873TIP3   OH266109   5.942   6.080  10.732  0.3040 -0.2176 -0.1164
14873TIP3    H166110   6.023   6.031  10.745  0.7497  0.6880  0.6667
14873TIP3    H266111   5.949   6.115  10.643  0.0457 -1.4242 -0.6307
14874TIP3   OH266112   2.991   0.651  13.744 -0.6839 -0.1238  0.1118
14874TIP3    H166113   2.997   0.700  13.827  3.5503  1.6383 -0.9464
14874TIP3    H266114   3.056   0.692  13.688 -1.7583 -2.7287 -3.3686
14875TIP3   OH266115   0.385   0.574   0.989  0.0571 -0.0365 -0.1319
14875TIP3    H166116   0.316   0.545   0.930  0.0034 -0.2971  0.0592
14875TIP3    H266117   0.463   0.529   0.959 -0.2192 -1.1385  0.7589
14876TIP3   OH266118   6.197   2.920   6.070 -0.5700  0.1749  0.5790
14876TIP3    H166119   6.107   2.901   6.042 -0.7098  0.4721  0.8218
14876TIP3    H266120   6.210   2.862   6.146  0.1595 -1.3828 -0.6806
14877TIP3   OH266121   2.625   5.066   4.089 -0.8508  0.0552  0.1473
14877TIP3    H166122   2.686   5.105   4.026 -0.9379  0.7868  0.5049
14877TIP3    H266123   2.558   5.025   4.035 -2.1234  2.5176 -0.2951
14878TIP3   OH266124   5.593   6.117   5.977 -0.6155  0.1585 -0.1848
14878TIP3    H166125   5.512   6.076   6.008 -0.1016 -0.6660  0.1133
14878TIP3    H266126   5.614   6.181   6.045 -0.2764 -0.6175  0.4628
14879TIP3   OH266127   1.990   3.483  16.066  0.4174 -0.3111 -0.4511
14879TIP3    H166128   2.065   3.463  16.010  0.8390 -0.7724  0.2601
14879TIP3    H266129   2.011   3.567  16.106  0.1368 -0.0036 -0.9363
14880TIP3   OH266130   4.123   6.368  13.778 -0.6687  0.1108 -0.4225
14880TIP3    H166131   4.082   6.301  13.832 -0.3449  0.1031 -0.1792
14880TIP3    H266132   4.054   6.398  13.720 -1.0704  0.2305  0.1064
14881TIP3   OH266133   6.001   6.119  15.465  0.8768  0.3555 -0.5595
14881TIP3    H166134   5.957   6.155  15.388  0.4385 -1.8448 -1.4098
14881TIP3    H266135   6.040   6.037  15.434 -2.7120 -2.8071  2.3326
14882TIP3   OH266136   1.835   5.801  13.243  0.1972  0.8819 -0.5317
14882TIP3    H166137   1.800   5.885  13.274  1.2567 -0.3635  4.9538
14882TIP3    H266138   1.765   5.738  13.260  1.1607 -0.0457  0.0732
14883TIP3   OH266139   1.335   6.474   0.736 -0.5021 -0.9890  0.0871
14883TIP3    H166140   1.303   6.557   0.769  0.6774 -1.0347  1.4704
14883TIP3    H266141   1.297   6.466   0.649 -0.9760  0.7793  0.0977
14884TIP3   OH266142   3.318   5.347  16.864  0.1114  0.0945 -0.3639
14884TIP3    H166143   3.230   5.349  16.903  0.1480  0.3783 -0.2931
14884TIP3    H266144   3.314   5.277  16.800 -0.1519  0.0664 -0.3183
14885TIP3   OH266145   5.611   4.631   1.942 -0.3800 -0.4965 -0.2893
14885TIP3    H166146   5.625   4.537   1.929 -2.1960 -0.9523  0.8522
14885TIP3    H266147   5.537   4.653   1.885  1.2438  0.7192 -2.0719
14886TIP3   OH266148   1.965   3.972   0.251  0.3049 -0.4355  0.1615
14886TIP3    H166149   2.042   3.928   0.214  2.0449  1.7224  0.9621
14886TIP3    H266150   1.921   4.010   0.175  0.0747 -1.5826 -0.2979
14887TIP3   OH266151   0.901   2.994  17.033 -0.5549  0.0205  0.4625
14887TIP3    H166152   0.891   3.088  17.051 -0.3236  0.2870 -0.7338
14887TIP3    H266153   0.995   2.982  17.020 -0.6031 -0.3593  0.4594
14888TIP3   OH266154   0.815   4.649  12.601 -0.1519  0.5903 -0.4128
14888TIP3    H166155   0.872   4.652  12.678  0.6472  1.3835 -1.0312
14888TIP3    H266156   0.873   4.629  12.528 -1.0003 -0.7927 -0.7436
14889TIP3   OH266157   4.188   4.891   5.941  0.6076 -0.4262  0.0102
14889TIP3    H166158   4.232   4.862   6.022  1.4671 -0.2754 -0.3866
14889TIP3    H266159   4.253   4.947   5.898  0.5060 -1.2424 -1.2313
14890TIP3   OH266160   5.818   6.769  13.736  0.1547 -0.5119  0.0864
14890TIP3    H166161   5.839   6.745  13.826 -0.0056 -1.9937 -0.2507
14890TIP3    H266162   5.821   6.865  13.736  0.0592 -0.4768  1.6785
14891TIP3   OH266163   0.632   4.083  14.656  0.1123 -0.0197  0.6927
14891TIP3    H166164   0.600   4.096  14.745  0.9892 -0.8468  1.1525
14891TIP3    H266165   0.633   3.987  14.645  0.4731  0.0580 -0.0272
14892TIP3   OH266166   5.177   0.587  13.359  0.1134 -0.0599  0.1463
14892TIP3    H166167   5.252   0.531  13.380  0.9981  1.0831  0.0722
14892TIP3    H266168   5.174   0.590  13.264  1.4733  1.8271  0.1229
14893TIP3   OH266169   1.825   4.603   4.161 -0.0648  0.5080  0.2279
14893TIP3    H166170   1.779   4.528   4.123  0.5342  0.1663  0.1767
14893TIP3    H266171   1.756   4.668   4.175 -0.2244  0.9658 -2.1789
14894TIP3   OH266172   5.953   4.400  15.126 -0.7594  0.2976  0.0208
14894TIP3    H166173   5.992   4.329  15.178 -1.0902  0.4670  0.5089
14894TIP3    H266174   5.860   4.380  15.126 -0.8952  0.9007  0.4296
14895TIP3   OH266175   6.282   6.703  12.488  0.2996 -0.6591  0.0771
14895TIP3    H166176   6.284   6.798  12.485  2.4831 -0.6544 -0.5640
14895TIP3    H266177   6.348   6.679  12.553 -2.3734 -1.7733  2.5766
14896TIP3   OH266178   1.227   6.386   1.045 -0.2599  0.0347 -0.0577
14896TIP3    H166179   1.260   6.356   1.130 -2.2446 -0.0937  0.7002
14896TIP3    H266180   1.234   6.481   1.049  0.2538 -0.0016 -0.0167
14897TIP3   OH266181   6.634   4.573  11.365 -0.1228 -0.6965 -0.8007
14897TIP3    H166182   6.691   4.607  11.434  0.6521 -2.5456 -0.4632
14897TIP3    H266183   6.573   4.515  11.411 -0.4079 -0.9743 -1.5183
14898TIP3   OH266184   6.375   0.807   6.554 -0.7572 -0.1975  0.1010
14898TIP3    H166185   6.452   0.793   6.499 -1.2757  1.6786 -1.1746
14898TIP3    H266186   6.369   0.902   6.565 -3.6188 -0.1344 -0.9844
14899TIP3   OH266187   4.153   5.803  13.448 -0.3291  0.4293 -0.6162
14899TIP3    H166188   4.078   5.786  13.505  1.3958 -0.3354  1.5920
14899TIP3    H266189   4.186   5.888  13.477  1.1700 -0.4282  0.2942
14900TIP3   OH266190   4.723   0.273   4.057  0.0513 -0.5835  0.2864
14900TIP3    H166191   4.733   0.207   3.988 -0.0592 -1.0629  0.7192
14900TIP3    H266192   4.694   0.223   4.133 -0.8145  0.0871  0.4044
14901TIP3   OH266193   5.633   3.715   3.248 -0.2627 -0.6986  0.6732
14901TIP3    H166194   5.556   3.768   3.266 -0.2733 -0.9403  1.3734
14901TIP3    H266195   5.686   3.769   3.189 -0.3947 -0.0163  1.1682
14902TIP3   OH266196   1.857   1.622   5.091  0.0108 -0.1720  0.4658
14902TIP3    H166197   1.787   1.687   5.087  0.2330  0.1355  1.3807
14902TIP3    H266198   1.813   1.539   5.077 -0.1778  0.1884 -1.4937
14903TIP3   OH266199   4.033   1.718   4.577  0.7363 -0.0505  0.3771
14903TIP3    H166200   4.078   1.752   4.654 -0.4780 -0.0349  1.1037
14903TIP3    H266201   4.065   1.628   4.569  0.6957 -0.1335  1.0612
14904TIP3   OH266202   0.995   3.959  12.467  0.7282  0.3498 -0.1901
14904TIP3    H166203   1.073   3.950  12.521 -0.4473 -1.5828  1.3225
14904TIP3    H266204   0.931   4.003  12.524  0.1301  0.2055 -0.7401
14905TIP3   OH266205   6.123   5.719  15.536 -0.0551 -0.4390  0.4766
14905TIP3    H166206   6.061   5.756  15.473  1.7750  0.0635 -1.1272
14905TIP3    H266207   6.101   5.761  15.619 -2.6549 -1.2621  0.2796
14906TIP3   OH266208   4.717   1.232   1.660  0.2370  0.1269 -0.5411
14906TIP3    H166209   4.717   1.223   1.755  2.6874 -1.4000 -0.5786
14906TIP3    H266210   4.641   1.182   1.630 -0.0051 -0.1822  0.5624
14907TIP3   OH266211   6.045   3.484  14.993  0.3036  0.4697 -0.3003
14907TIP3    H166212   6.094   3.510  15.071 -0.1790 -2.2600  1.0232
14907TIP3    H266213   6.112   3.478  14.925  1.6049 -1.5540  1.0655
14908TIP3   OH266214   6.061   6.646  11.149  0.4766  0.1167 -0.2498
14908TIP3    H166215   6.129   6.606  11.203  0.1725  1.2877  1.0815
14908TIP3    H266216   6.074   6.740  11.161  0.3210  0.4112 -2.1763
14909TIP3   OH266217   0.489   0.741  15.186  0.0377  0.3103 -0.1431
14909TIP3    H166218   0.436   0.817  15.161  0.3194  0.6901  0.3971
14909TIP3    H266219   0.425   0.672  15.202 -0.2456  0.5490 -0.2276
14910TIP3   OH266220   3.041   4.974   6.564  0.0988 -0.5295 -0.1480
14910TIP3    H166221   3.037   5.070   6.566  0.6094 -0.4973 -0.3489
14910TIP3    H266222   2.952   4.946   6.544 -0.2426 -0.1249  0.7534
14911TIP3   OH266223   6.242   0.525  16.443 -0.6677 -0.0551 -0.1758
14911TIP3    H166224   6.278   0.440  16.421  1.1418  0.8370 -0.8511
14911TIP3    H266225   6.313   0.569  16.491 -1.8177  0.8263  0.7776
14912TIP3   OH266226   2.265   0.795   4.894 -0.1676 -0.0750  0.0338
14912TIP3    H166227   2.197   0.858   4.918 -0.5059 -0.5904  0.4711
14912TIP3    H266228   2.343   0.825   4.939  0.0723  0.8986 -1.0038
14913TIP3   OH266229   1.048   4.555  13.463  0.6680 -0.0107  0.3467
14913TIP3    H166230   0.985   4.483  13.464  0.8630 -0.2025 -0.4839
14913TIP3    H266231   1.113   4.529  13.397  0.2627  1.3115 -0.6205
14914TIP3   OH266232   6.580   4.731   1.780 -0.2416  0.2968  0.0588
14914TIP3    H166233   6.557   4.811   1.733 -0.6537  0.4388  0.4989
14914TIP3    H266234   6.575   4.755   1.873  1.6630  0.3438  0.1940
14915TIP3   OH266235   6.168   5.520  15.766 -0.2492 -0.0740  0.2071
14915TIP3    H166236   6.251   5.521  15.814  0.1837 -0.5532 -0.5187
14915TIP3    H266237   6.128   5.605  15.786  1.7928  1.4938 -1.7659
14916TIP3   OH266238   1.298   2.125   0.968  0.5640  0.1692  0.4202
14916TIP3    H166239   1.260   2.080   1.043  4.5444  0.4194  2.9224
14916TIP3    H266240   1.304   2.057   0.900  0.7226 -1.3789  1.8939
14917TIP3   OH266241   3.906   1.313  11.948  0.1741  0.2240  0.7881
14917TIP3    H166242   3.890   1.408  11.946 -0.8412  0.0507  0.3464
14917TIP3    H266243   3.843   1.277  11.887  0.3366 -0.7810  1.2045
14918TIP3   OH266244   2.713   5.765  11.486 -1.0886  0.1915 -0.0840
14918TIP3    H166245   2.769   5.812  11.548 -0.2737 -1.5541  0.5785
14918TIP3    H266246   2.772   5.742  11.413 -0.3470 -3.1272  1.3695
14919TIP3   OH266247   2.496   0.337   1.551  0.2346  0.1430  0.1903
14919TIP3    H166248   2.404   0.341   1.579  0.2756  1.9054  0.2239
14919TIP3    H266249   2.538   0.280   1.616 -0.9983 -1.5307 -0.4218
14920TIP3   OH266250   0.233   2.191   3.359  0.7760  0.5805  0.5465
14920TIP3    H166251   0.218   2.223   3.271 -0.0320  1.1829  0.8924
14920TIP3    H266252   0.318   2.148   3.355  0.3079 -0.2820 -0.7624
14921TIP3   OH266253   1.674   0.485  16.551 -0.4640 -0.2609  0.1276
14921TIP3    H166254   1.639   0.552  16.611  1.9587  1.3645 -0.1461
14921TIP3    H266255   1.725   0.427  16.608 -0.6288 -0.4961  0.0362
14922TIP3   OH266256   4.611   2.267  11.920  0.2385  0.4041 -0.2133
14922TIP3    H166257   4.593   2.354  11.956 -2.0593 -0.6796  1.5283
14922TIP3    H266258   4.707   2.265  11.910  0.4073  2.9058  0.1969
14923TIP3   OH266259   5.358   4.837   1.494  0.9487 -0.3463 -0.1685
14923TIP3    H166260   5.452   4.854   1.487  0.8870  0.2069  0.2507
14923TIP3    H266261   5.332   4.813   1.406  1.7132 -1.7524 -0.0412
14924TIP3   OH266262   4.791   1.169  15.869 -0.2631  0.2152  1.0028
14924TIP3    H166263   4.775   1.216  15.950 -0.4265 -0.2228  1.2301
14924TIP3    H266264   4.850   1.226  15.819  0.5335  0.1070  1.7899
14925TIP3   OH266265   0.675   4.036   4.191  0.4854 -0.1686  0.5362
14925TIP3    H166266   0.700   3.944   4.197  2.7887  0.3355 -0.4540
14925TIP3    H266267   0.739   4.082   4.246  1.6157  1.1555 -1.7738
14926TIP3   OH266268   2.996   2.681  14.838 -0.4011  0.1098 -0.6082
14926TIP3    H166269   2.964   2.759  14.792 -1.4942  1.2173  1.8636
14926TIP3    H266270   3.089   2.699  14.854 -0.6071  0.8683 -0.1936
14927TIP3   OH266271   3.896   3.683   4.190 -0.3557  0.1416  0.0024
14927TIP3    H166272   3.860   3.770   4.209  1.5129  0.9740 -0.0769
14927TIP3    H266273   3.914   3.645   4.277 -1.7084 -0.4375  0.0543
14928TIP3   OH266274   6.596   1.148  12.045  0.3624  0.1377 -0.2397
14928TIP3    H166275   6.584   1.062  12.083  0.8053  0.5079  0.7727
14928TIP3    H266276   6.563   1.209  12.111 -1.8923  0.7084 -1.7655
14929TIP3   OH266277   0.071   2.856   0.336 -0.2566 -0.1527 -0.3900
14929TIP3    H166278   0.027   2.805   0.404  0.3284  0.8740  0.7830
14929TIP3    H266279   0.008   2.924   0.312 -0.1337 -0.0043 -0.2854
14930TIP3   OH266280   4.042   6.631   2.019 -0.1909  0.3089 -0.5985
14930TIP3    H166281   4.015   6.690   1.949 -1.3591 -0.8427 -1.1565
14930TIP3    H266282   4.126   6.595   1.989 -0.0774  0.7549 -0.8228
14931TIP3   OH266283   6.077   5.428   0.895  0.6845  0.2528  0.1421
14931TIP3    H166284   6.143   5.495   0.915  1.7124  0.0550 -2.1911
14931TIP3    H266285   6.118   5.375   0.826 -1.3068 -0.8863 -0.2290
14932TIP3   OH266286   5.315   3.421   0.984 -0.0462  0.1812 -0.1536
14932TIP3    H166287   5.271   3.362   0.923 -1.1522  1.8327 -1.0403
14932TIP3    H266288   5.389   3.456   0.935 -0.5227  0.9700 -0.3331
14933TIP3   OH266289   5.464   2.316   3.077  0.9091 -0.0944 -0.1292
14933TIP3    H166290   5.471   2.233   3.125 -0.1581 -0.3513 -0.3920
14933TIP3    H266291   5.422   2.292   2.995  0.7978  0.6788 -0.3009
14934TIP3   OH266292   3.399   5.599  14.720 -0.4707  0.2909 -0.1091
14934TIP3    H166293   3.394   5.600  14.624  0.6971 -1.9974 -0.2703
14934TIP3    H266294   3.456   5.524  14.740 -1.1404  0.3612  2.3974
14935TIP3   OH266295   4.486   4.629  14.136  0.5220  0.3222 -0.3951
14935TIP3    H166296   4.579   4.649  14.146  0.3776  0.5695  0.5065
14935TIP3    H266297   4.483   4.534  14.121  0.9068  0.3000 -0.3201
14936TIP3   OH266298   5.062   2.867   0.070  0.1656 -0.2154  0.6336
14936TIP3    H166299   5.148   2.908   0.063  0.4989 -1.1541 -1.4488
14936TIP3    H266300   5.080   2.773   0.058 -1.1164 -0.4464  0.4168
14937TIP3   OH266301   5.798   6.352   5.705  0.2399  0.0164 -0.4588
14937TIP3    H166302   5.798   6.359   5.801  1.6343  0.4152 -0.4533
14937TIP3    H266303   5.738   6.281   5.686 -1.4255  1.0726  0.6009
14938TIP3   OH266304   3.976   1.256   3.715  0.0017  0.2301 -0.1686
14938TIP3    H166305   4.027   1.336   3.730 -0.4351  0.4353  0.2513
14938TIP3    H266306   3.891   1.274   3.755 -0.3177 -0.2046 -0.6468
14939TIP3   OH266307   3.808   6.184   5.754  0.4575  0.1777 -0.1282
14939TIP3    H166308   3.837   6.204   5.843  0.0285  0.7181 -0.1093
14939TIP3    H266309   3.793   6.089   5.755 -1.6902  0.4732  1.0169
14940TIP3   OH266310   0.838   2.516   0.430 -0.5244  0.0080 -0.0608
14940TIP3    H166311   0.869   2.538   0.518 -2.4172 -1.3268  0.9956
14940TIP3    H266312   0.867   2.426   0.416  0.2882  0.4039 -1.0986
14941TIP3   OH266313   0.305   5.393  13.455 -0.0600 -0.0017  0.3601
14941TIP3    H166314   0.277   5.303  13.468  0.9888 -0.5818 -1.0914
14941TIP3    H266315   0.380   5.386  13.396  0.1540  1.8124  0.3661
14942TIP3   OH266316   3.140   1.972   4.009 -0.1165 -0.2388  0.4373
14942TIP3    H166317   3.195   2.039   3.969 -0.9430  0.6367  0.7467
14942TIP3    H266318   3.165   1.971   4.101 -1.0441  0.6133  0.7121
14943TIP3   OH266319   3.498   5.859  12.008 -0.3360  0.3782  0.6735
14943TIP3    H166320   3.589   5.830  12.000  0.0271  0.7782  2.7206
14943TIP3    H266321   3.503   5.954  12.001 -0.6231  0.3795  0.5050
14944TIP3   OH266322   3.468   1.885   0.667  0.8658 -0.1170  0.7298
14944TIP3    H166323   3.536   1.935   0.621  0.3468 -0.2625 -0.2414
14944TIP3    H266324   3.392   1.942   0.667  0.3443 -0.7699 -0.1620
14945TIP3   OH266325   4.889   1.634  15.540  0.4559 -0.3585  0.0926
14945TIP3    H166326   4.975   1.633  15.583 -0.9812  0.6130  3.2668
14945TIP3    H266327   4.849   1.717  15.568 -1.6257 -0.8997 -1.0769
14946TIP3   OH266328   1.125   0.742  14.905  0.5131  0.1938  0.0155
14946TIP3    H166329   1.088   0.768  14.990  1.9367  0.1335  0.6723
14946TIP3    H266330   1.122   0.646  14.906  2.3461  0.1001  0.8805
14947TIP3   OH266331   5.653   2.508  14.659 -0.1140  0.6859  0.4786
14947TIP3    H166332   5.581   2.555  14.701  0.0564  0.4524  1.0533
14947TIP3    H266333   5.692   2.572  14.599 -1.9464  0.2512 -1.2527
14948TIP3   OH266334   6.014   0.460   3.017  0.6315 -0.2705  0.6593
14948TIP3    H166335   5.977   0.454   2.929 -0.3498 -2.3141  1.1314
14948TIP3    H266336   6.084   0.395   3.018 -1.2146 -2.4359  2.1192
14949TIP3   OH266337   6.241   1.725   5.790  0.1972 -0.1882  0.3006
14949TIP3    H166338   6.239   1.632   5.816  0.7564 -0.2471  0.1498
14949TIP3    H266339   6.154   1.741   5.752  0.8237 -1.2662 -1.7400
14950TIP3   OH266340   3.188   5.752  12.870 -0.3681 -0.7055 -0.6013
14950TIP3    H166341   3.258   5.725  12.929  0.5269  0.0476 -1.2820
14950TIP3    H266342   3.118   5.783  12.928  0.6012  0.2812  0.0803
14951TIP3   OH266343   0.566   1.612  11.037  0.5317 -0.5760 -0.4395
14951TIP3    H166344   0.575   1.658  10.954  0.3541  1.5674  0.6429
14951TIP3    H266345   0.503   1.665  11.087  0.0724 -2.2016  0.7903
14952TIP3   OH266346   3.486   0.109  16.090 -0.5279 -0.6813 -0.5119
14952TIP3    H166347   3.472   0.034  16.148 -0.0445 -0.9300 -0.7127
14952TIP3    H266348   3.397   0.134  16.063 -0.7064 -1.0689 -0.3034
14953TIP3   OH266349   3.252   3.417   1.706 -0.3108 -0.2964  0.1237
14953TIP3    H166350   3.214   3.502   1.730  0.6185  0.0566  0.3762
14953TIP3    H266351   3.244   3.413   1.611 -1.1311 -0.3057  0.1883
14954TIP3   OH266352   6.382   2.265   5.221  0.3654  0.0313 -0.0555
14954TIP3    H166353   6.318   2.242   5.153 -1.0193  1.8190  0.5487
14954TIP3    H266354   6.328   2.291   5.296  1.8481 -0.0512  1.0757
14955TIP3   OH266355   2.326   0.723  15.902  0.3779 -0.1638  0.3298
14955TIP3    H166356   2.262   0.792  15.920 -0.5971 -0.6230 -1.2321
14955TIP3    H266357   2.324   0.668  15.981 -3.3235 -1.7928 -0.6839
14956TIP3   OH266358   0.324   0.702  13.991  0.3638 -0.1586 -0.6054
14956TIP3    H166359   0.310   0.742  14.077  4.2441  1.1202 -0.3539
14956TIP3    H266360   0.261   0.745  13.933 -0.2722  1.2083  1.0327
14957TIP3   OH266361   4.404   6.194   4.535  0.3958 -0.2050  0.0366
14957TIP3    H166362   4.472   6.150   4.585  1.4673  0.5197 -0.7572
14957TIP3    H266363   4.354   6.243   4.600  1.6912  0.6275  0.4383
14958TIP3   OH266364   1.626   6.529   3.912  0.4287  0.1729 -0.4754
14958TIP3    H166365   1.662   6.443   3.932  0.4634  0.3622  0.2984
14958TIP3    H266366   1.538   6.511   3.878 -0.9713 -0.0753  2.8430
14959TIP3   OH266367   0.496   4.687   2.533  0.1736  0.0521 -0.3124
14959TIP3    H166368   0.472   4.770   2.491  2.0796 -0.0760 -1.7865
14959TIP3    H266369   0.509   4.626   2.460  0.2714 -1.1368  0.6717
14960TIP3   OH266370   1.738   6.729  10.843 -0.4418  0.1222 -0.1324
14960TIP3    H166371   1.677   6.802  10.828  1.0240  1.0699 -1.9925
14960TIP3    H266372   1.707   6.659  10.786  0.5635  0.8822 -1.6919
14961TIP3   OH266373   5.634   4.288   3.779 -0.4149 -0.2935 -0.4993
14961TIP3    H166374   5.627   4.202   3.739  0.1743 -0.1264 -0.9821
14961TIP3    H266375   5.616   4.349   3.708 -0.8348 -0.0195 -0.1593
14962TIP3   OH266376   6.177   5.653   3.133 -0.0857  0.7978  0.4664
14962TIP3    H166377   6.121   5.721   3.096 -0.1394  0.2395 -0.4873
14962TIP3    H266378   6.264   5.671   3.098 -0.1442  0.2405  0.0355
14963TIP3   OH266379   6.021   0.503  10.519 -0.0243 -0.0133  0.6274
14963TIP3    H166380   6.009   0.504  10.424  0.3148  0.7743  0.5877
14963TIP3    H266381   5.944   0.457  10.552 -0.6925  0.6651  0.0469
14964TIP3   OH266382   2.249   1.724   1.116  0.0505  0.0515 -0.3046
14964TIP3    H166383   2.188   1.796   1.103  0.7231  0.5983 -0.4724
14964TIP3    H266384   2.230   1.663   1.045 -0.5789  0.0188 -0.1109
14965TIP3   OH266385   2.707   3.024  14.182  0.2298 -0.3626  0.1748
14965TIP3    H166386   2.792   2.982  14.175  0.0245 -1.0807  1.6399
14965TIP3    H266387   2.652   2.961  14.229 -1.0139  0.2313 -0.4238
14966TIP3   OH266388   6.397   2.709  10.560  0.1714 -0.1328  0.0380
14966TIP3    H166389   6.354   2.681  10.641 -0.0625 -1.1999 -0.4310
14966TIP3    H266390   6.460   2.775  10.588 -0.0592 -0.3220  1.0628
14967TIP3   OH266391   0.367   2.900   4.364 -0.0368 -0.5158 -0.2546
14967TIP3    H166392   0.290   2.950   4.391 -1.2455 -1.4171 -1.8539
14967TIP3    H266393   0.357   2.816   4.408 -0.7075 -1.0985 -1.4515
14968TIP3   OH266394   3.511   2.813  12.147 -0.0608 -0.6720 -0.6260
14968TIP3    H166395   3.553   2.896  12.122  0.3242 -0.4158  0.7725
14968TIP3    H266396   3.486   2.826  12.238 -2.7141 -1.0320 -1.2342
14969TIP3   OH266397   0.858   1.970  16.576 -0.3552 -0.6575  0.5694
14969TIP3    H166398   0.809   1.889  16.592 -1.5553 -0.1114 -0.1149
14969TIP3    H266399   0.795   2.040  16.596  0.1141  0.0758 -0.4137
14970TIP3   OH266400   0.498   0.991  13.268  0.3016  0.2256  0.0064
14970TIP3    H166401   0.469   1.080  13.286  0.6247  0.6955 -1.6759
14970TIP3    H266402   0.563   0.973  13.336  1.8132  2.0837 -0.8625
14971TIP3   OH266403   1.526   0.257  11.229  0.6004 -0.3493  0.4029
14971TIP3    H166404   1.496   0.347  11.221 -0.4680 -0.7951 -1.2439
14971TIP3    H266405   1.450   0.209  11.260  0.7191 -0.9021 -0.1348
14972TIP3   OH266406   5.694   3.105   0.553  0.1237 -0.8042 -0.7806
14972TIP3    H166407   5.747   3.184   0.560  0.9901 -1.4830  0.9338
14972TIP3    H266408   5.757   3.033   0.558 -0.8176 -1.6073 -0.1354
14973TIP3   OH266409   4.711   5.090  10.946  0.2603 -0.2019  0.2426
14973TIP3    H166410   4.768   5.160  10.978 -1.3462  1.7394 -0.8562
14973TIP3    H266411   4.668   5.127  10.869 -0.8788 -2.3318 -0.2412
14974TIP3   OH266412   6.117   6.131  14.646  0.2521 -0.0840 -0.4198
14974TIP3    H166413   6.144   6.191  14.716 -1.0410  0.3667 -0.2901
14974TIP3    H266414   6.099   6.189  14.572 -0.1925 -0.3865 -0.5515
14975TIP3   OH266415   3.176   4.225  16.223 -0.1704 -0.7976 -0.2323
14975TIP3    H166416   3.091   4.199  16.188  0.6028 -3.2467 -0.4499
14975TIP3    H266417   3.220   4.268  16.150 -1.0885  0.2811 -0.1850
14976TIP3   OH266418   6.805   1.666   1.602 -0.4894  0.1082  0.8727
14976TIP3    H166419   6.877   1.710   1.648 -0.3285 -0.0104  0.7350
14976TIP3    H266420   6.729   1.679   1.659 -0.4841  0.7181  0.7465
14977TIP3   OH266421   0.190   4.022  14.602  0.2667  0.2510  0.3234
14977TIP3    H166422   0.267   4.022  14.658 -0.7283 -2.0970  1.8964
14977TIP3    H266423   0.127   4.079  14.647 -0.0983 -0.6475  0.9878
14978TIP3   OH266424   1.715   0.698  14.097 -0.7268  0.0706  0.1700
14978TIP3    H166425   1.688   0.681  14.007  3.0795  0.1261 -1.1637
14978TIP3    H266426   1.778   0.771  14.090  0.6306 -0.7320  2.6642
14979TIP3   OH266427   5.139   0.541   6.335  0.0801  0.3029  0.0180
14979TIP3    H166428   5.161   0.634   6.337  0.3788  0.2293  0.1541
14979TIP3    H266429   5.212   0.497   6.378 -0.6547  0.1264  1.1382
14980TIP3   OH266430   1.107   5.505  17.175 -0.0023 -0.5628  0.3345
14980TIP3    H166431   1.092   5.454  17.255 -0.1779 -0.7582  0.1803
14980TIP3    H266432   1.112   5.439  17.106 -1.5616 -0.3047 -0.0715
14981TIP3   OH266433   1.890   2.025  12.619 -0.4343 -0.0946  0.3249
14981TIP3    H166434   1.911   1.958  12.684  1.5323  0.6643  0.5225
14981TIP3    H266435   1.867   2.103  12.671  2.7237  1.0154  0.2571
14982TIP3   OH266436   6.583   5.823  15.772  0.0464 -0.2065  0.6140
14982TIP3    H166437   6.565   5.784  15.858 -0.1551 -1.3525  0.0769
14982TIP3    H266438   6.648   5.891  15.790  2.2582 -2.3398  1.3464
14983TIP3   OH266439   1.822   6.804  15.113 -0.0371 -0.1169  0.3798
14983TIP3    H166440   1.854   6.795  15.023 -1.5844 -0.8447 -0.1449
14983TIP3    H266441   1.893   6.769  15.167  1.5118  1.6283 -0.4103
14984TIP3   OH266442   6.735   5.509   4.605  0.2076 -0.4625  0.0773
14984TIP3    H166443   6.652   5.557   4.606  0.6591  0.3844  1.9494
14984TIP3    H266444   6.766   5.517   4.515 -0.7097  1.0668 -0.1516
14985TIP3   OH266445   0.204   5.560   2.616  0.7398 -0.3074 -0.4848
14985TIP3    H166446   0.290   5.534   2.582  1.3552 -1.1849  1.6380
14985TIP3    H266447   0.222   5.599   2.701 -0.8694  0.8424 -0.6096
14986TIP3   OH266448   2.754   4.415  13.647  0.2532  0.6640  0.4092
14986TIP3    H166449   2.744   4.382  13.558  0.7485 -2.6600  1.4485
14986TIP3    H266450   2.835   4.375  13.679  1.2272  3.4490  1.7444
14987TIP3   OH266451   1.063   0.352   1.772  0.0227 -0.6841 -0.2112
14987TIP3    H166452   1.081   0.377   1.863 -0.4326  1.8240 -0.7449
14987TIP3    H266453   1.149   0.351   1.731  0.2899 -2.3286  0.3153
14988TIP3   OH266454   3.642   1.006   3.165 -0.0096 -0.3538  1.1047
14988TIP3    H166455   3.650   0.917   3.198  0.0329 -0.8078 -0.0722
14988TIP3    H266456   3.727   1.046   3.184  0.3162 -0.8762  0.7858
14989TIP3   OH266457   6.392   4.352   4.537  0.7432 -0.1839  0.4941
14989TIP3    H166458   6.436   4.271   4.561  1.3510 -0.3192 -0.9631
14989TIP3    H266459   6.299   4.330   4.534  0.5765 -0.0720  2.9134
14990TIP3   OH266460   6.356   6.488  16.341  0.4144 -0.1791  0.6418
14990TIP3    H166461   6.362   6.561  16.403  1.1676 -0.9530  1.5053
14990TIP3    H266462   6.270   6.498  16.300  0.7048  1.4817  0.3634
14991TIP3   OH266463   0.312   6.427  12.483  0.0337 -0.2375 -0.1904
14991TIP3    H166464   0.386   6.487  12.474  1.8116 -2.2183  0.4337
14991TIP3    H266465   0.335   6.373  12.558 -1.8770 -1.2005 -0.2574
14992TIP3   OH266466   6.566   3.043   1.307  0.5308 -0.6597 -0.3528
14992TIP3    H166467   6.596   3.132   1.328 -1.3743  0.2041 -1.0297
14992TIP3    H266468   6.622   2.986   1.359  1.5601  0.9532  0.4046
14993TIP3   OH266469   3.005   0.212   2.572  0.0843 -0.4661  0.1485
14993TIP3    H166470   3.074   0.147   2.560 -0.8318 -1.9438  2.2031
14993TIP3    H266471   3.052   0.292   2.595  1.1747 -1.2527  0.7636
14994TIP3   OH266472   0.245   5.062   3.377  0.2378  0.4033  0.2437
14994TIP3    H166473   0.324   5.020   3.345 -0.0965 -0.6380  0.7361
14994TIP3    H266474   0.193   4.990   3.415 -1.1261  0.9849 -0.4434
14995TIP3   OH266475   2.896   3.900  14.927 -0.2062  0.0649  0.0676
14995TIP3    H166476   2.889   3.959  14.852  0.4209  0.1045  0.0411
14995TIP3    H266477   2.908   3.813  14.888 -1.4314 -0.1374  0.1004
14996TIP3   OH266478   3.765   2.721  13.270  0.1122 -0.1913 -0.5577
14996TIP3    H166479   3.844   2.773  13.287 -0.6819  2.0722 -3.1452
14996TIP3    H266480   3.697   2.764  13.322 -0.0983  0.0091 -0.9949
14997TIP3   OH266481   4.956   5.279   4.215 -0.1114 -0.2297 -0.4294
14997TIP3    H166482   4.946   5.263   4.308 -0.0948  1.4069 -0.1166
14997TIP3    H266483   5.021   5.215   4.185  0.0072 -0.6472  0.7013
14998TIP3   OH266484   0.286   0.091   5.432  0.2402  0.0892  0.0171
14998TIP3    H166485   0.298   0.069   5.525 -0.1103 -0.2819 -0.0258
14998TIP3    H266486   0.366   0.060   5.390  0.0151 -0.5560  0.0548
14999TIP3   OH266487   0.745   0.560   3.152  0.4157 -0.5515 -0.3012
14999TIP3    H166488   0.705   0.610   3.222 -0.9903 -0.0285 -1.4155
14999TIP3    H266489   0.732   0.468   3.177  1.1354 -0.3707  0.7504
15000TIP3   OH266490   3.703   5.716   4.943 -0.2171  0.1873  0.0489
15000TIP3    H166491   3.659   5.800   4.956 -1.9772 -0.4667 -1.2670
15000TIP3    H266492   3.796   5.739   4.938 -0.7317  2.2734 -1.6487
15001TIP3   OH266493   6.601   4.027   0.856 -0.2686 -0.0100  0.3230
15001TIP3    H166494   6.660   4.082   0.909  0.0458  0.3749 -0.4206
15001TIP3    H266495   6.545   4.089   0.810  0.9406 -0.2307 -1.5238
15002TIP3   OH266496   1.196   4.802   5.301 -0.1511 -0.2710  0.3934
15002TIP3    H166497   1.247   4.765   5.373  0.4243  0.0095  0.1382
15002TIP3    H266498   1.203   4.897   5.314  0.8066 -0.1906 -0.6061
15003TIP3   OH266499   1.357   1.970  10.459 -0.6938  0.0833  0.1192
15003TIP3    H166500   1.415   1.951  10.385 -0.6826 -2.4120  0.6886
15003TIP3    H266501   1.270   1.976  10.420 -0.6119 -0.6395 -0.1945
15004TIP3   OH266502   3.409   3.648  15.522  0.3159  0.3408 -0.0004
15004TIP3    H166503   3.363   3.704  15.584 -1.2965 -1.3122  0.3999
15004TIP3    H266504   3.348   3.639  15.449  0.5293 -0.8367 -0.0575
15005TIP3   OH266505   1.772   2.695  11.581  0.1902  0.3288 -0.2053
15005TIP3    H166506   1.795   2.626  11.519  0.5444 -0.3155  0.6121
15005TIP3    H266507   1.730   2.648  11.654  0.1183  1.0153  0.1985
15006TIP3   OH266508   1.681   4.093  14.497 -0.5591 -0.0448 -0.4028
15006TIP3    H166509   1.588   4.068  14.500 -0.8771  1.0788 -0.0928
15006TIP3    H266510   1.713   4.076  14.586 -0.7804  0.6103 -0.1866
15007TIP3   OH266511   3.497   5.479   3.076  0.1425  0.3265 -0.0988
15007TIP3    H166512   3.576   5.522   3.108  1.2936 -1.7163  0.0005
15007TIP3    H266513   3.486   5.403   3.133 -0.5581 -0.7031 -1.5385
15008TIP3   OH266514   2.229   2.068   4.536  0.3307 -0.5966 -0.8156
15008TIP3    H166515   2.246   2.125   4.461 -0.7876  0.5039 -0.2672
15008TIP3    H266516   2.157   2.012   4.507 -0.8615  0.5735 -0.2382
15009TIP3   OH266517   2.681   5.907   4.375  0.2760  0.3413 -0.1211
15009TIP3    H166518   2.625   5.893   4.451 -0.0754 -0.0600 -0.4501
15009TIP3    H266519   2.635   5.974   4.324 -0.0022 -0.1256 -0.4867
15010TIP3   OH266520   3.401   2.492   5.746 -0.2035  0.2301  0.2767
15010TIP3    H166521   3.394   2.565   5.685  2.4249  1.5421  1.3912
15010TIP3    H266522   3.355   2.521   5.824  1.6265  1.1853  1.0600
15011TIP3   OH266523   0.653   4.602  14.614  0.2893 -0.3191  0.4472
15011TIP3    H166524   0.657   4.612  14.519 -0.7059  0.1509  0.4388
15011TIP3    H266525   0.564   4.570  14.631  0.3729 -0.1579  1.2367
15012TIP3   OH266526   4.603   0.240   5.257  0.3858 -0.4755 -0.3681
15012TIP3    H166527   4.682   0.292   5.249  0.7459 -0.6795  1.3658
15012TIP3    H266528   4.532   0.304   5.267  0.5905 -0.3056 -0.0111
15013TIP3   OH266529   5.732   0.015  11.599  0.2173 -0.1314 -0.1272
15013TIP3    H166530   5.762   0.020  11.690 -1.8200  1.1611  0.5421
15013TIP3    H266531   5.738  -0.078  11.577  0.6136 -0.4961  1.3912
15014TIP3   OH266532   3.097   1.177   1.004  0.2924 -0.1038  0.3084
15014TIP3    H166533   3.024   1.224   0.963  0.1155 -1.6188 -1.2144
15014TIP3    H266534   3.149   1.246   1.045  0.1756  1.4902 -2.0138
15015TIP3   OH266535   1.114   1.944   4.288  0.1138  0.4509  0.3744
15015TIP3    H166536   1.206   1.922   4.300 -0.1545 -0.3734  0.9990
15015TIP3    H266537   1.113   2.039   4.277  1.0265  0.4747  0.4708
15016TIP3   OH266538   2.007   1.670   3.840 -0.1213 -0.2481  0.5864
15016TIP3    H166539   1.945   1.597   3.843  0.9626 -1.2985 -0.9519
15016TIP3    H266540   2.092   1.628   3.832  0.4603  1.1720 -1.1613
15017TIP3   OH266541   5.775   3.878   2.172  0.8314  0.1385 -0.0287
15017TIP3    H166542   5.865   3.847   2.164  0.9610  0.7211 -1.0034
15017TIP3    H266543   5.782   3.974   2.171  0.1763  0.1896 -0.5509
15018TIP3   OH266544   3.513   6.122  11.950  0.3667 -0.1494  0.0720
15018TIP3    H166545   3.593   6.139  11.901  0.8622  2.5641  1.6119
15018TIP3    H266546   3.524   6.171  12.031 -1.9469 -1.5047  1.3032
15019TIP3   OH266547   2.749   5.735  15.249 -0.3679 -0.0406  0.0524
15019TIP3    H166548   2.746   5.640  15.261 -0.6346  0.1533  1.7528
15019TIP3    H266549   2.841   5.758  15.263 -0.0377 -0.1708 -1.6868
15020TIP3   OH266550   0.538   3.622  15.753  0.0802 -0.1689 -0.0424
15020TIP3    H166551   0.532   3.684  15.681 -0.6463  0.2496  0.3623
15020TIP3    H266552   0.569   3.541  15.714  2.8164  0.9008 -0.3262
15021TIP3   OH266553   5.553   6.760  15.954 -0.2321  0.5571  0.4654
15021TIP3    H166554   5.513   6.705  15.887  0.4925  1.1089 -0.4611
15021TIP3    H266555   5.496   6.837  15.959  0.9489  1.6204 -1.2860
15022TIP3   OH266556   1.309   3.527  13.228 -0.0463  0.1276  0.1181
15022TIP3    H166557   1.400   3.540  13.201 -0.1567 -1.1301 -1.0206
15022TIP3    H266558   1.289   3.437  13.200 -1.7058  0.4589  0.1195
15023TIP3   OH266559   5.230   1.247   6.155 -0.0770 -0.1791  0.1283
15023TIP3    H166560   5.250   1.283   6.241 -2.0298  1.1330  0.0993
15023TIP3    H266561   5.135   1.235   6.156 -0.0003 -1.1342 -1.4802
15024TIP3   OH266562   6.586   1.697   1.240  0.3702  0.2162 -0.0765
15024TIP3    H166563   6.572   1.605   1.265  0.1849 -0.1741 -1.5348
15024TIP3    H266564   6.524   1.746   1.294  1.2685 -0.3646  1.5635
15025TIP3   OH266565   1.334   4.305  16.777  0.0509  0.3034  0.3837
15025TIP3    H166566   1.360   4.256  16.855 -1.7071  0.5092  1.1262
15025TIP3    H266567   1.363   4.395  16.795  0.6737  0.1363  0.2690
15026TIP3   OH266568   4.844   4.874   1.816  0.3390  0.5832 -0.1298
15026TIP3    H166569   4.773   4.857   1.754 -0.2186  0.9637  0.3885
15026TIP3    H266570   4.921   4.890   1.762  0.3309 -1.0958 -0.6936
15027TIP3   OH266571   4.860   0.541   5.902  0.0287 -0.1045 -0.1330
15027TIP3    H166572   4.827   0.613   5.957  0.4870 -1.7682  2.5244
15027TIP3    H266573   4.787   0.522   5.842 -1.1531  0.8056  0.9499
15028TIP3   OH266574   3.914   6.052   3.536 -0.2452 -0.1167 -0.2870
15028TIP3    H166575   3.863   6.110   3.480  2.5155  2.0780 -0.7525
15028TIP3    H266576   3.933   6.104   3.614  1.9993 -0.4522 -0.5459
15029TIP3   OH266577   1.163   3.627   2.477  0.2000  0.5813 -0.0721
15029TIP3    H166578   1.141   3.697   2.539  0.8830  0.3761  0.4098
15029TIP3    H266579   1.078   3.594   2.447 -0.1332  0.9945  0.4078
15030TIP3   OH266580   4.713   5.632   2.573 -0.0024 -0.4176 -0.5092
15030TIP3    H166581   4.796   5.587   2.557  0.1221  0.0748 -1.3353
15030TIP3    H266582   4.656   5.602   2.502 -0.4295 -0.4984 -0.1358
15031TIP3   OH266583   2.805   1.439  13.144 -0.5206  0.8246  0.1900
15031TIP3    H166584   2.746   1.513  13.128 -0.9313  0.1068 -1.8444
15031TIP3    H266585   2.747   1.363  13.149  0.1301  0.2646 -0.6531
15032TIP3   OH266586   1.738   0.684  10.235 -0.0259 -0.2671 -0.6574
15032TIP3    H166587   1.696   0.609  10.193 -2.4808  2.1218 -2.8194
15032TIP3    H266588   1.669   0.725  10.287  1.1268  0.7802  0.1077
15033TIP3   OH266589   3.681   5.286   5.596 -0.2037  0.1546 -0.1714
15033TIP3    H166590   3.633   5.289   5.678 -1.5827 -1.1588 -0.8721
15033TIP3    H266591   3.640   5.353   5.541 -0.5367 -0.2269 -0.3980
15034TIP3   OH266592   2.501   0.306  13.373 -0.6805  0.0315 -0.5208
15034TIP3    H166593   2.469   0.349  13.452 -2.1166  0.0625 -1.0966
15034TIP3    H266594   2.540   0.376  13.321  1.5729 -0.2035  0.7422
15035TIP3   OH266595   1.764   1.955   4.212 -0.4066 -0.0129 -0.6950
15035TIP3    H166596   1.766   2.010   4.133 -2.1582  1.4696  0.2119
15035TIP3    H266597   1.791   1.869   4.182  0.6959  0.9134 -2.5544
15036TIP3   OH266598   3.765   6.676   2.919  0.3260 -0.2082 -0.6571
15036TIP3    H166599   3.840   6.617   2.908  0.5537  0.1522 -1.0873
15036TIP3    H266600   3.695   6.619   2.951  0.6747 -0.6215 -0.6048
15037TIP3   OH266601   0.586   6.206   1.589  0.3393  0.4470 -0.3455
15037TIP3    H166602   0.563   6.117   1.562 -0.9367  0.1158  1.6065
15037TIP3    H266603   0.572   6.259   1.511  5.1685 -1.4804 -2.9466
15038TIP3   OH266604   0.695   5.871   3.039 -0.4492 -0.8679 -0.6995
15038TIP3    H166605   0.643   5.825   3.106 -0.9837  0.0613 -0.4558
15038TIP3    H266606   0.784   5.870   3.074 -0.7729 -0.1174  0.2078
15039TIP3   OH266607   5.255   6.096   0.580  0.3763  0.3035 -0.3052
15039TIP3    H166608   5.198   6.073   0.653  1.2173  0.5735  0.4554
15039TIP3    H266609   5.242   6.026   0.516 -1.0020  0.4973 -0.2807
15040TIP3   OH266610   6.306   5.627   0.279  0.5156  0.0852  0.7206
15040TIP3    H166611   6.265   5.628   0.192  0.1557  0.4678  0.8933
15040TIP3    H266612   6.248   5.572   0.332  1.2034 -0.8771  0.4977
15041TIP3   OH266613   6.220   0.842  16.251 -0.0227  0.4329 -0.1374
15041TIP3    H166614   6.136   0.887  16.252 -0.1383  0.2819  2.3978
15041TIP3    H266615   6.197   0.749  16.255  0.2552  0.3863  0.4120
15042TIP3   OH266616   5.515   5.045   2.042  0.7205 -0.2421  0.0003
15042TIP3    H166617   5.581   4.980   2.067  1.3376  0.2443 -0.3172
15042TIP3    H266618   5.551   5.087   1.964  0.6091  0.8687  0.5220
15043TIP3   OH266619   5.080   2.037  16.500 -0.2751  0.0153 -0.1556
15043TIP3    H166620   5.051   2.086  16.577  1.0043  1.7422 -0.7161
15043TIP3    H266621   5.047   1.948  16.514 -0.3340  0.3590  2.2237
15044TIP3   OH266622   1.848   0.837   1.070 -0.1085  0.6670 -0.1913
15044TIP3    H166623   1.923   0.832   1.130 -0.7765  1.2657  0.7250
15044TIP3    H266624   1.872   0.907   1.008  0.8252 -0.3316 -1.0048
15045TIP3   OH266625   3.010   5.302   2.132  1.0276  0.4809  0.3664
15045TIP3    H166626   2.981   5.262   2.050  0.8920 -0.3208  0.7999
15045TIP3    H266627   2.933   5.349   2.164  0.5732 -0.5397  0.8362
15046TIP3   OH266628   1.627   1.560   0.803 -0.1700  0.2067 -0.0207
15046TIP3    H166629   1.637   1.472   0.839  0.0504  0.6212  0.9672
15046TIP3    H266630   1.533   1.576   0.804 -0.4650 -0.9614 -2.5899
15047TIP3   OH266631   3.235   5.615  12.317 -0.2064 -0.1208  0.2053
15047TIP3    H166632   3.275   5.631  12.231  1.0120  1.5827  1.0115
15047TIP3    H266633   3.141   5.622  12.302 -0.1379 -1.6959 -1.2967
15048TIP3   OH266634   3.571   2.315   3.978 -0.6222 -0.4794 -0.4140
15048TIP3    H166635   3.568   2.309   3.882  0.4340 -1.0372 -0.4373
15048TIP3    H266636   3.625   2.240   4.004 -0.4919 -0.0488  0.5853
15049TIP3   OH266637   3.650   5.439   0.962  0.3223 -0.0177 -0.0197
15049TIP3    H166638   3.580   5.418   0.900 -0.4301  1.7743  0.1589
15049TIP3    H266639   3.615   5.415   1.047  0.1468  0.3307  0.0084
15050TIP3   OH266640   0.421   0.807   2.455  0.2901  0.0915 -0.1354
15050TIP3    H166641   0.515   0.794   2.464  0.3582 -1.1814 -2.2432
15050TIP3    H266642   0.391   0.821   2.545  2.1220 -2.1119  0.9246
15051TIP3   OH266643   2.139   5.506  13.424  0.2707  0.1197 -0.3245
15051TIP3    H166644   2.111   5.437  13.364  0.5673 -1.1526  0.9595
15051TIP3    H266645   2.060   5.558  13.438  0.3084  0.7388 -2.1559
15052TIP3   OH266646   6.696   2.306   5.236  0.2876  0.0615 -0.1114
15052TIP3    H166647   6.757   2.241   5.200 -0.4067 -0.3557 -0.5670
15052TIP3    H266648   6.613   2.259   5.241  0.3420  0.1156  2.0088
15053TIP3   OH266649   0.563   5.020  16.631 -0.5348  0.6830  0.3944
15053TIP3    H166650   0.559   5.093  16.570 -0.3250  0.8781  0.6143
15053TIP3    H266651   0.653   5.020  16.663 -0.9353  1.2973  1.5746
15054TIP3   OH266652   3.781   3.058   6.141  0.7867  0.2013 -0.1571
15054TIP3    H166653   3.809   3.053   6.050  0.6621 -1.8450 -0.1314
15054TIP3    H266654   3.754   3.149   6.153  2.2786  0.8961 -1.7005
15055TIP3   OH266655   5.533   1.097  12.730 -0.0090  0.2206  0.1623
15055TIP3    H166656   5.455   1.151  12.720  0.3159  0.7762  0.5651
15055TIP3    H266657   5.606   1.158  12.727  0.2698  0.2079  3.0989
15056TIP3   OH266658   1.275   4.044  16.656 -0.2416  0.0679  0.3785
15056TIP3    H166659   1.288   4.136  16.677 -0.0382  0.3808 -1.0401
15056TIP3    H266660   1.241   4.044  16.567 -2.0031 -1.1485  0.9920
15057TIP3   OH266661   1.862   4.127   0.980  0.3725  0.0747  0.3580
15057TIP3    H166662   1.832   4.137   0.890  0.6684 -0.7106  0.1583
15057TIP3    H266663   1.943   4.178   0.983  0.6876 -0.3921 -0.0016
15058TIP3   OH266664   5.548   1.859   3.994 -0.0318  0.4038  0.2451
15058TIP3    H166665   5.483   1.841   4.062 -0.2559  0.6949  0.1123
15058TIP3    H266666   5.632   1.860   4.041  0.0558 -1.3535  0.1921
15059TIP3   OH266667   4.822   6.196  15.666  0.1294 -0.1877  0.3115
15059TIP3    H166668   4.856   6.243  15.590  2.2375  0.4883  1.5834
15059TIP3    H266669   4.861   6.108  15.660 -0.4826 -0.4485  0.1100
15060TIP3   OH266670   3.940   5.680   2.682  0.4569  0.0744  0.7627
15060TIP3    H166671   4.005   5.663   2.751  0.2167  1.4982  1.3560
15060TIP3    H266672   3.964   5.765   2.646  0.3812 -0.4929 -0.7304
15061TIP3   OH266673   2.328   0.761  10.225  0.1485  0.0623  0.4891
15061TIP3    H166674   2.253   0.705  10.245 -0.0563 -0.0643 -0.6116
15061TIP3    H266675   2.300   0.849  10.249 -0.9812  0.2764 -1.4574
15062TIP3   OH266676   6.723   4.077   1.882  0.8029 -0.2191 -0.3132
15062TIP3    H166677   6.724   4.107   1.973  0.6512 -1.5627  0.1537
15062TIP3    H266678   6.685   4.149   1.833  1.1775  0.6472  0.6473
15063TIP3   OH266679   1.692   1.416  16.696  0.1783  0.2866 -0.5528
15063TIP3    H166680   1.651   1.430  16.610  0.7646  1.8769 -0.6062
15063TIP3    H266681   1.643   1.473  16.755  1.2966  1.0304 -0.3180
15064TIP3   OH266682   1.548   0.340  16.335 -0.6760  1.0356 -0.0036
15064TIP3    H166683   1.566   0.370  16.424 -1.0854  1.6428 -0.1153
15064TIP3    H266684   1.556   0.419  16.281 -2.2543  1.0597 -0.2423
15065TIP3   OH266685   2.149   1.647  15.404 -0.4860  0.1619 -0.0693
15065TIP3    H166686   2.076   1.689  15.449  0.1800  0.8582  0.3754
15065TIP3    H266687   2.127   1.654  15.311 -0.7332  0.8333  0.0385
15066TIP3   OH266688   1.696   2.598  16.903  0.0417  0.0134  0.2918
15066TIP3    H166689   1.627   2.651  16.863  0.5196 -0.3852 -1.1066
15066TIP3    H266690   1.692   2.620  16.996 -0.1075  2.1403 -0.1720
15067TIP3   OH266691   0.807   2.681   4.320  0.2762  0.2936  0.2991
15067TIP3    H166692   0.817   2.758   4.264 -1.0015  1.9901  2.2463
15067TIP3    H266693   0.759   2.713   4.396 -0.6859 -2.5573  1.0157
15068TIP3   OH266694   6.414   1.241  10.932  0.7403 -0.7274 -0.0471
15068TIP3    H166695   6.427   1.147  10.941  0.7081 -0.7087  0.2240
15068TIP3    H266696   6.478   1.279  10.992  0.6687 -0.5807 -0.0631
15069TIP3   OH266697   6.461   4.287   2.527 -0.0261  0.3012 -0.1256
15069TIP3    H166698   6.468   4.192   2.532 -0.6843  0.2650  0.3067
15069TIP3    H266699   6.470   4.307   2.434 -1.6181 -0.3619 -0.4585
15070TIP3   OH266700   4.001   1.073   2.370  0.2930 -0.0367 -0.8275
15070TIP3    H166701   4.072   1.112   2.421 -0.0258  0.9769 -1.1395
15070TIP3    H266702   3.923   1.085   2.424  0.2222 -0.4117 -0.8451
15071TIP3   OH266703   6.680   3.414   5.633  0.3920 -0.2890 -0.0789
15071TIP3    H166704   6.758   3.375   5.672  1.7904  1.5570 -0.8679
15071TIP3    H266705   6.672   3.372   5.547 -0.0548 -1.1505  0.3763
15072TIP3   OH266706   0.202   6.382  14.615  0.4096 -0.0464  0.5289
15072TIP3    H166707   0.140   6.325  14.569  0.5531 -0.5170  0.9111
15072TIP3    H266708   0.183   6.470  14.581  0.5364 -0.3825 -0.4446
15073TIP3   OH266709   5.284   4.948  15.089  0.5083  0.1122 -0.8438
15073TIP3    H166710   5.356   4.973  15.031  0.8114 -1.2198 -1.0967
15073TIP3    H266711   5.213   4.922  15.029  0.2219  0.3197 -0.6011
15074TIP3   OH266712   6.560   1.798   5.851 -0.1379  0.3936  0.2787
15074TIP3    H166713   6.494   1.825   5.914  0.4730  0.2087  1.0087
15074TIP3    H266714   6.619   1.742   5.901  0.1586 -0.0385 -0.5455
15075TIP3   OH266715   2.580   5.991  12.752  1.0213  0.2232  0.1600
15075TIP3    H166716   2.551   5.907  12.718  2.0496  0.1123 -0.5009
15075TIP3    H266717   2.676   5.987  12.747  1.1094  1.1222  0.8752
15076TIP3   OH266718   6.610   2.078   1.481 -0.0576  0.2894  0.1451
15076TIP3    H166719   6.701   2.103   1.471  0.5257 -1.4677  0.7495
15076TIP3    H266720   6.573   2.143   1.541  1.1299  0.2388  0.9359
15077TIP3   OH266721   1.644   3.414   1.742 -0.4853  0.5578  0.2160
15077TIP3    H166722   1.708   3.385   1.807 -1.4309 -1.8341  0.1793
15077TIP3    H266723   1.568   3.440   1.794 -0.2911  1.2426  0.1637
15078TIP3   OH266724   5.080   4.258  13.273 -0.6124 -1.0458  0.5437
15078TIP3    H166725   5.165   4.286  13.308 -0.5223  1.4689 -1.3322
15078TIP3    H266726   5.103   4.202  13.199 -0.4333  0.8059 -0.8829
15079TIP3   OH266727   2.775   4.149  16.362  0.2155 -0.1253 -0.1952
15079TIP3    H166728   2.848   4.210  16.347  0.4190 -0.7188 -1.8472
15079TIP3    H266729   2.792   4.076  16.302 -0.6524 -1.2548  0.8928
15080TIP3   OH266730   5.511   6.664   0.387 -0.2451  0.1907  0.2949
15080TIP3    H166731   5.423   6.662   0.424 -1.8477  1.9777 -2.9352
15080TIP3    H266732   5.498   6.690   0.296  3.5400 -1.0741 -0.8088
15081TIP3   OH266733   4.211   3.417   3.392 -0.3934 -0.0707 -0.4967
15081TIP3    H166734   4.267   3.486   3.428  0.0601  0.1817 -1.6381
15081TIP3    H266735   4.135   3.464   3.358  0.2037 -0.0454 -1.8373
15082TIP3   OH266736   5.880   4.188   5.549  0.0107 -0.5005  0.6049
15082TIP3    H166737   5.902   4.202   5.641  0.4800 -0.4090  0.4797
15082TIP3    H266738   5.949   4.232   5.500 -1.1491  0.9207  0.1830
15083TIP3   OH266739   5.841   6.299   2.842 -0.7176  0.3291 -0.3304
15083TIP3    H166740   5.840   6.355   2.919  0.0064 -0.4747  0.2837
15083TIP3    H266741   5.930   6.305   2.808 -1.4811  2.1866 -2.2928
15084TIP3   OH266742   0.901   2.540  13.278 -0.2008 -0.0673  0.1901
15084TIP3    H166743   0.976   2.499  13.237  0.2839 -0.5189  1.4847
15084TIP3    H266744   0.850   2.468  13.314 -1.1210  0.2540 -0.4261
15085TIP3   OH266745   6.529   2.753  12.410 -0.4257  0.2289 -0.0818
15085TIP3    H166746   6.446   2.706  12.396 -0.8138  0.9048 -0.1080
15085TIP3    H266747   6.502   2.841  12.436  0.2926  0.3175  0.3825
15086TIP3   OH266748   1.844   3.321   4.345 -0.6041 -0.8614  0.4036
15086TIP3    H166749   1.758   3.279   4.340 -0.5614 -0.9246  0.2190
15086TIP3    H266750   1.870   3.334   4.254  0.0637 -1.8244  0.4533
15087TIP3   OH266751   3.722   5.376  13.748 -0.8402  0.3042 -0.1358
15087TIP3    H166752   3.698   5.461  13.783  0.1431  0.6387 -0.2418
15087TIP3    H266753   3.697   5.314  13.817 -1.8266  0.6323 -0.1784
15088TIP3   OH266754   3.547   4.107   0.180 -0.0685 -0.2908  0.8412
15088TIP3    H166755   3.528   4.167   0.252 -2.8721 -1.3589  1.1046
15088TIP3    H266756   3.477   4.123   0.116  2.9604  1.4765 -2.3430
15089TIP3   OH266757   2.626   2.793   3.708 -0.1302  0.2636  0.3693
15089TIP3    H166758   2.609   2.763   3.618 -1.6083  1.0422  0.3636
15089TIP3    H266759   2.685   2.727   3.744 -1.4912 -1.4587 -0.3690
15090TIP3   OH266760   4.979   4.547  12.634  0.1971 -0.8332 -0.2469
15090TIP3    H166761   5.053   4.547  12.695  0.7136  0.1033 -0.8338
15090TIP3    H266762   4.920   4.480  12.667  0.2624 -0.0629  1.5325
15091TIP3   OH266763   6.095   4.764   2.446  0.3366  0.1168 -0.8528
15091TIP3    H166764   6.171   4.763   2.387  0.7861  0.4509 -0.2971
15091TIP3    H266765   6.119   4.828   2.513 -0.1694 -0.2562 -0.3136
15092TIP3   OH266766   4.730   6.452  15.740  0.6589  0.3588 -0.2568
15092TIP3    H166767   4.790   6.379  15.726 -1.4379 -1.6291  0.5365
15092TIP3    H266768   4.746   6.479  15.830 -0.2778 -0.8846  0.3218
15093TIP3   OH266769   6.161   0.489   2.079  0.1448 -0.7053  0.2236
15093TIP3    H166770   6.147   0.456   1.990 -0.9786 -0.3084  0.2375
15093TIP3    H266771   6.075   0.481   2.121  0.3683  0.2764  0.8877
15094TIP3   OH266772   0.562   5.977   1.414  0.4158 -0.0166 -0.1110
15094TIP3    H166773   0.474   5.940   1.404 -0.5982  1.6806  1.8276
15094TIP3    H266774   0.614   5.908   1.454 -1.0000  0.0486  1.9482
15095TIP3   OH266775   2.690   5.601   2.906 -0.2785 -0.1018  0.0126
15095TIP3    H166776   2.614   5.543   2.911 -0.0856 -0.4990 -1.2364
15095TIP3    H266777   2.668   5.674   2.964 -1.8722  0.0635 -0.7346
15096TIP3   OH266778   3.743   4.008   0.578 -0.8913 -0.0654 -0.0997
15096TIP3    H166779   3.762   4.102   0.583 -1.3610  0.1214 -1.3680
15096TIP3    H266780   3.651   4.004   0.551 -0.5113 -0.8589 -1.3637
15097TIP3   OH266781   4.886   2.844  16.036  0.1499  0.0416  0.4957
15097TIP3    H166782   4.877   2.929  15.993 -1.6836 -0.2192  0.2874
15097TIP3    H266783   4.799   2.825  16.070  0.9024 -1.0533  1.9183
15098TIP3   OH266784   2.759   4.912   4.308 -0.2356 -0.1444  0.6163
15098TIP3    H166785   2.732   4.984   4.251 -0.5513 -2.3435 -2.2622
15098TIP3    H266786   2.676   4.878   4.343 -0.4521 -1.1015 -0.7296
15099TIP3   OH266787   3.357   4.156  17.197  0.4878 -0.5856 -0.1632
15099TIP3    H166788   3.321   4.088  17.140  0.4059 -0.5667 -0.1340
15099TIP3    H266789   3.281   4.197  17.238  0.5156 -0.2356 -0.4519
15100TIP3   OH266790   0.388   1.975  10.911  0.7450 -0.4337  0.2818
15100TIP3    H166791   0.452   1.919  10.866  1.2113  0.7948 -0.6654
15100TIP3    H266792   0.309   1.970  10.856  0.4163 -1.0156  0.7998
15101TIP3   OH266793   4.371   6.749  16.606 -0.1350  0.0422 -0.0087
15101TIP3    H166794   4.401   6.706  16.526 -0.5623  0.4857 -0.4137
15101TIP3    H266795   4.439   6.730  16.670 -0.0817 -0.8237 -0.3131
15102TIP3   OH266796   6.494   4.368  14.962  0.3022 -0.3242  0.2933
15102TIP3    H166797   6.486   4.388  15.055 -1.4899 -1.2153  0.3806
15102TIP3    H266798   6.413   4.403  14.924 -0.0372 -1.9136 -0.5249
15103TIP3   OH266799   4.078   6.165   2.865 -0.7840  0.2205 -0.0324
15103TIP3    H166800   4.046   6.255   2.877 -0.2601  0.7648 -2.1975
15103TIP3    H266801   4.147   6.155   2.931 -0.5774  1.5724 -0.0051
15104TIP3   OH266802   1.266   0.974  12.280  0.4513 -0.0462 -0.1985
15104TIP3    H166803   1.176   0.996  12.303  0.0510 -0.3268 -1.3933
15104TIP3    H266804   1.293   0.909  12.345 -1.6080 -2.9556 -2.0279
15105TIP3   OH266805   2.274   3.074   0.841 -0.3899 -0.3126  0.3847
15105TIP3    H166806   2.307   2.986   0.860  1.3181  0.0843 -0.5646
15105TIP3    H266807   2.351   3.122   0.809 -0.6625  2.2607  3.1773
15106TIP3   OH266808   0.337   2.315  15.208  0.2181 -0.1272 -0.3844
15106TIP3    H166809   0.300   2.244  15.261 -0.1905  0.8344  0.6377
15106TIP3    H266810   0.261   2.365  15.178  0.4841 -0.3005 -1.4127
15107TIP3   OH266811   4.140   3.777   4.824 -0.8011  0.5610  0.2263
15107TIP3    H166812   4.138   3.681   4.828  1.5320  0.4471  0.0951
15107TIP3    H266813   4.196   3.802   4.898  1.0450  1.6003 -1.4324
15108TIP3   OH266814   3.466   0.359  11.971 -0.7170  0.0778 -0.0501
15108TIP3    H166815   3.545   0.354  12.025 -0.4600  0.4493 -0.3859
15108TIP3    H266816   3.493   0.322  11.887 -1.1963 -0.7717  0.1654
15109TIP3   OH266817   0.743   1.364   0.852 -0.2297  0.5472 -0.1543
15109TIP3    H166818   0.766   1.340   0.942 -0.0350  1.6190  0.0962
15109TIP3    H266819   0.728   1.458   0.855 -1.9548  0.3388 -0.9017
15110TIP3   OH266820   0.064   0.816   5.040  0.8631 -0.7818 -0.2398
15110TIP3    H166821   0.133   0.792   4.978  0.8508  0.1892 -0.6438
15110TIP3    H266822   0.003   0.869   4.989  0.9307  0.1561  0.6240
15111TIP3   OH266823   2.285   6.286  16.940  0.6248 -0.1996 -0.8915
15111TIP3    H166824   2.339   6.335  17.003 -0.6588  1.3984 -0.9742
15111TIP3    H266825   2.314   6.196  16.950  1.6812  0.2616  0.7313
15112TIP3   OH266826   0.428   1.462  14.916 -0.4001  0.0372 -0.1066
15112TIP3    H166827   0.397   1.514  14.842  0.2871  1.1720  0.3716
15112TIP3    H266828   0.477   1.524  14.970  1.5573 -1.3759 -0.1465
15113TIP3   OH266829   1.327   3.800  16.746  0.5006 -0.6287 -0.6037
15113TIP3    H166830   1.288   3.883  16.721  1.3654  0.3315  1.0665
15113TIP3    H266831   1.261   3.734  16.725 -1.8545  0.8662  1.6396
15114TIP3   OH266832   0.729   1.563  14.264  0.0545  0.2961 -0.0316
15114TIP3    H166833   0.749   1.616  14.341 -1.6625 -0.3700  0.9252
15114TIP3    H266834   0.806   1.509  14.250  1.0648  1.6579  0.1460
15115TIP3   OH266835   4.235   2.634   2.829 -0.3412  0.1788  0.5786
15115TIP3    H166836   4.173   2.707   2.823  1.4720  1.7887  0.6747
15115TIP3    H266837   4.282   2.649   2.911 -0.7579 -1.8266  1.2446
15116TIP3   OH266838   4.468   4.468  13.355  0.4646  0.3769  0.1092
15116TIP3    H166839   4.434   4.469  13.444 -0.6671 -1.2991 -0.2422
15116TIP3    H266840   4.411   4.528  13.307  0.3514  0.4134  0.2870
15117TIP3   OH266841   4.849   4.668  12.193 -0.1319  0.1367  0.5462
15117TIP3    H166842   4.784   4.610  12.153  1.9768 -1.4081 -0.8551
15117TIP3    H266843   4.911   4.609  12.236  3.2649  1.0094 -2.6643
15118TIP3   OH266844   2.990   4.897   2.967 -0.1387 -0.3587 -0.3366
15118TIP3    H166845   2.957   4.837   2.900  0.1021 -1.4076  0.4475
15118TIP3    H266846   2.911   4.926   3.014 -0.3648  0.8050 -1.3793
15119TIP3   OH266847   2.870   5.879  13.672  0.0878  0.2338  0.5433
15119TIP3    H166848   2.828   5.897  13.756  1.4037  0.8891  1.0851
15119TIP3    H266849   2.962   5.898  13.686  0.5842 -1.0664 -0.6389
15120TIP3   OH266850   1.658   2.403  14.391  0.2465  0.1871 -0.7488
15120TIP3    H166851   1.637   2.463  14.463  0.1024  0.4004 -0.9682
15120TIP3    H266852   1.691   2.324  14.435 -3.6813 -1.3742 -0.1440
15121TIP3   OH266853   1.077   1.674   4.509  0.2324 -0.1120 -0.1869
15121TIP3    H166854   1.051   1.758   4.547  0.3185 -0.2272  0.1240
15121TIP3    H266855   0.995   1.625   4.501 -0.2752  0.9922 -2.8780
15122TIP3   OH266856   5.186   5.374  13.748 -0.4499  0.2623 -0.1753
15122TIP3    H166857   5.238   5.388  13.828 -0.5414  0.7125 -0.1943
15122TIP3    H266858   5.097   5.362  13.780 -0.4940  0.4888 -0.2132
15123TIP3   OH266859   0.587   3.192  12.241  0.0928 -0.0707  0.3283
15123TIP3    H166860   0.501   3.221  12.209 -0.2070 -0.8668  0.3877
15123TIP3    H266861   0.640   3.271  12.242 -0.9622  0.6700  1.3444
15124TIP3   OH266862   2.391   1.826   5.524 -0.2112  0.2238  0.2605
15124TIP3    H166863   2.308   1.814   5.479  0.4452 -1.4921 -0.5623
15124TIP3    H266864   2.371   1.889   5.594 -2.1508 -0.0231 -0.0145
15125TIP3   OH266865   4.422   2.623  15.464 -0.1152  0.3413  0.7881
15125TIP3    H166866   4.354   2.675  15.421 -2.1305 -1.4378  1.6024
15125TIP3    H266867   4.442   2.553  15.401  3.1373  2.3248 -0.6335
15126TIP3   OH266868   1.148   1.296  13.558  0.1057 -0.2036 -0.3176
15126TIP3    H166869   1.216   1.247  13.512  1.2334  0.5429  0.4725
15126TIP3    H266870   1.195   1.342  13.627 -0.7429  2.5388 -1.4210
15127TIP3   OH266871   0.508   3.494   1.660 -0.5368  0.1126  0.0798
15127TIP3    H166872   0.577   3.547   1.620 -0.3163  0.5780  1.0583
15127TIP3    H266873   0.455   3.464   1.586  0.1355  0.5618 -0.5985
15128TIP3   OH266874   4.656   6.209   0.324 -0.0664 -0.2342  0.2345
15128TIP3    H166875   4.620   6.250   0.403 -0.2808 -0.9666  0.5240
15128TIP3    H266876   4.723   6.149   0.357  1.7689  1.3974 -0.3150
15129TIP3   OH266877   4.700   4.843   3.857 -0.3171 -0.6364 -0.7101
15129TIP3    H166878   4.773   4.782   3.864 -0.6997 -1.1208 -0.8644
15129TIP3    H266879   4.632   4.804   3.912  0.0451  0.5717  0.6613
15130TIP3   OH266880   4.973   4.476  14.561  0.1850  0.4791  0.3741
15130TIP3    H166881   5.002   4.474  14.652  1.9327 -1.8344 -0.1439
15130TIP3    H266882   4.987   4.566  14.533 -0.7499  1.3397  2.4620
15131TIP3   OH266883   2.069   2.490  17.123  0.6431  0.6537 -0.6905
15131TIP3    H166884   2.060   2.580  17.093 -1.3616  0.3220 -1.2078
15131TIP3    H266885   1.991   2.445  17.090  1.4745 -1.2249 -0.2529
15132TIP3   OH266886   0.574   5.230  13.741 -0.1485 -0.8607 -0.1778
15132TIP3    H166887   0.603   5.318  13.763 -3.5314  0.3131  0.2320
15132TIP3    H266888   0.596   5.220  13.648  1.6576 -0.2572  0.1511
15133TIP3   OH266889   1.717   5.746   3.760 -0.0086 -0.4795  0.4617
15133TIP3    H166890   1.807   5.745   3.790 -0.0350  1.5816  0.7321
15133TIP3    H266891   1.687   5.656   3.771  1.9961 -1.2039  0.3485
15134TIP3   OH266892   1.787   2.131   4.011 -0.3978  0.0131 -0.0645
15134TIP3    H166893   1.786   2.125   3.915  0.0248  0.2336 -0.0874
15134TIP3    H266894   1.703   2.170   4.034  0.1264  1.4343 -0.4635
15135TIP3   OH266895   0.590   5.751   2.529 -0.8831  0.2466 -0.1484
15135TIP3    H166896   0.578   5.786   2.617 -0.7392  0.2404 -0.1262
15135TIP3    H266897   0.550   5.664   2.533 -1.5236  0.5283 -0.2929
15136TIP3   OH266898   3.497   4.432  15.688  0.1297 -0.0959  0.2532
15136TIP3    H166899   3.458   4.364  15.743 -1.3992 -0.5240 -1.2691
15136TIP3    H266900   3.571   4.389  15.646 -1.4021 -1.2084 -1.4565
15137TIP3   OH266901   2.496   2.587  15.695 -0.3317 -0.0342  0.1864
15137TIP3    H166902   2.577   2.560  15.651 -0.1252 -1.0211  1.1392
15137TIP3    H266903   2.488   2.680  15.675  0.3032 -0.2221 -1.0631
15138TIP3   OH266904   6.530   1.497  13.147 -0.1504  0.1662 -0.8592
15138TIP3    H166905   6.587   1.527  13.218  0.5013  2.1493 -2.1125
15138TIP3    H266906   6.578   1.425  13.107  1.1532  1.2802 -1.3867
15139TIP3   OH266907   5.832   1.793  13.206  0.0263  0.3645  0.4563
15139TIP3    H166908   5.887   1.832  13.274 -0.2569 -0.4040  1.1374
15139TIP3    H266909   5.889   1.790  13.129  0.0630  2.0971  0.3741
15140TIP3   OH266910   6.246   2.451  11.295 -0.2590 -0.3996 -0.2179
15140TIP3    H166911   6.236   2.500  11.376 -0.6095  0.0151 -0.5146
15140TIP3    H266912   6.160   2.413  11.278  0.2084 -1.8882  0.4891
15141TIP3   OH266913   5.357   1.515   4.677  0.7151 -0.3511  0.3400
15141TIP3    H166914   5.281   1.514   4.619  1.1359  3.1171 -0.4458
15141TIP3    H266915   5.320   1.526   4.765  0.1926 -3.6779  0.6852
15142TIP3   OH266916   5.000   3.128  14.808  0.2418 -0.5753  0.0778
15142TIP3    H166917   5.015   3.086  14.723  1.3988  0.7167 -0.3984
15142TIP3    H266918   5.087   3.130  14.849  0.1392  0.9411  0.2592
15143TIP3   OH266919   0.977   1.738   2.872 -0.2895 -0.1719  0.0901
15143TIP3    H166920   1.068   1.723   2.897 -0.2576  0.6581  0.5321
15143TIP3    H266921   0.983   1.784   2.788 -0.3565 -1.5993 -0.7166
15144TIP3   OH266922   1.299   0.467  12.979  0.1218  0.3929  0.1067
15144TIP3    H166923   1.229   0.446  12.918 -0.9342  0.2995  1.3050
15144TIP3    H266924   1.269   0.546  13.024  0.1363 -0.4198  1.5968
15145TIP3   OH266925   3.683   0.340  12.141  0.2482  0.0746  0.2731
15145TIP3    H166926   3.725   0.279  12.080  0.6372 -1.1017  1.6462
15145TIP3    H266927   3.655   0.284  12.213 -1.4146  1.2300  0.5601
15146TIP3   OH266928   0.143   3.888   5.137 -0.3752 -0.0973  0.1092
15146TIP3    H166929   0.111   3.834   5.065 -0.0793  0.1622 -0.2207
15146TIP3    H266930   0.073   3.952   5.152  1.1171  2.3578 -2.5734
15147TIP3   OH266931   2.803   6.040  11.605  0.1733  0.5521 -0.6237
15147TIP3    H166932   2.757   6.074  11.529  0.3660  2.7611  0.1864
15147TIP3    H266933   2.771   6.091  11.679  0.6969 -0.8734  0.6663
15148TIP3   OH266934   2.733   1.609   2.009  0.1071  0.1854 -0.1732
15148TIP3    H166935   2.693   1.523   1.996  0.5192  0.3895 -3.5294
15148TIP3    H266936   2.661   1.664   2.042 -1.1555 -0.6153 -1.4664
15149TIP3   OH266937   4.469   2.073  14.999  0.1240  0.1867 -0.5937
15149TIP3    H166938   4.426   2.068  14.913 -1.5893  1.8484  0.1184
15149TIP3    H266939   4.406   2.034  15.059  1.0073 -0.2947  0.0358
15150TIP3   OH266940   1.728   4.056   1.980 -0.7828 -0.1227  0.4241
15150TIP3    H166941   1.752   4.126   2.040  0.7472  0.0422 -0.3272
15150TIP3    H266942   1.694   4.101   1.903 -1.0139 -0.2668  0.4398
15151TIP3   OH266943   4.649   5.202  15.608 -0.1310 -0.3595  0.5821
15151TIP3    H166944   4.612   5.284  15.576  0.1116 -0.0736  1.0149
15151TIP3    H266945   4.584   5.169  15.670  0.6860  0.5888  2.0139
15152TIP3   OH266946   5.966   3.099  12.752  0.2958 -0.1881 -0.8042
15152TIP3    H166947   5.880   3.094  12.709  0.0398  1.4631 -0.5332
15152TIP3    H266948   5.949   3.143  12.835  1.5861  1.2618 -1.2793
15153TIP3   OH266949   5.036   1.446  13.429 -0.2011  0.2004  0.1869
15153TIP3    H166950   4.983   1.505  13.482 -0.5680  0.5360 -0.5385
15153TIP3    H266951   4.974   1.384  13.392 -0.1917  0.9338 -1.1161
15154TIP3   OH266952   3.384   5.657  13.042 -0.4874  0.0947  0.0362
15154TIP3    H166953   3.377   5.698  13.128  1.0089 -1.1312  0.7925
15154TIP3    H266954   3.464   5.694  13.004 -0.0206 -0.8584  0.0525
15155TIP3   OH266955   5.414   1.608  13.366  0.5063  0.3555  0.0172
15155TIP3    H166956   5.420   1.701  13.347 -0.6403  0.5562  0.5622
15155TIP3    H266957   5.357   1.572  13.299 -0.4742  0.3816  0.8115
15156TIP3   OH266958   2.272   2.277  17.031 -0.3606 -0.2479  0.0931
15156TIP3    H166959   2.214   2.349  17.055 -0.5913 -0.6691  0.8111
15156TIP3    H266960   2.215   2.211  16.993 -0.2855 -0.4583  0.3424
15157TIP3   OH266961   0.291   3.964   1.391  0.3237  0.0873  0.2350
15157TIP3    H166962   0.249   3.882   1.414  3.5537 -1.6256  0.6463
15157TIP3    H266963   0.329   3.995   1.473  1.8296  0.2640 -0.4887
15158TIP3   OH266964   0.748   2.449  14.701 -0.4104 -0.4284  0.2440
15158TIP3    H166965   0.839   2.474  14.719 -0.8387  0.9122  0.6757
15158TIP3    H266966   0.712   2.525  14.654 -1.2391 -1.0536 -0.1412
15159TIP3   OH266967   2.829   0.572  11.419  0.1971 -0.4343  0.2688
15159TIP3    H166968   2.805   0.523  11.498  0.3050  0.0424  0.6028
15159TIP3    H266969   2.862   0.505  11.359  0.1180 -0.8026  0.6263
15160TIP3   OH266970   1.755   4.644  12.716  0.4029 -0.1885  0.1257
15160TIP3    H166971   1.664   4.663  12.695  0.1872 -0.2255  0.9540
15160TIP3    H266972   1.751   4.559  12.761  1.0544 -1.0314 -1.3476
15161TIP3   OH266973   3.477   2.832   5.369 -0.7014 -0.4006  0.2017
15161TIP3    H166974   3.435   2.796   5.291  1.1527  1.4086 -1.7618
15161TIP3    H266975   3.484   2.926   5.352  0.8944 -0.1239  1.9749
15162TIP3   OH266976   0.089   0.681   4.084 -0.3507 -0.0622  0.0028
15162TIP3    H166977   0.112   0.591   4.063  0.1523  0.5612 -2.4129
15162TIP3    H266978   0.019   0.703   4.021 -0.4279  1.2426  0.5110
15163TIP3   OH266979   2.676   2.924   1.327 -0.0154 -0.1044  0.3404
15163TIP3    H166980   2.712   3.012   1.326 -0.3497  0.0319  0.1858
15163TIP3    H266981   2.752   2.867   1.345  0.5371  0.0664 -1.2505
15164TIP3   OH266982   6.289   5.948   1.408  0.0924  0.4171  0.2018
15164TIP3    H166983   6.330   5.867   1.438 -0.6724 -0.0894 -0.0821
15164TIP3    H266984   6.201   5.946   1.447  0.2247  1.3404  0.5656
15165TIP3   OH266985   0.981   3.498  17.133 -0.5034  0.7175  0.2893
15165TIP3    H166986   1.036   3.528  17.205  1.1055 -0.1581 -0.5325
15165TIP3    H266987   0.913   3.565  17.126 -1.0107  0.5896  2.8925
15166TIP3   OH266988   2.436   2.532  16.968  0.6944 -0.2836  0.1209
15166TIP3    H166989   2.429   2.436  16.966 -0.0127 -0.2272 -0.7361
15166TIP3    H266990   2.495   2.550  17.041  0.5262 -1.3569  0.5439
15167TIP3   OH266991   3.993   5.709  13.107  0.3231 -0.0812 -0.4874
15167TIP3    H166992   3.949   5.720  13.192 -0.3402  0.2037 -0.8589
15167TIP3    H266993   4.082   5.683  13.130 -0.7530 -3.5518  0.2832
15168TIP3   OH266994   0.861   2.675  11.661  0.3000  0.4202 -0.0439
15168TIP3    H166995   0.909   2.746  11.620  2.0595 -0.3657  0.5543
15168TIP3    H266996   0.802   2.718  11.723  1.0670  1.3825  0.0440
15169TIP3   OH266997   4.739   2.717   1.282 -0.2933 -0.1519 -1.0965
15169TIP3    H166998   4.763   2.649   1.345  0.4548  0.6760 -0.4600
15169TIP3    H266999   4.805   2.709   1.213  0.2980  0.4289 -0.6214
15170TIP3   OH267000   1.681   3.507  11.498 -0.7004 -0.1654  0.1264
15170TIP3    H167001   1.727   3.513  11.582 -1.0758  0.8858  0.2763
15170TIP3    H267002   1.751   3.509  11.433 -0.4559 -0.0763  0.3896
15171TIP3   OH267003   6.073   3.502  10.710 -0.4106  0.2510 -0.1654
15171TIP3    H167004   6.168   3.499  10.705 -0.4786 -0.5689 -1.2760
15171TIP3    H267005   6.048   3.568  10.646 -0.5287  2.0256  1.5966
15172TIP3   OH267006   3.330   3.214  12.480  0.6751  0.0579  0.7279
15172TIP3    H167007   3.368   3.287  12.528  0.8973  1.4092 -1.3961
15172TIP3    H267008   3.237   3.233  12.476  0.5432 -0.4377  1.2108
15173TIP3   OH267009   6.657   4.885   0.396 -0.4306  0.1975 -0.5745
15173TIP3    H167010   6.624   4.844   0.316 -0.4778 -2.0543  0.5232
15173TIP3    H267011   6.578   4.898   0.449 -0.1311 -0.6339  0.0855
15174TIP3   OH267012   4.898   0.518   2.957 -0.4317 -0.3023 -0.2398
15174TIP3    H167013   4.851   0.575   3.017  1.5981  0.2158  0.9504
15174TIP3    H267014   4.876   0.429   2.985 -1.5130 -0.1033 -0.4084
15175TIP3   OH267015   2.143   0.123   4.076  0.4861  0.2815  0.4867
15175TIP3    H167016   2.129   0.170   3.994  0.5617 -0.6297 -0.0498
15175TIP3    H267017   2.196   0.183   4.129  2.0321  0.1505 -0.8309
15176TIP3   OH267018   5.811   4.763  14.061  0.1414  0.1796 -0.1175
15176TIP3    H167019   5.780   4.723  14.143 -0.2405  0.8543  0.0708
15176TIP3    H267020   5.749   4.733  13.995 -0.0903  0.3760  0.0079
15177TIP3   OH267021   1.190   6.581  16.605  0.1579  0.3539 -0.0435
15177TIP3    H167022   1.219   6.657  16.553  1.2181 -0.5318 -0.7963
15177TIP3    H267023   1.216   6.602  16.695  3.7350 -0.5468 -0.7004
15178TIP3   OH267024   6.346   1.052  14.040 -0.1189 -0.0652 -0.4414
15178TIP3    H167025   6.434   1.013  14.037 -0.0125  0.0291  1.0220
15178TIP3    H267026   6.359   1.140  14.003  0.3989 -0.0695 -0.2897
15179TIP3   OH267027   6.460   4.165  11.061  0.1704  0.3053  0.0256
15179TIP3    H167028   6.510   4.230  11.012  0.3877  0.5799  0.6051
15179TIP3    H267029   6.375   4.161  11.017  0.0541  1.1930  0.1566
15180TIP3   OH267030   1.377   2.188  14.576 -0.0534 -0.1497  0.1564
15180TIP3    H167031   1.436   2.176  14.501 -0.2028 -1.5557  0.2474
15180TIP3    H267032   1.422   2.145  14.649 -0.9325 -0.7766  0.3487
15181TIP3   OH267033   5.300   2.497  13.525 -0.2525 -0.8928  0.2125
15181TIP3    H167034   5.258   2.426  13.572  2.2694 -1.5896  1.6285
15181TIP3    H267035   5.370   2.455  13.474 -0.5918  0.2741 -1.2912
15182TIP3   OH267036   5.235   4.453   0.181  0.2726 -0.0155  0.1225
15182TIP3    H167037   5.287   4.418   0.109  1.0491  0.3194  0.5046
15182TIP3    H267038   5.255   4.395   0.255  0.7121  0.5693  0.4712
15183TIP3   OH267039   2.152   2.242  14.635 -0.2987 -0.4117  0.0897
15183TIP3    H167040   2.167   2.179  14.706 -2.0702 -0.5668  0.3811
15183TIP3    H267041   2.210   2.214  14.565  1.1855 -0.5109  1.3168
15184TIP3   OH267042   4.412   3.829  11.002 -0.0944 -0.2562  0.0984
15184TIP3    H167043   4.480   3.774  10.964 -0.4290  0.6905 -1.9864
15184TIP3    H267044   4.433   3.917  10.973 -1.8653  0.1481 -0.0964
15185TIP3   OH267045   2.843   0.172   4.299 -0.1418 -0.2759 -0.5112
15185TIP3    H167046   2.812   0.262   4.290 -1.3493 -0.6313  0.0039
15185TIP3    H267047   2.766   0.122   4.324  0.5040 -1.4743 -0.8511
15186TIP3   OH267048   5.444   6.075   3.519  0.5138  0.1959 -0.0856
15186TIP3    H167049   5.403   6.017   3.582  0.9754  1.5153  1.4914
15186TIP3    H267050   5.492   6.017   3.460 -0.5250 -1.1034  0.3156
15187TIP3   OH267051   3.563   5.449   1.967 -0.0671 -0.4214  0.3645
15187TIP3    H167052   3.519   5.368   1.938 -0.1927 -0.3687  0.4071
15187TIP3    H267053   3.629   5.466   1.899  2.7222 -2.7293  2.2638
15188TIP3   OH267054   6.633   6.578   2.045  0.4455 -0.0932  0.1086
15188TIP3    H167055   6.694   6.505   2.056  1.1796  0.8779  3.4580
15188TIP3    H267056   6.546   6.540   2.060  0.3589 -0.9854 -2.2391
15189TIP3   OH267057   6.767   4.420  14.840 -0.0737  0.1206  0.0033
15189TIP3    H167058   6.823   4.476  14.895  0.7168 -1.4696  0.9015
15189TIP3    H267059   6.683   4.418  14.886  0.3943 -0.6958  0.8832
15190TIP3   OH267060   1.686   4.752  15.650  0.2774 -0.0715 -0.4412
15190TIP3    H167061   1.609   4.774  15.703  0.1839  0.1684 -0.6771
15190TIP3    H267062   1.758   4.748  15.713  0.0495 -0.4286 -0.1983
15191TIP3   OH267063   4.474   2.822   3.939  0.4976 -0.0832 -0.3021
15191TIP3    H167064   4.524   2.882   3.995  0.0417  2.1077 -2.0965
15191TIP3    H267065   4.539   2.759   3.908  0.9355 -0.7850  1.8716
15192TIP3   OH267066   3.986   6.621   4.189 -0.4911  0.5158  0.2607
15192TIP3    H167067   4.009   6.711   4.214  0.1482  0.4601 -0.1096
15192TIP3    H267068   4.005   6.570   4.268 -0.1088  0.5890  0.2152
15193TIP3   OH267069   1.717   5.034  13.023 -0.2168 -0.5338 -0.3849
15193TIP3    H167070   1.645   4.975  13.004 -1.0515 -0.4948  2.2787
15193TIP3    H267071   1.783   4.979  13.065 -1.1792  0.3539  2.5231
15194TIP3   OH267072   1.560   4.825  12.993  0.4479  0.1741 -0.3074
15194TIP3    H167073   1.467   4.839  13.014  0.0141  0.1495 -2.0261
15194TIP3    H267074   1.559   4.753  12.930  1.9863 -2.3848  2.3778
15195TIP3   OH267075   2.217   4.402  16.365 -0.3979 -0.0730  0.2558
15195TIP3    H167076   2.204   4.445  16.280 -2.5716 -0.8597  0.1169
15195TIP3    H267077   2.225   4.475  16.427  1.3894  0.5112 -0.6090
15196TIP3   OH267078   5.745   2.656   2.913  0.5126 -0.0328 -0.0894
15196TIP3    H167079   5.727   2.597   2.986 -0.7257 -0.9916 -1.1197
15196TIP3    H267080   5.785   2.600   2.846  2.9776  1.1115  0.3217
15197TIP3   OH267081   1.903   4.578  11.266  0.3863 -0.4118  0.1222
15197TIP3    H167082   1.986   4.590  11.220 -0.0578  0.5160 -0.4733
15197TIP3    H267083   1.865   4.499  11.227  0.3093  0.0064 -0.6678
15198TIP3   OH267084   1.318   4.048   4.921 -0.3621  0.0249  0.6839
15198TIP3    H167085   1.376   4.088   4.985  1.0397 -0.0610 -0.4764
15198TIP3    H267086   1.266   3.985   4.971  0.9235 -0.2808  1.6694
15199TIP3   OH267087   5.714   4.864   4.709 -0.1491 -0.6363  0.0767
15199TIP3    H167088   5.728   4.917   4.630  0.9086 -0.0642  0.6214
15199TIP3    H267089   5.764   4.784   4.693 -1.3224 -1.2757 -0.5266
15200TIP3   OH267090   4.173   6.019   4.473  0.1153 -0.1103 -0.4523
15200TIP3    H167091   4.227   6.078   4.526  0.0196 -0.3721 -0.0559
15200TIP3    H267092   4.216   6.017   4.387 -0.4878  1.3627 -0.8044
15201TIP3   OH267093   5.252   4.322  15.000  0.3532 -0.8651  0.3955
15201TIP3    H167094   5.310   4.379  14.949  0.8375 -0.6334  1.1851
15201TIP3    H267095   5.310   4.283  15.065 -0.9025  2.0782  3.5720
15202TIP3   OH267096   4.271   3.607   4.999  0.3516 -0.0299  0.1228
15202TIP3    H167097   4.244   3.530   4.950  1.0008 -1.6799  2.2008
15202TIP3    H267098   4.366   3.605   4.997  0.3969 -0.1516  1.4203
15203TIP3   OH267099   5.409   6.280  13.324 -0.4106  0.8182 -0.0100
15203TIP3    H167100   5.466   6.242  13.256 -1.7944 -0.6521 -0.4127
15203TIP3    H267101   5.421   6.223  13.400 -0.2701  1.3526  0.3688
15204TIP3   OH267102   2.698   2.014  11.221 -0.2883  0.1494  0.0231
15204TIP3    H167103   2.603   2.012  11.223 -0.2707 -0.8976  1.2545
15204TIP3    H267104   2.724   2.028  11.312  0.7365  2.1422 -0.5317
15205TIP3   OH267105   2.281   0.353   2.589 -0.2104 -0.4827  0.1158
15205TIP3    H167106   2.368   0.332   2.625  0.1752  1.9614  0.7938
15205TIP3    H267107   2.275   0.301   2.509  2.4832  0.3054 -0.7021
15206TIP3   OH267108   1.018   6.622   4.652  0.2098 -0.3323 -0.9487
15206TIP3    H167109   0.989   6.538   4.615  0.3579  0.3533 -2.6932
15206TIP3    H267110   1.094   6.599   4.706  0.0112 -1.3645 -1.0846
15207TIP3   OH267111   0.644   4.618  14.343  0.2435  0.2886  0.4886
15207TIP3    H167112   0.689   4.691  14.300 -1.9069  2.1553  1.2369
15207TIP3    H267113   0.564   4.606  14.292 -1.2348  1.0034  2.5250
15208TIP3   OH267114   3.573   4.683   5.195 -0.0967  0.0172  0.0158
15208TIP3    H167115   3.522   4.686   5.276 -0.8065 -1.4033 -0.3364
15208TIP3    H267116   3.615   4.769   5.189 -0.3677  0.2910  1.6593
15209TIP3   OH267117   6.100   2.112   3.807 -0.4258 -0.1301 -0.0561
15209TIP3    H167118   6.151   2.032   3.817 -1.3998 -0.7059  0.4892
15209TIP3    H267119   6.034   2.107   3.876 -0.4041  1.2290  0.0858
15210TIP3   OH267120   0.639   0.856   2.914 -0.1206  0.0501 -0.1095
15210TIP3    H167121   0.712   0.838   2.856 -0.2194  3.0253 -1.3590
15210TIP3    H267122   0.564   0.870   2.856 -1.5965 -2.2101  1.0998
15211TIP3   OH267123   5.780   4.580   0.962  0.7233 -0.7102 -0.2180
15211TIP3    H167124   5.721   4.505   0.953 -0.7926  0.4893 -0.7105
15211TIP3    H267125   5.824   4.567   1.046  0.6880 -2.2611 -0.4201
15212TIP3   OH267126   0.800   6.325  13.177  0.1875  0.3277  0.4330
15212TIP3    H167127   0.888   6.351  13.205  0.6535  0.3807 -0.9894
15212TIP3    H267128   0.803   6.329  13.081 -0.1893 -3.4836  0.1292
15213TIP3   OH267129   1.721   4.344  12.746  0.2887  0.4242 -0.4603
15213TIP3    H167130   1.696   4.252  12.744 -1.8099  0.8849  1.1519
15213TIP3    H267131   1.811   4.343  12.779 -0.7235 -1.0167  2.7707
15214TIP3   OH267132   5.836   6.148  16.757  0.2235  0.5338  0.4172
15214TIP3    H167133   5.806   6.179  16.671  0.3954 -2.0628 -0.6821
15214TIP3    H267134   5.900   6.080  16.737 -0.5734 -0.9527  2.5732
15215TIP3   OH267135   4.752   1.032   5.273 -0.1020  0.3993 -0.0372
15215TIP3    H167136   4.813   1.099   5.241 -1.3069  1.2913 -0.5148
15215TIP3    H267137   4.796   0.949   5.252  1.6124  0.9995  0.9493
15216TIP3   OH267138   5.261   5.695   3.474  0.0382 -0.5325 -0.0823
15216TIP3    H167139   5.355   5.705   3.487  0.3973 -0.6979 -2.1820
15216TIP3    H267140   5.240   5.757   3.403 -1.2793 -1.0524 -0.1744
15217TIP3   OH267141   3.549   4.510   5.643  0.2863 -0.9830  0.0292
15217TIP3    H167142   3.509   4.499   5.729 -0.1012  2.3207  0.3862
15217TIP3    H267143   3.632   4.462   5.649  0.3628 -0.6774  2.3555
15218TIP3   OH267144   6.248   2.078  14.682 -0.5539  0.0846  0.6236
15218TIP3    H167145   6.181   2.012  14.669 -0.5729  0.0617  0.8450
15218TIP3    H267146   6.323   2.030  14.717  0.6262 -0.4310 -2.3110
15219TIP3   OH267147   5.828   4.831   2.332  0.2514 -0.4186  0.3866
15219TIP3    H167148   5.910   4.783   2.348 -0.7640 -1.5633  2.7437
15219TIP3    H267149   5.796   4.852   2.420 -1.5943  0.7361 -0.5050
15220TIP3   OH267150   2.896   5.416  12.837 -0.3807  0.1814 -0.2313
15220TIP3    H167151   2.826   5.468  12.878 -1.4906 -0.6189 -1.0386
15220TIP3    H267152   2.949   5.480  12.789  0.0434  0.9299  1.1760
15221TIP3   OH267153   1.568   0.833   0.302 -0.0025 -0.1746 -0.3201
15221TIP3    H167154   1.527   0.774   0.366  1.1271 -0.5490  0.0946
15221TIP3    H267155   1.634   0.779   0.259 -1.6299 -0.3169 -2.8107
15222TIP3   OH267156   3.840   2.908  14.173 -0.3148 -0.3310 -0.2738
15222TIP3    H167157   3.845   3.003  14.163 -0.2093 -0.1427  1.2907
15222TIP3    H267158   3.932   2.880  14.178 -0.3376 -0.5689 -1.0228
15223TIP3   OH267159   5.658   6.522  15.153  0.2533 -0.1556  0.2238
15223TIP3    H167160   5.700   6.583  15.092 -0.1008 -0.6176 -0.5042
15223TIP3    H267161   5.600   6.469  15.097  1.0470 -1.5956  0.7207
15224TIP3   OH267162   2.564   4.074   5.842  0.0888 -0.1809  0.2550
15224TIP3    H167163   2.632   4.007   5.830  1.9745  1.6042  0.3643
15224TIP3    H267164   2.552   4.080   5.937 -5.0309 -4.8639  0.4133
15225TIP3   OH267165   0.798   2.964   6.338 -0.3097 -0.3750  0.2535
15225TIP3    H167166   0.857   2.985   6.411  0.6065  0.6320 -0.7556
15225TIP3    H267167   0.712   2.993   6.368  0.0641  0.0770  0.9108
15226TIP3   OH267168   1.143   2.627  16.818 -0.5185 -1.2047  0.3982
15226TIP3    H167169   1.133   2.688  16.745 -0.9427  0.3216  1.6545
15226TIP3    H267170   1.134   2.540  16.779 -1.5748 -0.4200 -1.2258
15227TIP3   OH267171   4.967   3.450   5.122  0.0802  0.0904 -0.7384
15227TIP3    H167172   5.037   3.488   5.176  0.6447  1.1635 -2.1631
15227TIP3    H267173   5.002   3.366   5.092 -0.2786 -0.5668  0.6076
15228TIP3   OH267174   2.925   5.427   0.332  0.0749 -0.1519  0.1707
15228TIP3    H167175   3.014   5.392   0.342 -0.7941 -2.1698  1.5486
15228TIP3    H267176   2.930   5.515   0.369  1.5954 -0.0593 -0.1864
15229TIP3   OH267177   0.977   0.440   3.610 -0.2279  0.1374 -0.5219
15229TIP3    H167178   0.882   0.442   3.620 -0.2186 -0.3918 -0.3218
15229TIP3    H267179   1.004   0.360   3.654  0.4555  0.9544  0.5656
15230TIP3   OH267180   4.472   0.919  10.549 -0.3062 -0.2005 -0.0386
15230TIP3    H167181   4.537   0.867  10.596  0.6161  0.8658 -0.1094
15230TIP3    H267182   4.472   1.004  10.593 -0.3103  0.4174 -1.2090
15231TIP3   OH267183   2.715   1.376   1.609 -0.2720  0.2133 -0.2116
15231TIP3    H167184   2.795   1.419   1.641 -0.0211  0.3477 -0.9929
15231TIP3    H267185   2.709   1.403   1.517 -1.3733  0.4338 -0.0853
15232TIP3   OH267186   1.720   5.573  12.998  0.3824  0.2662 -0.0457
15232TIP3    H167187   1.678   5.560  13.083 -1.7756 -0.2482 -1.1343
15232TIP3    H267188   1.686   5.656  12.967  2.5932  1.3799  0.3287
15233TIP3   OH267189   2.743   6.315   2.669  0.0775 -0.1596 -0.3191
15233TIP3    H167190   2.829   6.356   2.663 -0.0244 -0.0677 -1.2388
15233TIP3    H267191   2.682   6.388   2.669 -0.1107 -0.2875 -2.0674
15234TIP3   OH267192   1.770   0.084  12.146  0.0115  0.0899 -0.1634
15234TIP3    H167193   1.731   0.172  12.143 -2.3480 -0.8059  1.1335
15234TIP3    H267194   1.694   0.025  12.144  1.4221 -1.8571  0.8132
15235TIP3   OH267195   4.416   4.762   1.391  0.1408  0.0647  0.2337
15235TIP3    H167196   4.345   4.707   1.425  0.3849 -0.4346 -0.0556
15235TIP3    H267197   4.413   4.841   1.445  1.5324 -1.3459  2.5645
15236TIP3   OH267198   1.578   6.667  15.928  0.3883 -0.0767  0.1696
15236TIP3    H167199   1.673   6.669  15.941  0.2742  0.0606  1.0268
15236TIP3    H267200   1.565   6.698  15.839  1.2301 -1.2212 -0.3812
15237TIP3   OH267201   3.210   6.229   5.422  0.5057 -0.3119 -0.2570
15237TIP3    H167202   3.261   6.284   5.482 -0.0241 -0.2293  0.1179
15237TIP3    H267203   3.179   6.289   5.355 -0.3754 -0.0758  0.3472
15238TIP3   OH267204   4.152   5.546  14.467 -0.4745  0.1990  0.1366
15238TIP3    H167205   4.074   5.561  14.521  0.0201  1.3810  0.5543
15238TIP3    H267206   4.133   5.592  14.385 -0.0336  0.8879  0.4153
15239TIP3   OH267207   1.568   0.800   3.870 -0.3188  0.7271  0.4421
15239TIP3    H167208   1.570   0.704   3.873 -1.8055  0.6969  1.7798
15239TIP3    H267209   1.606   0.822   3.785 -1.7801 -1.1328 -0.7688
15240TIP3   OH267210   6.327   2.577  15.645  0.5891  0.2677  0.3722
15240TIP3    H167211   6.256   2.515  15.630  0.4576  0.6383 -0.6173
15240TIP3    H267212   6.381   2.536  15.713  1.2225 -1.5717 -1.1406
15241TIP3   OH267213   1.447   4.531  17.153  0.1186 -0.4292  0.7966
15241TIP3    H167214   1.505   4.507  17.225 -0.3276 -1.1369  0.9381
15241TIP3    H267215   1.477   4.479  17.079  1.3753  1.2271  0.0851
15242TIP3   OH267216   3.692   5.524  11.989 -0.4327 -0.5329  0.3966
15242TIP3    H167217   3.711   5.615  12.013 -0.5695 -0.1905 -0.7534
15242TIP3    H267218   3.779   5.485  11.975 -0.3890 -0.4755  0.5044
15243TIP3   OH267219   4.424   1.828   0.939  0.6856  0.1874 -0.1763
15243TIP3    H167220   4.349   1.777   0.972  0.2444  0.0448 -1.3290
15243TIP3    H267221   4.497   1.766   0.939  0.7315  0.2326  0.6468
15244TIP3   OH267222   3.579   1.421   2.000 -0.7584 -0.4442 -0.3328
15244TIP3    H167223   3.582   1.385   1.912 -0.8394 -2.1877  0.3422
15244TIP3    H267224   3.630   1.502   1.995 -0.0512 -0.9539 -1.7772
15245TIP3   OH267225   4.472   6.322  11.961 -0.3198  0.1803 -0.1125
15245TIP3    H167226   4.422   6.402  11.942 -0.8267  0.0034  0.4528
15245TIP3    H267227   4.491   6.286  11.875 -1.4719  0.0730 -0.3443
15246TIP3   OH267228   3.209   5.682   1.988 -0.0876  0.9396 -0.4369
15246TIP3    H167229   3.222   5.693   1.894 -1.3031 -0.3378 -0.8018
15246TIP3    H267230   3.159   5.758   2.015 -0.1479  1.0749 -0.9288
15247TIP3   OH267231   0.095   1.575  15.747  0.5746 -0.0472  0.0783
15247TIP3    H167232   0.133   1.632  15.680  0.1726  0.6058  0.4033
15247TIP3    H267233   0.128   1.488  15.725  0.8392  0.2364 -0.6839
15248TIP3   OH267234   3.942   1.060  12.984 -0.0198  0.0168  0.4794
15248TIP3    H167235   3.900   1.012  13.055 -2.1468  1.5395  0.3456
15248TIP3    H267236   3.883   1.133  12.966  1.3112  0.6571 -1.7059
15249TIP3   OH267237   0.650   2.072   5.281  0.5619 -0.1594 -0.2531
15249TIP3    H167238   0.721   2.047   5.223  0.1768  0.0163 -0.8014
15249TIP3    H267239   0.587   2.000   5.276  0.2094  0.1640 -0.5875
15250TIP3   OH267240   6.396   2.439  14.524  0.9720  0.1457  0.1485
15250TIP3    H167241   6.423   2.498  14.595 -0.3933  2.4412 -1.1309
15250TIP3    H267242   6.436   2.477  14.445 -0.8558  0.0290 -0.8769
15251TIP3   OH267243   1.981   6.191  14.359  0.1444 -0.5232 -0.0329
15251TIP3    H167244   1.977   6.175  14.264  0.1404  0.7089 -0.2598
15251TIP3    H267245   2.036   6.269  14.367  1.4880 -1.5300  1.1028
15252TIP3   OH267246   3.620   4.814  16.158  0.3634  0.2234  0.5592
15252TIP3    H167247   3.707   4.777  16.173  0.4364  0.9710  2.1848
15252TIP3    H267248   3.567   4.739  16.131  1.3579 -0.3511  0.1351
15253TIP3   OH267249   5.993   6.552   4.772  0.3246 -0.1200  0.3787
15253TIP3    H167250   5.927   6.489   4.743 -0.9243  1.2137  0.2006
15253TIP3    H267251   5.962   6.637   4.740 -0.4354  1.3005  4.2746
15254TIP3   OH267252   0.391   2.455   3.869 -0.1749  0.2703 -0.7418
15254TIP3    H167253   0.476   2.424   3.837 -0.6896  0.0243 -1.8938
15254TIP3    H267254   0.403   2.462   3.964  0.0277 -3.3701 -0.3688
15255TIP3   OH267255   0.248   3.569  12.180  0.1584  0.2413  0.2022
15255TIP3    H167256   0.286   3.646  12.222  0.2541  0.5241 -0.4013
15255TIP3    H267257   0.234   3.595  12.089 -1.0741  0.0079  0.2964
15256TIP3   OH267258   3.448   5.647   2.120  0.6441  0.0533 -0.7133
15256TIP3    H167259   3.496   5.578   2.074 -0.4378 -0.4947 -1.0588
15256TIP3    H267260   3.360   5.643   2.083  0.3385  1.0590 -0.1231
15257TIP3   OH267261   4.400   6.084   3.791 -0.1723 -0.3980 -0.0387
15257TIP3    H167262   4.460   6.143   3.747  0.1619 -0.0217  0.8890
15257TIP3    H267263   4.420   6.095   3.884 -0.0962 -1.9789  0.1548
15258TIP3   OH267264   3.022   5.407  14.683 -0.5876 -0.1008  0.2415
15258TIP3    H167265   3.061   5.324  14.656 -0.9171 -0.2865  0.3200
15258TIP3    H267266   2.983   5.442  14.603 -0.1457  0.1483  0.1360
15259TIP3   OH267267   4.240   5.433  13.128 -0.3120 -0.3108  0.2043
15259TIP3    H167268   4.288   5.351  13.144  1.4236  0.3741 -1.1584
15259TIP3    H267269   4.268   5.460  13.041 -0.3417  2.0830  0.8853
15260TIP3   OH267270   4.630   0.808  11.808  0.0851  0.4365  0.1719
15260TIP3    H167271   4.656   0.892  11.845 -2.5079  0.8683  1.1609
15260TIP3    H267272   4.703   0.749  11.829  0.9712  1.8984  1.3957
15261TIP3   OH267273   6.352   6.262   3.573 -0.4446  0.2079 -0.0564
15261TIP3    H167274   6.308   6.289   3.492 -0.0364 -0.7410 -0.6054
15261TIP3    H267275   6.380   6.172   3.557  2.6579  1.0702 -0.1635
15262TIP3   OH267276   3.282   2.634  16.529 -0.4001  0.4012 -0.2478
15262TIP3    H167277   3.368   2.595  16.515 -0.3433  0.9922 -1.7386
15262TIP3    H267278   3.221   2.570  16.493 -0.6014  0.0398  0.6951
15263TIP3   OH267279   3.560   2.970  15.768 -0.4216 -0.1528 -0.2239
15263TIP3    H167280   3.655   2.964  15.773 -0.2714  0.9337 -1.2087
15263TIP3    H267281   3.528   2.927  15.847  0.8991 -0.2006  0.3008
15264TIP3   OH267282   0.819   6.649   2.056  0.4770  0.3293 -0.0510
15264TIP3    H167283   0.808   6.640   2.150 -2.4008 -0.4152 -0.3833
15264TIP3    H267284   0.761   6.721   2.032  1.9260  1.1812 -1.1739
15265TIP3   OH267285   5.797   5.526  14.949 -0.0214  0.4352 -0.5506
15265TIP3    H167286   5.815   5.438  14.916 -1.7604  0.8488 -2.7790
15265TIP3    H267287   5.857   5.583  14.900  1.1631  0.5498  0.9473
15266TIP3   OH267288   1.657   4.809   0.325 -0.1260 -0.3178 -0.1302
15266TIP3    H167289   1.659   4.720   0.361 -1.6519 -0.4533 -0.3009
15266TIP3    H267290   1.650   4.795   0.230 -0.4109 -0.0241 -0.1533
15267TIP3   OH267291   5.006   4.871  14.761 -0.5391 -0.1051  0.0597
15267TIP3    H167292   5.074   4.848  14.698 -0.9060 -0.2365 -0.2974
15267TIP3    H267293   5.005   4.967  14.762  0.2990 -0.0909  0.7881
15268TIP3   OH267294   0.887   1.278   1.830  1.2502  0.2002  0.4491
15268TIP3    H167295   0.868   1.190   1.796  0.1306  0.8150 -0.5922
15268TIP3    H267296   0.844   1.337   1.769  1.7152  1.4782  1.3154
15269TIP3   OH267297   2.207   0.050   6.543 -0.0995 -0.5643  0.3643
15269TIP3    H167298   2.282   0.081   6.494 -0.3659 -0.0347  0.2821
15269TIP3    H267299   2.150   0.009   6.478 -2.1818  3.3019 -0.5189
15270TIP3   OH267300   1.536   3.946  13.211 -0.0293 -0.9736  0.0429
15270TIP3    H167301   1.500   4.034  13.210  0.7787 -0.6387 -0.9133
15270TIP3    H267302   1.511   3.911  13.297 -2.0498 -0.5499 -0.3144
15271TIP3   OH267303   4.601   2.599  10.688  0.7362 -0.1246 -0.2377
15271TIP3    H167304   4.593   2.511  10.650 -0.9233  0.7598 -2.1358
15271TIP3    H267305   4.513   2.618  10.722  0.6113  1.4021 -1.3354
15272TIP3   OH267306   2.164   3.364  16.415 -0.4541 -0.5857 -0.2957
15272TIP3    H167307   2.173   3.446  16.464 -0.5918 -0.0324 -1.1558
15272TIP3    H267308   2.179   3.295  16.479 -0.0890  0.1217  0.3970
15273TIP3   OH267309   3.972   2.089   3.193 -0.2653  0.1712  0.2686
15273TIP3    H167310   3.916   2.111   3.119  0.1261  2.1374  0.5005
15273TIP3    H267311   3.961   1.995   3.205 -0.5798 -0.1289 -2.0693
15274TIP3   OH267312   5.702   0.293   5.157 -0.1431 -0.2052 -0.1091
15274TIP3    H167313   5.625   0.289   5.100 -0.0413  1.6705 -0.4513
15274TIP3    H267314   5.687   0.369   5.213  0.0759 -1.6175  1.9637
15275TIP3   OH267315   3.547   1.750  11.649  0.3924  0.2037  0.0353
15275TIP3    H167316   3.458   1.767  11.682  0.3772 -0.7049  0.5028
15275TIP3    H267317   3.536   1.747  11.554  0.0901  0.9851  0.0354
15276TIP3   OH267318   4.818   6.511   0.795 -0.1124  0.2103 -0.1572
15276TIP3    H167319   4.724   6.511   0.808 -0.4918  0.7434 -2.4696
15276TIP3    H267320   4.838   6.598   0.762  1.1224 -0.0512 -0.1628
15277TIP3   OH267321   1.530   2.162  15.309  0.5328 -0.1749 -0.1689
15277TIP3    H167322   1.618   2.197  15.321  0.0469  0.7326  1.0511
15277TIP3    H267323   1.482   2.233  15.265  0.0607 -0.0933  0.4677
15278TIP3   OH267324   1.439   4.370   5.521  0.6312  0.4598 -0.1677
15278TIP3    H167325   1.487   4.316   5.458 -0.0265  0.4528 -0.6779
15278TIP3    H267326   1.349   4.338   5.516  0.7722 -0.3296  1.6373
15279TIP3   OH267327   5.381   6.298   2.419 -0.2562 -0.0244 -0.4748
15279TIP3    H167328   5.287   6.286   2.432 -0.0709 -2.4033 -0.9402
15279TIP3    H267329   5.389   6.335   2.331 -0.7825  2.0016  0.2657
15280TIP3   OH267330   6.115   0.671   0.314 -0.2678  0.4211  0.0588
15280TIP3    H167331   6.047   0.727   0.276  0.6757  1.8247  0.3776
15280TIP3    H267332   6.070   0.622   0.383 -0.5001  3.1448  1.9910
15281TIP3   OH267333   1.249   5.186  15.351 -0.2295  0.5613 -0.2574
15281TIP3    H167334   1.239   5.092  15.333  0.2830  0.7283 -1.4332
15281TIP3    H267335   1.255   5.190  15.447 -2.1463 -0.4170 -0.0204
15282TIP3   OH267336   5.567   3.138  14.027 -0.6337 -0.2413  0.0537
15282TIP3    H167337   5.517   3.211  13.992  0.1923  0.8494  1.0596
15282TIP3    H267338   5.609   3.173  14.105  0.2177 -1.6448  0.2622
15283TIP3   OH267339   4.317   0.807  10.338 -0.4284  0.2448 -0.0545
15283TIP3    H167340   4.268   0.874  10.291 -0.3075  0.5009  0.1856
15283TIP3    H267341   4.389   0.854  10.379 -0.3516 -0.0290  0.1254
15284TIP3   OH267342   5.093   0.201   4.122 -0.4427  0.5049  0.1488
15284TIP3    H167343   5.173   0.162   4.086 -0.7419 -0.0688  0.0902
15284TIP3    H267344   5.022   0.159   4.073 -0.8958 -0.7914  1.8316
15285TIP3   OH267345   1.541   4.891  10.656  0.0403 -0.0929 -0.2893
15285TIP3    H167346   1.581   4.922  10.574  0.3136  0.3749  0.0165
15285TIP3    H267347   1.540   4.968  10.712 -3.5547  0.6297 -1.1022
15286TIP3   OH267348   4.476   3.493   1.593  0.3016 -0.1147 -0.0467
15286TIP3    H167349   4.436   3.448   1.519  0.7899  0.9670 -0.9948
15286TIP3    H267350   4.543   3.432   1.625  0.7073 -0.2222 -1.0802
15287TIP3   OH267351   6.780   1.982   4.440 -0.7150  0.7759  0.0183
15287TIP3    H167352   6.709   1.975   4.376 -0.2625  0.5599 -0.4554
15287TIP3    H267353   6.859   1.992   4.388 -0.1563 -0.9040  0.4992
15288TIP3   OH267354   2.971   1.234   0.062 -0.0974 -0.0818  0.0932
15288TIP3    H167355   2.901   1.251  -0.000  0.0757  2.1756  0.4377
15288TIP3    H267356   2.949   1.289   0.138  1.5318 -0.0710  0.5845
15289TIP3   OH267357   2.906   6.679   2.486  0.2038 -0.3512 -0.3145
15289TIP3    H167358   2.936   6.620   2.417  1.7535  0.4366 -0.3714
15289TIP3    H267359   2.837   6.730   2.445  1.7546  0.7840 -1.6840
15290TIP3   OH267360   4.536   1.065   0.928  0.1030  0.0577 -0.6305
15290TIP3    H167361   4.478   0.994   0.956  0.9888 -0.7462 -0.8028
15290TIP3    H267362   4.480   1.142   0.927 -0.8851 -0.6398 -0.4665
15291TIP3   OH267363   0.917   4.990   1.729  0.4336  0.2523 -0.1226
15291TIP3    H167364   0.906   5.028   1.816  0.0886 -0.1213 -0.0014
15291TIP3    H267365   0.857   4.915   1.727  0.6487  0.0852 -0.5786
15292TIP3   OH267366   1.710   0.951  17.186  0.4052 -0.2212  0.5449
15292TIP3    H167367   1.763   0.921  17.259  2.0744  1.2126 -0.0169
15292TIP3    H267368   1.654   1.019  17.223 -0.1238 -0.8288  0.8709
15293TIP3   OH267369   2.224   0.336  12.162  0.2217  0.3206 -0.5151
15293TIP3    H167370   2.211   0.372  12.074 -0.0178 -0.8234 -0.9638
15293TIP3    H267371   2.319   0.331  12.172  0.2507  0.4312 -0.7294
15294TIP3   OH267372   2.826   4.474  14.947 -0.5041  0.7992  0.1049
15294TIP3    H167373   2.756   4.410  14.941  1.9732 -2.0680 -1.1834
15294TIP3    H267374   2.814   4.516  15.032 -2.2988 -1.4040  1.0413
15295TIP3   OH267375   6.584   3.967  16.057  0.7218  0.1875  0.0387
15295TIP3    H167376   6.522   3.927  15.996 -0.3317  1.3907  0.2754
15295TIP3    H267377   6.669   3.959  16.013  0.2760 -0.6826 -0.7033
15296TIP3   OH267378   4.696   2.408  15.462  0.0189 -0.6117 -0.0362
15296TIP3    H167379   4.644   2.387  15.384  0.0829  0.2545 -0.3289
15296TIP3    H267380   4.749   2.330  15.477 -1.3827 -1.5490  0.3057
15297TIP3   OH267381   1.426   0.498  14.778  0.1412  0.0951 -0.6140
15297TIP3    H167382   1.420   0.414  14.824  1.6658 -0.3644 -1.1712
15297TIP3    H267383   1.355   0.550  14.814  1.1263 -0.2765  2.1516
15298TIP3   OH267384   6.075   3.914   0.548 -0.7140  0.2018  0.3878
15298TIP3    H167385   6.164   3.932   0.518 -0.3813 -1.1248  0.4970
15298TIP3    H267386   6.027   3.890   0.468 -1.2766  1.9339  0.1700
15299TIP3   OH267387   5.857   5.157  14.159  0.8082  0.2139  0.4868
15299TIP3    H167388   5.918   5.085  14.179 -0.2502 -0.2474  2.3227
15299TIP3    H267389   5.846   5.202  14.243 -2.1983 -0.3983  0.5047
15300TIP3   OH267390   6.374   0.176  12.533  0.0354 -0.1274  0.0789
15300TIP3    H167391   6.413   0.248  12.583  0.1985  0.3409 -0.7132
15300TIP3    H267392   6.447   0.119  12.510  0.1714  0.4082 -0.8455
15301TIP3   OH267393   1.755   6.695  11.360  0.2017  0.3871  0.1952
15301TIP3    H167394   1.735   6.608  11.325  2.1846  0.4400 -1.2026
15301TIP3    H267395   1.681   6.750  11.333  0.6826 -0.0522 -2.2029
15302TIP3   OH267396   5.175   1.628   5.913  0.2978  0.0434 -0.0668
15302TIP3    H167397   5.093   1.581   5.902 -1.5478  2.5931  1.6638
15302TIP3    H267398   5.234   1.564   5.955 -1.5905 -1.1291  0.9208
15303TIP3   OH267399   4.763   0.435  14.369  0.0207 -0.0000  0.4335
15303TIP3    H167400   4.696   0.493  14.333  0.1857  0.5310  0.9710
15303TIP3    H267401   4.715   0.372  14.422 -0.0333  0.4975  0.9733
15304TIP3   OH267402   5.129   4.345   4.153  0.1893  0.1426 -0.6845
15304TIP3    H167403   5.158   4.372   4.066 -0.6944 -0.1804 -1.0939
15304TIP3    H267404   5.044   4.389   4.164  0.9754  1.4385  0.6606
15305TIP3   OH267405   0.021   6.127  10.702  0.7450  0.1505 -0.4115
15305TIP3    H167406   0.076   6.168  10.635 -0.7725 -0.2209 -1.9546
15305TIP3    H267407  -0.015   6.201  10.752  0.7948  0.5098 -0.9047
15306TIP3   OH267408   1.330   5.031   3.269  0.0548  0.5391 -0.3718
15306TIP3    H167409   1.347   4.969   3.198  0.1096 -0.4277  0.4765
15306TIP3    H267410   1.396   5.012   3.335 -0.1434  1.2721  0.0533
15307TIP3   OH267411   1.439   3.229   3.945  0.0054 -0.1277  0.0605
15307TIP3    H167412   1.492   3.149   3.940  1.3479  0.7610 -0.5279
15307TIP3    H267413   1.398   3.225   4.031  0.1988 -1.3590  0.1143
15308TIP3   OH267414   0.515   4.530  13.955 -0.3855  0.0796 -0.3024
15308TIP3    H167415   0.507   4.446  13.909 -1.8048  0.4705 -0.8243
15308TIP3    H267416   0.592   4.519  14.010  0.3833 -1.0211 -1.5115
15309TIP3   OH267417   4.403   3.479   1.320  0.1436  0.5521  0.8135
15309TIP3    H167418   4.384   3.539   1.247  3.3959 -0.1700 -0.8230
15309TIP3    H267419   4.401   3.392   1.280  0.5959  0.0126  1.9374
15310TIP3   OH267420   1.187   1.421   2.454  0.5497  0.1831  0.1774
15310TIP3    H167421   1.255   1.370   2.498  0.9451  0.8381  0.3297
15310TIP3    H267422   1.196   1.399   2.361  1.2858  0.6392  0.1401
15311TIP3   OH267423   4.166   5.380  16.524  0.1030 -0.1299 -0.3538
15311TIP3    H167424   4.083   5.356  16.565  0.4259 -0.8199 -0.0736
15311TIP3    H267425   4.153   5.469  16.493 -1.1484 -0.6384 -1.3974
15312TIP3   OH267426   6.319   3.993   0.126  0.7279 -0.2866 -0.7808
15312TIP3    H167427   6.235   4.000   0.080  0.0431 -1.5085  0.2269
15312TIP3    H267428   6.381   4.040   0.070 -0.2684 -0.8806 -2.4363
15313TIP3   OH267429   0.891   4.951  10.334 -0.5058 -0.0170  0.1871
15313TIP3    H167430   0.983   4.976  10.332 -0.5404  0.1343  0.5095
15313TIP3    H267431   0.845   5.031  10.359 -1.0858  0.9762 -3.5066
15314TIP3   OH267432   5.539   1.608   3.335  0.2537  0.1361 -0.7224
15314TIP3    H167433   5.597   1.607   3.412  2.0125  1.9809 -1.9338
15314TIP3    H267434   5.499   1.695   3.336 -0.4839 -0.1841 -1.3587
15315TIP3   OH267435   4.379   3.567  12.361  0.1261 -0.1325 -0.2181
15315TIP3    H167436   4.353   3.622  12.435 -0.6844 -1.5425  0.5932
15315TIP3    H267437   4.461   3.526  12.389  1.7633  2.0146 -1.5743
15316TIP3   OH267438   2.719   3.706  13.821 -0.0569  0.4129 -0.4155
15316TIP3    H167439   2.742   3.730  13.911 -0.4788 -1.6285  0.2958
15316TIP3    H267440   2.691   3.788  13.781 -0.4952  1.2806  1.5143
15317TIP3   OH267441   2.321   2.235   1.504 -0.6025 -0.8463  0.1827
15317TIP3    H167442   2.372   2.277   1.435 -2.0676 -0.1040 -0.5089
15317TIP3    H267443   2.276   2.163   1.459 -1.5166 -0.3967  0.3628
15318TIP3   OH267444   6.277   5.534  11.599  0.3964  0.1200 -0.1847
15318TIP3    H167445   6.349   5.589  11.629  0.7773  0.6228 -1.9473
15318TIP3    H267446   6.251   5.485  11.677  0.4773  2.2847  1.2939
15319TIP3   OH267447   1.233   3.383   1.152 -0.1746  0.0753 -0.1794
15319TIP3    H167448   1.147   3.399   1.113  0.2344  1.0546 -0.6905
15319TIP3    H267449   1.217   3.313   1.215 -1.8616  1.8350  1.4771
15320TIP3   OH267450   4.257   0.331  10.334 -0.6238 -0.2175 -0.2530
15320TIP3    H167451   4.298   0.406  10.291  2.2765 -0.3231  2.0520
15320TIP3    H267452   4.165   0.335  10.306  0.3062  1.6554 -3.5719
15321TIP3   OH267453   5.245   3.107  10.944 -0.1324  0.0403  0.4631
15321TIP3    H167454   5.340   3.107  10.957 -0.0981 -1.8406  0.5140
15321TIP3    H267455   5.226   3.022  10.903 -1.5679  1.2231 -1.5116
15322TIP3   OH267456   1.685   6.188   5.390  0.2870  0.0613  0.4591
15322TIP3    H167457   1.676   6.116   5.453  3.6179 -0.7851  0.1542
15322TIP3    H267458   1.778   6.207   5.389 -0.2251  3.0126 -1.0868
15323TIP3   OH267459   4.873   4.537   4.655 -0.2724 -0.4801  0.2232
15323TIP3    H167460   4.834   4.620   4.683  1.0804  0.0541  0.6341
15323TIP3    H267461   4.900   4.553   4.565 -1.3546 -0.9915 -0.2066
15324TIP3   OH267462   5.907   3.263  15.514  0.4009 -0.8357 -0.3079
15324TIP3    H167463   5.828   3.267  15.460  0.8645  1.9096 -0.9655
15324TIP3    H267464   5.919   3.170  15.534 -3.5895 -1.2976  0.7675
15325TIP3   OH267465   1.525   5.132  13.411  0.4245 -0.3031  0.2862
15325TIP3    H167466   1.611   5.165  13.388  0.9537 -1.8499 -0.0927
15325TIP3    H267467   1.485   5.202  13.463  2.2474  0.0942  1.2201
15326TIP3   OH267468   4.454   4.602  16.145  0.4220  0.4491  0.4534
15326TIP3    H167469   4.507   4.672  16.107 -0.7153  1.0774 -0.0176
15326TIP3    H267470   4.496   4.521  16.115  1.4880  0.9253  0.6354
15327TIP3   OH267471   5.161   2.620   1.473 -0.0874  0.7228 -0.4418
15327TIP3    H167472   5.163   2.714   1.488  0.6725  0.5185  0.8547
15327TIP3    H267473   5.245   2.588   1.504  0.0291 -0.2854 -1.6929
15328TIP3   OH267474   5.894   2.965  14.461 -0.4373  0.1082 -0.2848
15328TIP3    H167475   5.937   2.879  14.464 -0.0746  0.2558 -0.9368
15328TIP3    H267476   5.872   2.984  14.552  0.2514 -0.2978 -0.0230
15329TIP3   OH267477   0.537   5.034   1.463 -0.0078  0.3322 -0.0862
15329TIP3    H167478   0.490   5.100   1.514 -0.0881  0.8278 -0.7775
15329TIP3    H267479   0.551   5.075   1.378 -0.6252 -0.7681 -0.7553
15330TIP3   OH267480   1.624   6.221  14.438  0.5574 -0.3449  0.1745
15330TIP3    H167481   1.685   6.294  14.434 -1.5135  1.4374 -2.9203
15330TIP3    H267482   1.651   6.163  14.367 -0.6642 -0.0438 -0.5697
15331TIP3   OH267483   6.388   6.542   2.182  0.6123  0.8999 -0.2037
15331TIP3    H167484   6.352   6.456   2.201 -0.5218  1.3038 -0.4437
15331TIP3    H267485   6.337   6.602   2.236  1.0652  1.4740 -0.4000
15332TIP3   OH267486   3.443   1.613   3.012 -0.0058 -0.5081 -0.1852
15332TIP3    H167487   3.414   1.531   3.051 -0.3063 -0.0520  0.5549
15332TIP3    H267488   3.533   1.595   2.982  0.5053 -0.6536  1.3705
15333TIP3   OH267489   0.177   4.994   1.138  0.1324  0.2200  0.2499
15333TIP3    H167490   0.189   5.070   1.195 -0.5418 -0.0104  0.7165
15333TIP3    H267491   0.158   5.031   1.052 -1.7092  0.6247  0.7846
15334TIP3   OH267492   3.841   0.482   3.056 -0.0384  0.4618  0.1425
15334TIP3    H167493   3.935   0.485   3.075  0.3271  0.1853 -1.4774
15334TIP3    H267494   3.828   0.397   3.014 -0.9726  0.6156  0.0928
15335TIP3   OH267495   2.431   4.528  17.158 -0.2864 -0.4976 -0.4240
15335TIP3    H167496   2.449   4.533  17.252  1.1655  3.4202 -0.6894
15335TIP3    H267497   2.398   4.440  17.144 -1.0021 -1.1199  3.8110
15336TIP3   OH267498   3.688   6.065   4.031  0.1230  0.0774 -0.0641
15336TIP3    H167499   3.727   6.069   3.944  1.2379 -1.0940  0.3608
15336TIP3    H267500   3.600   6.033   4.016  0.3763 -0.3262 -0.7387
15337TIP3   OH267501   5.360   0.028   4.622  0.2265 -0.8316  0.0068
15337TIP3    H167502   5.440   0.081   4.624 -2.1359  3.1703  3.2832
15337TIP3    H267503   5.358  -0.008   4.533  4.1369  1.3270 -1.1925
15338TIP3   OH267504   1.121   5.625  12.019  0.0428 -0.6942 -0.0144
15338TIP3    H167505   1.028   5.609  11.999  0.3019 -0.6806 -1.3696
15338TIP3    H267506   1.130   5.601  12.111 -1.0388 -1.8838 -0.1801
15339TIP3   OH267507   1.429   2.631   3.359  0.5164 -0.4518 -0.2932
15339TIP3    H167508   1.456   2.539   3.361  2.9407  0.1731  2.4856
15339TIP3    H267509   1.466   2.665   3.278  0.6345 -1.6101 -0.7542
15340TIP3   OH267510   3.797   3.532  13.934 -0.4789  0.1294 -0.4553
15340TIP3    H167511   3.764   3.622  13.924  0.8897  0.4519 -2.6582
15340TIP3    H267512   3.862   3.538  14.004  0.5397  1.1791 -1.4462
15341TIP3   OH267513   3.191   0.599  11.416  0.1055 -0.5554 -0.1966
15341TIP3    H167514   3.195   0.504  11.408 -2.7130 -0.7349 -0.7271
15341TIP3    H267515   3.216   0.632  11.330 -1.9031 -1.0533 -1.0437
15342TIP3   OH267516   6.007   2.684   2.203  0.0568  0.1811  0.1418
15342TIP3    H167517   6.034   2.774   2.220  0.5011 -0.1895  1.4834
15342TIP3    H267518   6.049   2.662   2.120  0.4368  0.9979  0.1061
15343TIP3   OH267519   2.687   0.955   5.270 -0.0802 -0.5004 -0.6083
15343TIP3    H167520   2.689   0.938   5.364 -0.4611 -0.9210 -0.6777
15343TIP3    H267521   2.721   0.875   5.230  2.3786  0.5203 -0.7312
15344TIP3   OH267522   5.103   0.289   2.400 -0.1136  0.7277 -0.1539
15344TIP3    H167523   5.028   0.248   2.442  0.6397 -0.1379  0.3893
15344TIP3    H267524   5.084   0.283   2.306 -0.7378  0.5527 -0.0190
15345TIP3   OH267525   3.783   0.881  11.220 -0.0363  0.1425 -0.0495
15345TIP3    H167526   3.764   0.808  11.161  0.4431 -3.1340  3.3956
15345TIP3    H267527   3.871   0.862  11.254 -0.4847  1.4788  2.0729
15346TIP3   OH267528   3.644   2.750  16.345  0.1719  0.4924  0.0659
15346TIP3    H167529   3.580   2.679  16.348 -0.0843  0.7228 -0.0124
15346TIP3    H267530   3.702   2.733  16.420  1.6517 -1.2514 -1.3662
15347TIP3   OH267531   5.350   1.528   1.379  0.0261 -0.1040  0.6542
15347TIP3    H167532   5.262   1.536   1.416  0.2806 -2.3646  1.9246
15347TIP3    H267533   5.362   1.435   1.363  1.8400  0.2599 -0.4694
15348TIP3   OH267534   1.036   2.453  11.670  0.5652 -0.0494 -0.0712
15348TIP3    H167535   1.080   2.456  11.755  0.1377  1.2044  0.1210
15348TIP3    H267536   0.966   2.518  11.677  0.4033 -0.0717 -1.3212
15349TIP3   OH267537   0.358   6.558   4.399  0.2704  0.5244  0.0862
15349TIP3    H167538   0.351   6.579   4.306  2.4969 -0.0241 -0.2748
15349TIP3    H267539   0.278   6.511   4.420 -1.9431  3.6649 -0.6294
15350TIP3   OH267540   3.336   1.223  14.142 -0.4408  0.4177  0.0042
15350TIP3    H167541   3.422   1.182  14.129 -0.7267  0.0774 -0.9243
15350TIP3    H267542   3.348   1.280  14.218 -0.0017 -1.2868  1.2599
15351TIP3   OH267543   2.133   5.525  15.478 -0.3517  0.3439 -0.0535
15351TIP3    H167544   2.217   5.566  15.500 -0.0043 -0.0180 -0.6888
15351TIP3    H267545   2.100   5.493  15.562  0.2766  0.2418  0.1616
15352TIP3   OH267546   2.918   2.008  10.757 -0.2615 -0.6304  0.0190
15352TIP3    H167547   2.850   2.017  10.691 -0.2086  2.3146  0.1937
15352TIP3    H267548   2.880   1.953  10.825 -3.5967  2.7236  1.2413
15353TIP3   OH267549   1.580   3.974  14.092  0.0760  0.1613 -0.4816
15353TIP3    H167550   1.588   3.881  14.108  0.5652  0.3434  0.3910
15353TIP3    H267551   1.665   4.010  14.115 -0.8294  1.1461  1.6227
15354TIP3   OH267552   5.920   3.520  11.293 -0.7003  0.3564 -0.3483
15354TIP3    H167553   5.950   3.430  11.299 -0.5698  0.2724 -1.7598
15354TIP3    H267554   5.957   3.552  11.211 -1.7474  1.3008 -0.4821
15355TIP3   OH267555   5.886   4.489  13.043 -0.1636  0.2219 -0.5850
15355TIP3    H167556   5.894   4.583  13.057  1.5079 -0.0212  0.3488
15355TIP3    H267557   5.847   4.456  13.123  2.1124 -0.1992  0.4480
15356TIP3   OH267558   6.456   5.406  16.896 -0.2990  0.0297  0.2337
15356TIP3    H167559   6.396   5.478  16.877  0.9417  1.0527 -0.0131
15356TIP3    H267560   6.406   5.326  16.880 -1.4802  0.8509 -0.2399
15357TIP3   OH267561   5.601   3.087   2.804 -0.2262 -0.5252  0.3775
15357TIP3    H167562   5.509   3.107   2.822 -1.1574 -2.6731 -1.4603
15357TIP3    H267563   5.642   3.173   2.791 -2.3756  0.4607 -0.4262
15358TIP3   OH267564   4.072   0.412  15.925  0.0066  0.2984 -0.1353
15358TIP3    H167565   4.040   0.425  16.015  0.2391  1.0503 -0.1554
15358TIP3    H267566   4.156   0.456  15.923 -0.0669  0.4122 -0.7716
15359TIP3   OH267567   6.329   3.535   6.420  0.5239 -0.1913  0.2750
15359TIP3    H167568   6.368   3.471   6.362 -1.9261  0.5570 -2.4487
15359TIP3    H267569   6.243   3.499   6.442 -0.2552  1.4094 -0.0016
15360TIP3   OH267570   1.618   2.585   4.944 -0.4676  0.1496  0.0858
15360TIP3    H167571   1.663   2.633   5.013 -0.1187  1.4383 -0.9806
15360TIP3    H267572   1.683   2.523   4.911 -0.0677  0.7141 -0.2081
15361TIP3   OH267573   4.391   6.583   2.400 -0.1555 -0.7874  0.0491
15361TIP3    H167574   4.336   6.504   2.400  2.5042 -2.7796  1.0355
15361TIP3    H267575   4.458   6.565   2.465  0.7389  2.2305  0.0862
15362TIP3   OH267576   0.749   2.611  10.982 -0.2668 -0.2411  0.3056
15362TIP3    H167577   0.730   2.530  10.935  1.7445 -0.5196 -0.0851
15362TIP3    H267578   0.844   2.611  10.994 -0.0035  2.7122 -0.9820
15363TIP3   OH267579   4.554   3.116  12.534 -0.1292  0.4460  0.2738
15363TIP3    H167580   4.556   3.053  12.606  2.6359  0.8257  0.6182
15363TIP3    H267581   4.464   3.110  12.500 -0.3223 -2.7304  1.0496
15364TIP3   OH267582   0.090   1.135   2.365 -0.0064  0.3399 -0.1417
15364TIP3    H167583   0.031   1.152   2.438  0.8146 -2.1427  1.2408
15364TIP3    H267584   0.173   1.175   2.392 -0.1229  0.7917 -0.4524
15365TIP3   OH267585   5.725   5.697  13.704  0.3547  0.5592  0.2265
15365TIP3    H167586   5.803   5.741  13.737  1.0617  0.5713 -1.3758
15365TIP3    H267587   5.659   5.713  13.771  1.5651  1.0141  1.3613
15366TIP3   OH267588   3.358   6.529  16.497 -0.0147  0.3562 -0.4637
15366TIP3    H167589   3.430   6.473  16.528 -0.1362 -0.0227 -0.8576
15366TIP3    H267590   3.344   6.591  16.569  0.8701  0.5921 -0.4784
15367TIP3   OH267591   6.171   5.892   0.096 -0.1700 -0.9038  0.2405
15367TIP3    H167592   6.172   5.833   0.021 -0.2689 -1.2441  0.5070
15367TIP3    H267593   6.087   5.874   0.140  0.0415 -0.9526  0.6263
15368TIP3   OH267594   3.497   3.317  14.614 -0.5714 -0.0143 -0.6999
15368TIP3    H167595   3.586   3.335  14.584 -0.8285  1.7709 -0.4438
15368TIP3    H267596   3.504   3.308  14.709 -0.6791  0.1224 -0.6799
15369TIP3   OH267597   3.734   1.147  11.370 -1.1323  0.0216 -0.2959
15369TIP3    H167598   3.818   1.147  11.324 -1.5320 -0.2443 -1.0535
15369TIP3    H267599   3.713   1.239  11.382 -0.2664  0.0936  0.7898
15370TIP3   OH267600   0.105   6.394   3.167 -0.2604 -0.1722 -0.0693
15370TIP3    H167601   0.107   6.452   3.091  1.5017 -0.1146 -0.0029
15370TIP3    H267602   0.196   6.380   3.190 -0.7336 -0.7190  1.6583
15371TIP3   OH267603   5.630   6.278   3.319  0.3297 -1.1001 -0.1853
15371TIP3    H167604   5.711   6.263   3.369 -0.9991  0.3791  2.6254
15371TIP3    H267605   5.570   6.211   3.350 -0.5550 -0.0999  0.3202
15372TIP3   OH267606   3.974   3.695  11.732 -0.3389 -0.3532 -0.1588
15372TIP3    H167607   4.009   3.778  11.699 -1.5388  0.7924  1.2892
15372TIP3    H267608   4.023   3.628  11.685  0.8148  1.1670 -1.2336
15373TIP3   OH267609   2.530   0.407  14.688 -0.0814 -0.3196 -0.4445
15373TIP3    H167610   2.436   0.408  14.704  0.2666 -0.1140  1.8783
15373TIP3    H267611   2.557   0.318  14.708  0.3584 -0.1233 -0.1510
15374TIP3   OH267612   2.912   1.705  13.874 -0.6462  0.2948 -0.0386
15374TIP3    H167613   2.909   1.726  13.781 -0.9518  2.8850  0.4901
15374TIP3    H267614   3.004   1.683  13.891 -0.7167 -0.8968 -1.0316
15375TIP3   OH267615   6.406   0.198   5.097 -0.0836 -0.2287  0.3066
15375TIP3    H167616   6.483   0.203   5.154 -0.8451  0.1539  1.3300
15375TIP3    H267617   6.366   0.114   5.119  1.7516 -2.0600 -2.5600
15376TIP3   OH267618   3.542   4.734  14.615  0.2864 -0.1627 -0.2083
15376TIP3    H167619   3.604   4.788  14.664 -1.0243  0.8213  0.4164
15376TIP3    H267620   3.587   4.713  14.533  2.2117 -1.1446  1.0167
15377TIP3   OH267621   3.429   2.854   0.340  0.1512 -0.1263 -0.1862
15377TIP3    H167622   3.524   2.845   0.346  0.0677 -0.8507  0.3212
15377TIP3    H267623   3.405   2.807   0.260  0.1001 -1.1328  0.4029
15378TIP3   OH267624   0.438   0.305  13.281 -0.0824  0.5103 -0.0792
15378TIP3    H167625   0.400   0.293  13.194  1.8486 -0.5869 -0.8311
15378TIP3    H267626   0.408   0.392  13.309 -0.9826  0.7556 -1.7062
15379TIP3   OH267627   4.507   5.428  17.180  0.1011 -0.0030  0.2724
15379TIP3    H167628   4.467   5.351  17.220  0.8244 -0.4543  0.1404
15379TIP3    H267629   4.548   5.395  17.100  0.7185  0.4548  0.3946
15380TIP3   OH267630   2.870   2.682  16.600 -0.2734 -0.3550  0.4064
15380TIP3    H167631   2.865   2.721  16.687 -0.5925 -1.4172  0.8831
15380TIP3    H267632   2.957   2.706  16.567  0.0593 -0.3900  1.2371
15381TIP3   OH267633   0.922   3.276  11.644 -0.5337 -0.2855 -0.2920
15381TIP3    H167634   0.971   3.281  11.561 -1.2917  0.9173 -0.6986
15381TIP3    H267635   0.849   3.218  11.626 -1.3961  0.9344 -0.8793
15382TIP3   OH267636   1.324   2.423  15.622  0.8824  0.4525  0.0930
15382TIP3    H167637   1.285   2.510  15.619 -1.8280 -0.6752 -1.0507
15382TIP3    H267638   1.256   2.365  15.586  1.3680 -2.5465  3.4222
15383TIP3   OH267639   1.407   2.502  14.080 -0.0904  0.4504  0.5010
15383TIP3    H167640   1.479   2.450  14.043  0.9444  1.4253  1.0837
15383TIP3    H267641   1.370   2.445  14.148  2.0644  0.9665  2.2607
15384TIP3   OH267642   0.632   0.368  15.119  0.1290  0.0622  0.1510
15384TIP3    H167643   0.647   0.345  15.211 -0.7523 -1.5953 -0.0881
15384TIP3    H267644   0.713   0.413  15.092 -0.0862  1.7482  2.0574
15385TIP3   OH267645   6.331   3.011   4.757 -0.4836 -0.2421  0.2380
15385TIP3    H167646   6.412   3.002   4.708 -0.2583  1.7701  0.1697
15385TIP3    H267647   6.283   3.081   4.713 -1.5703 -0.3406  1.1959
15386TIP3   OH267648   5.958   5.815   5.244  0.2827 -0.0532  0.3912
15386TIP3    H167649   5.878   5.772   5.213  0.6213 -0.5888  0.2547
15386TIP3    H267650   5.967   5.786   5.334  0.0454  0.4179  0.5688
15387TIP3   OH267651   3.664   2.444   0.179  0.2658  0.1713  0.3246
15387TIP3    H167652   3.589   2.453   0.120  0.2592  1.0338  0.4513
15387TIP3    H267653   3.694   2.355   0.166 -0.8032 -0.2011  0.2890
15388TIP3   OH267654   1.543   6.359   1.715 -0.1098 -0.4633  0.4736
15388TIP3    H167655   1.489   6.281   1.725  0.3432 -0.8991 -0.3686
15388TIP3    H267656   1.629   6.333   1.749 -0.3996  0.2212  1.7991
15389TIP3   OH267657   0.646   5.118   2.274 -0.2800  0.0144 -0.4089
15389TIP3    H167658   0.594   5.078   2.205 -0.0144  2.0774 -1.9243
15389TIP3    H267659   0.737   5.097   2.251 -0.2453 -0.1952 -0.0801
15390TIP3   OH267660   6.359   0.574   0.314 -0.3048 -0.1343  0.2155
15390TIP3    H167661   6.266   0.595   0.304 -0.4916 -0.2867  1.4568
15390TIP3    H267662   6.363   0.479   0.305 -0.2728 -0.1312  0.1958
15391TIP3   OH267663   4.289   2.506  13.179  0.1374 -0.6164 -0.1227
15391TIP3    H167664   4.199   2.538  13.177 -0.5033 -1.6732  3.7684
15391TIP3    H267665   4.281   2.411  13.169  0.8443 -0.6903 -0.0028
15392TIP3   OH267666   5.842   0.127   1.019 -0.3590  0.1319 -0.3317
15392TIP3    H167667   5.934   0.143   1.040  0.0327 -0.6407 -1.4013
15392TIP3    H267668   5.800   0.213   1.025  0.4958  0.5415 -0.1730
15393TIP3   OH267669   0.066   2.068   1.080 -0.2273  0.1419 -0.2510
15393TIP3    H167670   0.143   2.014   1.097  0.3314  0.9821 -0.0412
15393TIP3    H267671   0.045   2.052   0.988 -1.4702 -2.1546  0.3356
15394TIP3   OH267672   0.160   3.527   1.112 -0.2483  0.3319  0.5729
15394TIP3    H167673   0.232   3.467   1.093 -0.5568  0.3059 -0.6355
15394TIP3    H267674   0.081   3.476   1.094 -0.5442  0.6751  0.8796
15395TIP3   OH267675   0.815   1.726  16.875 -0.1616  0.0470  0.3457
15395TIP3    H167676   0.834   1.812  16.838 -1.5500  0.7291  1.1355
15395TIP3    H267677   0.821   1.666  16.800  0.1523  0.9351 -0.3510
15396TIP3   OH267678   3.778   0.312  15.614  0.0072 -0.5407  0.1023
15396TIP3    H167679   3.784   0.217  15.610  1.5074 -0.4776  0.0877
15396TIP3    H267680   3.684   0.331  15.612 -0.2950 -1.9770 -0.7959
15397TIP3   OH267681   4.752   0.430   1.165 -0.1138  0.4913 -0.1766
15397TIP3    H167682   4.750   0.526   1.158  1.1324  0.4936 -0.7851
15397TIP3    H267683   4.844   0.409   1.181 -0.2171 -0.6598 -0.9615
15398TIP3   OH267684   5.640   6.394   3.609 -0.0015 -0.2755  0.2420
15398TIP3    H167685   5.708   6.429   3.666  0.5390 -1.6624  0.5043
15398TIP3    H267686   5.656   6.299   3.609 -2.3626 -0.7298  0.8831
15399TIP3   OH267687   2.906   3.383  10.715 -0.0313 -0.2399 -0.0661
15399TIP3    H167688   2.989   3.336  10.722  0.2808  0.0701 -1.3761
15399TIP3    H267689   2.931   3.471  10.684 -0.6521  0.6481  1.8104
15400TIP3   OH267690   4.649   5.280   2.219 -0.3664  0.4547 -0.3515
15400TIP3    H167691   4.630   5.209   2.157 -0.5729 -0.6197  0.9092
15400TIP3    H267692   4.726   5.249   2.267 -1.5689  0.1969  1.4999
15401TIP3   OH267693   3.528   0.424   3.507  0.0570  0.5752 -0.2653
15401TIP3    H167694   3.605   0.462   3.466  0.2923 -1.1334 -1.5363
15401TIP3    H267695   3.502   0.353   3.448 -2.4526  1.0385  0.1652
15402TIP3   OH267696   3.920   1.101   6.131 -0.9510  0.3486  0.3892
15402TIP3    H167697   3.871   1.177   6.163 -0.0648  0.5695  1.2759
15402TIP3    H267698   3.894   1.030   6.190 -0.6453  0.3314  0.5054
15403TIP3   OH267699   4.626   4.893   1.243 -0.0048 -0.1297  0.3422
15403TIP3    H167700   4.616   4.895   1.148 -0.7803 -0.4829  0.4115
15403TIP3    H267701   4.541   4.864   1.276 -0.7847  2.9130  1.3176
15404TIP3   OH267702   4.625   2.258   5.259  0.1410  0.2575 -0.3001
15404TIP3    H167703   4.541   2.302   5.255  0.1392  0.2680 -0.1453
15404TIP3    H267704   4.616   2.195   5.330  0.6870  1.1561  0.6031
15405TIP3   OH267705   2.734   6.651  13.299  0.4117 -0.7368  0.7303
15405TIP3    H167706   2.694   6.692  13.222  3.3901  0.4754 -0.3118
15405TIP3    H267707   2.659   6.622  13.352 -1.7755  0.3811 -1.5198
15406TIP3   OH267708   2.217   2.938  16.363 -0.2006  0.3573  0.6889
15406TIP3    H167709   2.238   2.925  16.271  0.2092 -0.8248  0.9326
15406TIP3    H267710   2.285   2.997  16.395  0.4684 -0.3229  0.5435
15407TIP3   OH267711   6.629   2.929  12.844  0.1629 -0.0818 -0.4734
15407TIP3    H167712   6.620   2.834  12.837  2.0240 -0.2763 -0.8070
15407TIP3    H267713   6.724   2.944  12.850 -0.1555  1.6510  1.2533
15408TIP3   OH267714   6.230   5.354  12.130 -0.1906 -0.7603  0.0554
15408TIP3    H167715   6.199   5.386  12.215  0.5814  0.1208  0.0249
15408TIP3    H267716   6.315   5.314  12.149 -0.0409 -0.6129 -0.2795
15409TIP3   OH267717   1.088   6.638  15.152 -0.3203 -0.2735  0.1334
15409TIP3    H167718   1.118   6.618  15.063  0.2700  1.5797 -0.1118
15409TIP3    H267719   1.163   6.680  15.194 -0.9794 -0.0683  1.1476
15410TIP3   OH267720   1.841   2.812  16.275 -0.2651  0.2073  0.2960
15410TIP3    H167721   1.830   2.838  16.184 -0.3492 -1.5550 -0.2422
15410TIP3    H267722   1.908   2.871  16.310 -0.9702  1.5812 -0.5778
15411TIP3   OH267723   2.680   1.472   3.373  0.0243  0.3675  0.0187
15411TIP3    H167724   2.601   1.513   3.408 -1.5731 -2.4128  0.0065
15411TIP3    H267725   2.700   1.521   3.293 -1.8752  1.0086 -0.1111
15412TIP3   OH267726   4.347   1.719  12.220  0.0219 -0.6688  0.3398
15412TIP3    H167727   4.423   1.718  12.161  1.0976  0.8912  1.5939
15412TIP3    H267728   4.286   1.781  12.179  0.9653  0.7761  1.0229
15413TIP3   OH267729   3.161   4.383  14.132 -1.1111  0.0790 -0.2593
15413TIP3    H167730   3.144   4.472  14.102  1.5375  0.7945  0.1340
15413TIP3    H267731   3.197   4.394  14.220 -0.6457 -1.3833 -0.2455
15414TIP3   OH267732   5.290   4.457  12.429 -0.4213 -0.2287 -0.1442
15414TIP3    H167733   5.313   4.364  12.423 -1.8602 -0.5686 -1.3183
15414TIP3    H267734   5.330   4.497  12.352 -0.8348 -0.1450 -0.3220
15415TIP3   OH267735   1.543   5.576  14.077 -0.1014  0.0492  0.5033
15415TIP3    H167736   1.559   5.484  14.099  0.1492 -0.1273 -0.3894
15415TIP3    H267737   1.493   5.573  13.995  0.5755  0.7190  0.0503
15416TIP3   OH267738   4.378   2.300   0.761 -0.0303 -0.2341  0.0153
15416TIP3    H167739   4.407   2.221   0.808 -0.3670 -1.0388 -1.0694
15416TIP3    H267740   4.283   2.297   0.765 -0.0391  0.4140  0.4160
15417TIP3   OH267741   0.080   3.124  14.737  0.3533 -0.2418  0.0362
15417TIP3    H167742   0.067   3.041  14.783  0.2084 -0.0530  0.3389
15417TIP3    H267743  -0.007   3.164  14.735  0.7470  0.7865  1.6076
15418TIP3   OH267744   3.289   3.636  15.263 -0.2378 -0.2734  0.5399
15418TIP3    H167745   3.238   3.705  15.222 -1.3337 -0.3097  1.7974
15418TIP3    H267746   3.375   3.642  15.221 -0.2853  1.8694  0.6302
15419TIP3   OH267747   2.704   6.631   1.907 -0.1302 -0.0937  0.5725
15419TIP3    H167748   2.745   6.604   1.824 -0.1546 -2.5660  1.2977
15419TIP3    H267749   2.612   6.606   1.897  0.1024 -1.5178  1.7541
15420TIP3   OH267750   3.159   4.976  11.848  0.5417 -1.2876  0.3650
15420TIP3    H167751   3.138   4.958  11.939 -0.4879 -0.5345  0.3062
15420TIP3    H267752   3.238   5.031  11.851  0.8811 -1.7977  0.7625
15421TIP3   OH267753   1.223   0.683   3.780  0.3745  0.5746  0.1457
15421TIP3    H167754   1.230   0.745   3.852  0.8322  0.2364  0.3961
15421TIP3    H267755   1.268   0.726   3.707  0.9003  0.4373  0.3866
15422TIP3   OH267756   0.325   6.016  12.464  0.0530 -0.2217 -0.3856
15422TIP3    H167757   0.286   5.940  12.508 -0.2289  0.7255  1.0802
15422TIP3    H267758   0.252   6.076  12.451  0.4969  0.3501 -0.2941
15423TIP3   OH267759   1.300   5.288   1.701  0.1414  0.4472  0.2975
15423TIP3    H167760   1.357   5.225   1.746  0.3034  0.3941  0.0167
15423TIP3    H267761   1.220   5.238   1.683 -0.6449  0.9624  2.1183
15424TIP3   OH267762   0.724   4.659   2.700 -0.1706 -0.7323  0.3449
15424TIP3    H167763   0.812   4.680   2.671  0.0917 -0.7997  1.0664
15424TIP3    H267764   0.667   4.683   2.626  0.3604  0.1248  0.2059
15425TIP3   OH267765   0.760   3.753  14.459 -0.5364 -0.1201  0.1162
15425TIP3    H167766   0.704   3.694  14.510  0.5103 -1.4652 -0.2485
15425TIP3    H267767   0.701   3.823  14.430 -1.7780 -0.9155  0.6551
15426TIP3   OH267768   3.861   1.532   5.026  0.4011  1.0443 -0.1978
15426TIP3    H167769   3.787   1.508   4.972  0.4922  1.4557 -0.5049
15426TIP3    H267770   3.900   1.448   5.052  0.2544  0.8473 -0.6176
15427TIP3   OH267771   0.065   6.803   0.328  0.2576  0.0002 -0.0494
15427TIP3    H167772   0.112   6.857   0.265 -0.9164  1.4360  0.2669
15427TIP3    H267773   0.133   6.768   0.385  1.0125  1.4986  0.0106
15428TIP3   OH267774   3.505   2.325  14.602  0.3542  0.1991 -0.7005
15428TIP3    H167775   3.447   2.296  14.532 -1.6967  0.6122  0.7613
15428TIP3    H267776   3.483   2.417  14.615 -0.4939 -0.2596  1.5361
15429TIP3   OH267777   2.875   3.960  10.813  0.1201  0.0054  0.0171
15429TIP3    H167778   2.870   4.025  10.742 -0.1365  1.3036  1.1755
15429TIP3    H267779   2.967   3.937  10.818  0.0712 -0.4543 -1.0403
15430TIP3   OH267780   3.297   3.871   3.730  0.6339  0.6809 -0.3058
15430TIP3    H167781   3.383   3.831   3.719  0.5631  0.7934 -1.4676
15430TIP3    H267782   3.315   3.964   3.743  0.6970  0.7484 -0.8250
15431TIP3   OH267783   6.133   1.192  13.863  0.2668  0.0633 -0.2047
15431TIP3    H167784   6.131   1.118  13.802 -1.2466  0.7277 -1.0466
15431TIP3    H267785   6.169   1.264  13.812  0.2032  0.3098  0.0956
15432TIP3   OH267786   5.838   3.705  11.926  0.3482  0.4681 -0.1476
15432TIP3    H167787   5.825   3.763  12.001 -0.4723 -0.3593  0.3719
15432TIP3    H267788   5.749   3.685  11.896  0.6447  0.0794 -0.7884
15433TIP3   OH267789   2.224   4.583   3.383  0.0802  0.7780 -0.5293
15433TIP3    H167790   2.260   4.649   3.442 -1.0487  0.5220  0.4963
15433TIP3    H267791   2.291   4.571   3.316  1.7258  0.6271  1.0431
15434TIP3   OH267792   6.358   5.023   5.626 -0.4924 -0.3857  0.1292
15434TIP3    H167793   6.295   4.993   5.560 -0.2633  0.5378 -0.5403
15434TIP3    H267794   6.424   4.954   5.629 -0.8180 -0.7163 -0.1825
15435TIP3   OH267795   0.773   3.185   2.516  0.2673  0.4417 -0.2083
15435TIP3    H167796   0.679   3.169   2.519 -0.2414  2.7281 -1.1861
15435TIP3    H267797   0.812   3.100   2.497 -1.5406 -0.6246  0.5601
15436TIP3   OH267798   2.060   4.386   6.589  0.2753  0.1611  0.1772
15436TIP3    H167799   2.034   4.418   6.503  1.8483  0.3789 -0.2461
15436TIP3    H267800   2.057   4.290   6.581  0.1289  0.1813 -0.0223
15437TIP3   OH267801   3.777   1.346  15.969  0.2441  0.2764  0.8337
15437TIP3    H167802   3.795   1.433  15.932 -2.4979 -0.3341 -2.3976
15437TIP3    H267803   3.852   1.293  15.941  0.0776  0.7603 -0.6434
15438TIP3   OH267804   0.775   6.609   2.323 -0.6231  0.5386  0.7618
15438TIP3    H167805   0.835   6.579   2.392  0.3319  0.4346 -0.0890
15438TIP3    H267806   0.738   6.528   2.287 -0.5375  0.5538  0.6402
15439TIP3   OH267807   4.951   4.144   6.122  0.3479  0.9181 -0.3075
15439TIP3    H167808   5.026   4.094   6.086  0.7411  1.4624 -0.2518
15439TIP3    H267809   4.955   4.128   6.216 -0.2422  0.0936 -0.4085
15440TIP3   OH267810   2.449   6.823  12.870 -0.2528 -0.6478 -0.2804
15440TIP3    H167811   2.485   6.901  12.827  1.2848 -1.5754 -0.7509
15440TIP3    H267812   2.355   6.834  12.864 -0.1364 -0.3992 -3.3592
15441TIP3   OH267813   4.519   3.790   0.017  0.0384 -0.5284  0.1078
15441TIP3    H167814   4.451   3.844  -0.024  1.2383 -0.0842 -1.4109
15441TIP3    H267815   4.591   3.851   0.033  0.2797 -1.0954  1.2065
15442TIP3   OH267816   1.448   2.856   5.108 -0.0296  0.2359  0.3773
15442TIP3    H167817   1.533   2.898   5.094  0.8610 -1.6004  0.0499
15442TIP3    H267818   1.406   2.910   5.175  0.6972  2.1186 -0.6147
15443TIP3   OH267819   4.036   2.645   4.513 -1.0539  0.3936 -0.3986
15443TIP3    H167820   3.947   2.616   4.496 -0.6675 -1.4544  0.4535
15443TIP3    H267821   4.047   2.634   4.607  0.0213  0.7455 -0.4705
15444TIP3   OH267822   3.944   4.318  15.204  0.0226 -0.1157 -0.1878
15444TIP3    H167823   3.888   4.388  15.237  0.4986  0.6598 -1.0064
15444TIP3    H267824   3.910   4.298  15.117  1.4507  0.8993 -1.0176
15445TIP3   OH267825   6.396   3.398  14.824 -0.3185  0.0180 -0.6491
15445TIP3    H167826   6.328   3.459  14.794 -0.0707  0.4951 -0.2385
15445TIP3    H267827   6.369   3.374  14.912  0.2387  0.5024 -0.3378
15446TIP3   OH267828   0.482   4.931   2.135  0.7977 -0.3135 -0.0692
15446TIP3    H167829   0.425   4.854   2.138 -0.0602  0.3000 -0.2611
15446TIP3    H267830   0.435   4.993   2.080  1.6231  0.2388 -0.1583
15447TIP3   OH267831   0.741   0.301   3.237  0.4697 -0.0768  0.1541
15447TIP3    H167832   0.661   0.284   3.288  0.0870  0.7364 -0.1591
15447TIP3    H267833   0.801   0.232   3.264 -0.7794 -1.5241 -0.5572
15448TIP3   OH267834   3.160   1.125  12.892  0.2234  0.0369  0.1148
15448TIP3    H167835   3.238   1.169  12.925  0.4466 -0.4206  0.2054
15448TIP3    H267836   3.180   1.106  12.801  0.7285 -1.2012  0.4639
15449TIP3   OH267837   2.454   4.788   1.229  0.0844  0.1800 -0.1727
15449TIP3    H167838   2.539   4.827   1.209  1.3960 -2.7936 -0.9842
15449TIP3    H267839   2.404   4.795   1.148  0.6619 -0.5539 -0.6090
15450TIP3   OH267840   1.293   2.078  12.073 -0.2233 -0.6690  0.1848
15450TIP3    H167841   1.211   2.116  12.040 -0.6768  1.3591  3.2157
15450TIP3    H267842   1.271   1.987  12.093 -0.7773 -1.0493 -1.8836
15451TIP3   OH267843   1.842   0.523  13.132  0.0762 -0.2401 -0.1448
15451TIP3    H167844   1.898   0.457  13.091  1.7559  1.8946 -1.4957
15451TIP3    H267845   1.778   0.545  13.064  0.6802  0.8025 -0.3958
15452TIP3   OH267846   3.961   6.704  15.037 -0.8939  0.5997 -0.1760
15452TIP3    H167847   3.913   6.774  14.994 -1.8726  1.2634  1.8983
15452TIP3    H267848   3.920   6.695  15.123  1.7023  0.1320  1.1112
15453TIP3   OH267849   3.346   4.541   0.452  0.2155 -0.0994 -0.0011
15453TIP3    H167850   3.306   4.455   0.438 -2.2050  0.6354  1.7925
15453TIP3    H267851   3.389   4.534   0.537 -1.7670  0.9895  1.1501
15454TIP3   OH267852   2.417   0.566  16.883  0.3899  0.1400  0.1892
15454TIP3    H167853   2.361   0.570  16.961 -0.7105 -2.0593 -0.3964
15454TIP3    H267854   2.446   0.475  16.879  0.5445  0.2364 -1.8663
15455TIP3   OH267855   4.145   1.703   4.813  0.2820  0.2545  0.0120
15455TIP3    H167856   4.149   1.608   4.822 -0.6734  0.0483 -1.3883
15455TIP3    H267857   4.077   1.731   4.874  0.9529  0.1223  0.8387
15456TIP3   OH267858   4.086   5.472   5.955  0.2662 -0.1927  0.3691
15456TIP3    H167859   4.148   5.420   6.006 -0.0603 -0.0797  0.8906
15456TIP3    H267860   4.122   5.561   5.958 -0.5631  0.1426  1.7774
15457TIP3   OH267861   2.911   5.217  15.730 -0.5397  0.5258  0.1014
15457TIP3    H167862   2.912   5.191  15.822 -0.5935  1.5348  0.3914
15457TIP3    H267863   2.837   5.277  15.723 -0.8977  0.0026 -0.7324
15458TIP3   OH267864   5.077   2.031   0.113 -0.7253 -0.7395  0.1304
15458TIP3    H167865   5.047   2.121   0.125  0.2872 -0.5363  1.3827
15458TIP3    H267866   4.999   1.978   0.124 -0.9942 -0.1123  1.4244
15459TIP3   OH267867   2.070   4.932   1.137 -0.2508  0.4525  0.1404
15459TIP3    H167868   2.019   4.910   1.059 -1.9515  0.0084  1.3321
15459TIP3    H267869   2.062   4.856   1.194 -1.0423  1.6529  1.7194
15460TIP3   OH267870   6.353   5.966  12.007 -0.5226 -0.0932  0.3231
15460TIP3    H167871   6.261   5.992  12.007 -0.7780 -0.9903  0.6467
15460TIP3    H267872   6.400   6.047  12.027 -1.2839  0.2080  0.9507
15461TIP3   OH267873   0.987   2.071   4.632 -0.1079  0.2723  0.4712
15461TIP3    H167874   0.944   2.022   4.562  1.4596  2.2833 -2.1089
15461TIP3    H267875   1.042   2.006   4.676 -0.0118 -0.8344 -1.1735
15462TIP3   OH267876   1.706   3.812  14.687  0.0961  0.6039 -0.0627
15462TIP3    H167877   1.618   3.817  14.651 -0.9037 -2.9147  1.4675
15462TIP3    H267878   1.695   3.772  14.773  3.1319  0.7539  0.5226
15463TIP3   OH267879   4.138   0.534   6.590 -0.1163 -0.5828 -0.2249
15463TIP3    H167880   4.110   0.582   6.512 -3.2433 -1.2638  0.3338
15463TIP3    H267881   4.186   0.598   6.642 -0.9567  0.8732 -1.1744
15464TIP3   OH267882   6.201   1.640   3.770  0.1556  0.6104  0.9538
15464TIP3    H167883   6.295   1.657   3.778  0.5271 -1.6133  2.1655
15464TIP3    H267884   6.178   1.592   3.850 -2.0487  1.1500  0.7285
15465TIP3   OH267885   1.553   3.985   2.708 -0.0348  0.0143 -0.5078
15465TIP3    H167886   1.532   4.029   2.625 -0.5682  1.8655  0.5723
15465TIP3    H267887   1.474   3.994   2.761  1.0450  0.7920  1.0088
15466TIP3   OH267888   1.225   3.659   5.321  0.0880  0.2381 -0.2800
15466TIP3    H167889   1.286   3.588   5.300  1.6029  1.7416 -1.2641
15466TIP3    H267890   1.160   3.656   5.251  1.8561  1.6175 -2.1013
15467TIP3   OH267891   6.087   3.480  15.379  0.2373 -0.0488 -0.1602
15467TIP3    H167892   6.026   3.408  15.398 -0.6209  0.9985  1.2842
15467TIP3    H267893   6.148   3.478  15.453  0.4183  0.4835 -0.2952
15468TIP3   OH267894   0.407   5.177   5.013  0.1047 -0.7017 -0.2494
15468TIP3    H167895   0.479   5.132   5.056  2.2497  2.1678 -0.5751
15468TIP3    H267896   0.343   5.193   5.083  1.2097 -0.5654  0.7557
15469TIP3   OH267897   6.162   4.744   0.565 -0.6199 -0.2648 -1.1506
15469TIP3    H167898   6.202   4.670   0.520 -0.9250 -0.3498 -1.2881
15469TIP3    H267899   6.103   4.783   0.499 -0.6249 -0.0347 -1.0110
15470TIP3   OH267900   5.862   3.233   0.898 -0.0562 -0.4763  0.2902
15470TIP3    H167901   5.954   3.210   0.917 -0.3731 -1.8435  0.3082
15470TIP3    H267902   5.822   3.149   0.875 -1.1799  0.1983 -0.2508
15471TIP3   OH267903   2.014   5.486  11.655 -0.4350 -0.0235  0.2660
15471TIP3    H167904   1.949   5.484  11.585  1.9115 -1.3593 -2.0391
15471TIP3    H267905   2.061   5.569  11.643  0.7866 -0.8079 -0.6222
15472TIP3   OH267906   2.071   2.473  10.589  0.3348 -0.9118 -0.0404
15472TIP3    H167907   2.052   2.543  10.527  0.6892 -1.6349 -0.9941
15472TIP3    H267908   2.161   2.488  10.616 -0.5453  0.8347  2.2532
15473TIP3   OH267909   2.439   1.282   4.210 -0.2909 -0.1394 -0.4287
15473TIP3    H167910   2.457   1.325   4.294  0.4555 -2.5752  0.7496
15473TIP3    H267911   2.343   1.277   4.207 -0.3565  0.6863 -0.1298
15474TIP3   OH267912   0.389   1.751   2.450 -0.2438 -0.4249  0.2522
15474TIP3    H167913   0.352   1.783   2.532  2.0407  1.2329  0.7680
15474TIP3    H267914   0.470   1.707   2.476  1.3428  1.4589 -1.0983
15475TIP3   OH267915   5.463   6.456  14.953 -0.2309 -0.4640  0.0271
15475TIP3    H167916   5.378   6.470  14.913  0.0356  1.3192 -0.0171
15475TIP3    H267917   5.518   6.422  14.883 -0.7356 -1.0421 -0.0980
15476TIP3   OH267918   4.832   3.750  13.727 -0.4010 -0.2356 -0.4337
15476TIP3    H167919   4.886   3.820  13.765  0.1627 -0.6018 -0.5622
15476TIP3    H267920   4.822   3.775  13.635 -1.3208  0.3697 -0.1899
15477TIP3   OH267921   3.337   2.769  14.029  0.3140 -0.1942  0.2071
15477TIP3    H167922   3.287   2.748  14.108 -1.2901 -0.0929 -0.7414
15477TIP3    H267923   3.342   2.865  14.029  1.1754 -0.2307  0.6800
15478TIP3   OH267924   6.274   3.664  12.468 -0.0888 -0.3962  0.1058
15478TIP3    H167925   6.316   3.750  12.471 -1.9942  0.5398  1.3991
15478TIP3    H267926   6.318   3.618  12.396  1.2228  1.5021 -0.3587
15479TIP3   OH267927   5.639   4.001   3.218 -0.3950 -0.3534 -0.5070
15479TIP3    H167928   5.611   4.001   3.126 -1.3109 -1.9458 -0.2626
15479TIP3    H267929   5.565   4.037   3.266 -2.7052 -5.2720  0.2296
15480TIP3   OH267930   2.803   4.334   3.149 -0.3875  0.2747 -0.0329
15480TIP3    H167931   2.708   4.322   3.157 -0.6616  1.7504 -0.6606
15480TIP3    H267932   2.829   4.372   3.233 -0.4184  0.2354 -0.0056
15481TIP3   OH267933   0.034   6.223  16.831 -0.0352 -0.6099  0.0904
15481TIP3    H167934   0.091   6.147  16.816 -0.5334 -0.9797  0.0384
15481TIP3    H267935  -0.053   6.192  16.807 -0.5411 -0.5896  1.7517
15482TIP3   OH267936   2.746   4.112   4.874 -0.2975 -0.1803  0.0952
15482TIP3    H167937   2.811   4.178   4.897  0.4241 -1.1756  1.0298
15482TIP3    H267938   2.794   4.045   4.826 -0.8767 -0.3662 -0.2401
15483TIP3   OH267939   0.743   5.881  16.398 -0.1011 -0.1055  0.3262
15483TIP3    H167940   0.815   5.942  16.381 -0.2876 -0.1770 -0.7408
15483TIP3    H267941   0.774   5.827  16.471  0.3377  0.8128  0.8332
15484TIP3   OH267942   4.776   2.087   1.677 -0.2701 -0.3920 -0.4247
15484TIP3    H167943   4.815   2.106   1.592  0.6568 -2.3870 -0.5189
15484TIP3    H267944   4.719   2.161   1.695  1.0707  1.0645 -1.8323
15485TIP3   OH267945   0.185   2.803   5.624  0.4866 -0.5468 -0.5400
15485TIP3    H167946   0.160   2.711   5.630  2.9015 -1.3305 -1.4109
15485TIP3    H267947   0.206   2.829   5.714 -3.1018  0.1664  0.2529
15486TIP3   OH267948   0.688   2.725   1.111 -0.9297  0.3864 -0.0075
15486TIP3    H167949   0.675   2.799   1.052 -0.6694 -0.7806 -1.5724
15486TIP3    H267950   0.724   2.656   1.056  0.3265 -0.4158  1.7423
15487TIP3   OH267951   4.935   0.817  13.420 -0.4299 -0.4637  0.0674
15487TIP3    H167952   4.949   0.723  13.420 -0.0329 -0.4348  1.5737
15487TIP3    H267953   5.020   0.854  13.447 -0.6784  0.3082 -0.1692
15488TIP3   OH267954   6.544   0.858   0.923  0.1755 -0.2591  0.0501
15488TIP3    H167955   6.576   0.825   0.839  0.3024  1.0834 -0.4524
15488TIP3    H267956   6.569   0.791   0.986 -0.6551 -1.7174 -1.0814
15489TIP3   OH267957   4.164   0.086  14.073  0.4044 -0.3052  0.1971
15489TIP3    H167958   4.105   0.021  14.035 -0.0468 -0.4181  1.0596
15489TIP3    H267959   4.141   0.168  14.029  0.2859 -0.5340 -0.1731
15490TIP3   OH267960   5.606   6.476  12.253 -0.4993  0.1936  0.5521
15490TIP3    H167961   5.694   6.475  12.215 -1.4812 -0.0242 -1.8971
15490TIP3    H267962   5.576   6.566  12.242 -0.9096  0.0604  0.5436
15491TIP3   OH267963   0.949   0.478   0.319  0.1909 -0.0510  0.2578
15491TIP3    H167964   0.993   0.564   0.326 -0.0463  0.1000 -0.1353
15491TIP3    H267965   0.858   0.499   0.299  0.6863 -0.4262 -2.9356
15492TIP3   OH267966   4.615   6.087  13.376 -0.7677 -0.3568 -0.6906
15492TIP3    H167967   4.602   6.081  13.281 -2.1533 -0.1143 -0.5334
15492TIP3    H267968   4.707   6.065  13.388 -1.1348 -2.9829 -1.8525
15493TIP3   OH267969   3.409   1.032  17.174 -0.3259 -0.4760 -0.6890
15493TIP3    H167970   3.393   0.967  17.243  1.2007 -1.1850 -0.9483
15493TIP3    H267971   3.329   1.032  17.122 -1.0604 -0.7776  0.4059
15494TIP3   OH267972   6.495   1.434  16.610 -0.1054  0.3546 -0.5311
15494TIP3    H167973   6.498   1.395  16.523  0.0028  0.0375 -0.3906
15494TIP3    H267974   6.541   1.370  16.666 -1.3640 -0.1071  0.0053
15495TIP3   OH267975   1.855   6.438  11.122 -0.0322  0.0903 -0.0856
15495TIP3    H167976   1.887   6.381  11.192  0.6082  0.5814  0.0335
15495TIP3    H267977   1.871   6.389  11.042  0.6010  0.1338  0.0102
15496TIP3   OH267978   0.937   1.463   3.065 -0.0274  0.1632 -0.6205
15496TIP3    H167979   0.868   1.529   3.058 -0.0080  0.4195  1.1268
15496TIP3    H267980   0.891   1.382   3.086  0.1225  0.1676 -0.2552
15497TIP3   OH267981   5.288   0.132   0.505  0.1195  0.7915 -0.2409
15497TIP3    H167982   5.246   0.190   0.568  1.6081  0.2406  1.3361
15497TIP3    H267983   5.358   0.184   0.466 -0.5352  1.0004 -1.1808
15498TIP3   OH267984   6.104   5.262  10.854  0.0107  0.2420 -0.4545
15498TIP3    H167985   6.033   5.318  10.884  0.2570  0.2330  0.1754
15498TIP3    H267986   6.139   5.223  10.935  1.6944  1.3919 -0.5830
15499TIP3   OH267987   5.882   3.437   4.474  0.0209  1.0134  0.6545
15499TIP3    H167988   5.914   3.527   4.476  0.7798  0.7784 -0.4803
15499TIP3    H267989   5.789   3.444   4.498 -0.3594  2.3030 -1.0349
15500TIP3   OH267990   2.749   4.216  12.987  0.3935 -0.0117  0.0238
15500TIP3    H167991   2.662   4.231  12.949  0.8420 -1.5217 -1.7384
15500TIP3    H267992   2.734   4.152  13.057 -0.0039  0.2423  0.1719
15501TIP3   OH267993   0.983   2.432  16.052  0.0254 -0.3532 -0.3490
15501TIP3    H167994   0.912   2.475  16.005  0.0971  0.6278  0.4132
15501TIP3    H267995   1.060   2.486  16.035 -0.0851  0.4309  1.3985
15502TIP3   OH267996   6.009   0.123   2.619 -0.0900  0.1656  0.3347
15502TIP3    H167997   5.960   0.063   2.563 -0.5355  0.8858 -0.0769
15502TIP3    H267998   6.061   0.175   2.558 -1.1081  1.4358  0.4900
15503TIP3   OH267999   2.447   6.670   1.277  0.1828  0.0135  0.2206
15503TIP3    H168000   2.410   6.662   1.189 -0.9473 -1.3919  0.7960
15503TIP3    H268001   2.526   6.617   1.275 -0.3550 -0.8119  0.3031
15504TIP3   OH268002   1.619   2.756   0.501  0.4805 -0.3128  0.4352
15504TIP3    H168003   1.614   2.709   0.417  2.1302 -0.1769  0.2412
15504TIP3    H268004   1.649   2.691   0.564 -0.0151 -0.2232  0.7684
15505TIP3   OH268005   6.639   2.159  12.196 -0.0088 -0.3180  0.5223
15505TIP3    H168006   6.650   2.072  12.157  3.5495  0.2527 -0.0697
15505TIP3    H268007   6.643   2.144  12.290 -0.9719 -0.9180  0.4829
15506TIP3   OH268008   0.338   1.462   3.610  0.1626  0.1311 -0.6593
15506TIP3    H168009   0.315   1.408   3.534  0.8228  2.1496 -2.3860
15506TIP3    H268010   0.374   1.542   3.572  0.2476  1.3373  1.8062
15507TIP3   OH268011   6.070   2.164  13.196  0.2788 -0.1966 -0.1138
15507TIP3    H168012   6.108   2.244  13.160 -0.9987  0.0127 -1.0318
15507TIP3    H268013   5.988   2.152  13.150 -0.4395 -1.0549  1.3005
15508TIP3   OH268014   0.136   6.581   2.651  0.2877  0.4298  0.1309
15508TIP3    H168015   0.225   6.586   2.617  0.9428  2.2197  1.8864
15508TIP3    H268016   0.083   6.629   2.588  0.9803  1.2819  0.1825
15509TIP3   OH268017   1.820   3.080  14.732  0.3267  0.0794  0.1934
15509TIP3    H168018   1.908   3.117  14.734  0.9373 -1.2110 -1.0569
15509TIP3    H268019   1.764   3.152  14.760  1.5741  1.6112 -1.0188
15510TIP3   OH268020   1.897   1.082  10.878  0.2145 -0.4876  0.4121
15510TIP3    H168021   1.916   1.174  10.862 -0.1343 -0.3952  0.5042
15510TIP3    H268022   1.979   1.036  10.860  0.2622 -0.2107 -0.0807
15511TIP3   OH268023   4.945   1.956  10.746  0.8571  0.2613 -0.2304
15511TIP3    H168024   4.939   2.033  10.801 -2.4966  0.6071 -0.8516
15511TIP3    H268025   4.884   1.893  10.785  2.1934 -1.4311 -0.7310
15512TIP3   OH268026   5.570   0.910  12.528  0.1090 -0.6863 -0.0292
15512TIP3    H168027   5.575   0.965  12.450 -0.4333 -1.2526 -0.4737
15512TIP3    H268028   5.561   0.972  12.601  0.8820 -0.1449 -0.3749
15513TIP3   OH268029   1.366   1.407   0.901  0.3041  0.0443  0.3934
15513TIP3    H168030   1.362   1.491   0.854  0.3037 -0.1505  0.0448
15513TIP3    H268031   1.298   1.353   0.860 -0.0828  0.0615  0.9954
15514TIP3   OH268032   6.014   1.714   4.176  0.3192  0.3457 -0.0805
15514TIP3    H168033   6.081   1.769   4.216  1.3120 -0.8662 -0.0105
15514TIP3    H268034   5.952   1.697   4.247  0.3211  0.8796  0.0533
15515TIP3   OH268035   3.778   5.686   5.235  0.3200  0.5829 -0.8639
15515TIP3    H168036   3.685   5.668   5.243  0.6499 -2.2269 -2.0121
15515TIP3    H268037   3.783   5.776   5.203 -2.0370  0.5027 -1.6331
15516TIP3   OH268038   4.773   2.870   6.480  0.1613  0.1777 -0.0030
15516TIP3    H168039   4.824   2.795   6.511  0.8495  1.6069  2.5123
15516TIP3    H268040   4.685   2.853   6.511 -0.1955 -0.5682 -1.3130
15517TIP3   OH268041   4.349   3.567  14.745  0.3890  0.4590 -0.9216
15517TIP3    H168042   4.341   3.558  14.840  0.1410  2.0753 -0.7687
15517TIP3    H268043   4.259   3.554  14.713  0.4603 -0.0130 -0.9420
15518TIP3   OH268044   1.616   6.099  10.889 -0.0263  0.1274 -0.1406
15518TIP3    H168045   1.589   6.045  10.816 -0.5300  0.2522 -0.0507
15518TIP3    H268046   1.600   6.189  10.860  0.8884  0.2444 -0.3244
15519TIP3   OH268047   0.244   5.731  13.024 -0.2147  0.1073 -0.2794
15519TIP3    H168048   0.223   5.688  13.106  0.2549  1.3405  0.5154
15519TIP3    H268049   0.192   5.684  12.958  2.8106 -3.9933 -0.1341
15520TIP3   OH268050   2.552   2.670  14.112  0.1799  0.2916  0.6627
15520TIP3    H168051   2.563   2.592  14.167 -0.5395 -0.8042 -0.6823
15520TIP3    H268052   2.634   2.677  14.063  1.1349  1.7198  2.3420
15521TIP3   OH268053   5.880   1.216  11.202 -0.0464 -0.4888 -0.0955
15521TIP3    H168054   5.897   1.302  11.238  0.5695 -1.0629  1.0342
15521TIP3    H268055   5.958   1.197  11.148  0.4760 -0.8998  0.7799
15522TIP3   OH268056   0.410   0.075   0.682  0.1290  0.0239 -0.4841
15522TIP3    H168057   0.500   0.060   0.654 -0.4302 -0.7551 -1.9423
15522TIP3    H268058   0.382   0.153   0.633  0.3102  0.9087  0.7510
15523TIP3   OH268059   2.662   4.314  10.848  0.5297  0.4976 -0.4581
15523TIP3    H168060   2.581   4.267  10.865  1.6797 -2.5139 -2.5032
15523TIP3    H268061   2.634   4.404  10.830 -1.8523  0.6505  2.9477
15524TIP3   OH268062   4.033   3.785   5.171  0.5704 -0.1345 -0.4077
15524TIP3    H168063   4.105   3.812   5.115  1.2918 -1.2959 -0.0697
15524TIP3    H268064   3.980   3.727   5.117  0.5828 -0.2792 -0.2657
15525TIP3   OH268065   0.844   0.514   0.610  0.0199  0.4823 -0.4334
15525TIP3    H168066   0.839   0.600   0.569  1.4200  0.6914 -0.2219
15525TIP3    H268067   0.853   0.453   0.537 -0.4262  0.5579 -0.5559
15526TIP3   OH268068   3.367   4.506   2.454  0.0316  0.4886 -0.0936
15526TIP3    H168069   3.461   4.521   2.452 -0.0726  1.7877  1.6343
15526TIP3    H268070   3.349   4.451   2.378  2.1551  0.2895 -0.5099
15527TIP3   OH268071   5.317   4.511   5.124 -0.0051 -0.5121  0.3994
15527TIP3    H168072   5.270   4.593   5.142 -2.5061 -1.4629 -1.1735
15527TIP3    H268073   5.253   4.443   5.143  1.4795 -2.0324  0.1494
15528TIP3   OH268074   5.303   5.530   3.799  0.0535 -0.2839  0.1573
15528TIP3    H168075   5.312   5.457   3.861 -1.0997  0.5256  1.3419
15528TIP3    H268076   5.363   5.596   3.831 -0.0993 -0.0908  0.0461
15529TIP3   OH268077   2.171   5.396  12.939 -0.0988  0.0833 -0.0124
15529TIP3    H168078   2.191   5.480  12.982  0.1222 -0.5096  1.0605
15529TIP3    H268079   2.094   5.415  12.885 -0.9464  0.6339  1.3348
15530TIP3   OH268080   5.817   6.531   1.446 -0.6113 -0.5821  0.5813
15530TIP3    H168081   5.842   6.551   1.536  1.8516  0.3799 -0.2347
15530TIP3    H268082   5.866   6.451   1.424 -0.9627 -0.6459 -0.0093
15531TIP3   OH268083   0.708   4.170   3.675 -0.5998 -0.3013  0.0173
15531TIP3    H168084   0.776   4.117   3.716 -0.7361  1.2410  2.4704
15531TIP3    H268085   0.631   4.157   3.731 -0.8812  1.7216  0.1536
15532TIP3   OH268086   3.817   6.426  15.107 -0.5641  0.6421  0.3559
15532TIP3    H168087   3.773   6.483  15.171 -2.0365  0.2382 -0.2454
15532TIP3    H268088   3.889   6.479  15.074  0.0083  0.9986  2.0672
15533TIP3   OH268089   6.530   6.261   0.820 -0.1272  0.1730 -0.2518
15533TIP3    H168090   6.536   6.274   0.915  3.1919  0.3290 -0.3757
15533TIP3    H268091   6.517   6.167   0.809 -1.3828  0.2605  0.3420
15534TIP3   OH268092   6.017   4.016   1.605  0.2398  0.0091 -0.0992
15534TIP3    H168093   6.099   3.965   1.607  0.7573  0.6120 -2.4114
15534TIP3    H268094   6.027   4.080   1.675  0.5513 -1.6107  1.4050
15535TIP3   OH268095   5.796   1.132  13.358 -0.6380 -0.0452  0.3440
15535TIP3    H168096   5.744   1.083  13.294 -0.1525 -0.1935  0.0587
15535TIP3    H268097   5.761   1.106  13.443 -0.5603 -0.6920  0.1836
15536TIP3   OH268098   0.008   4.093   5.381  0.2246 -0.4787  0.4930
15536TIP3    H168099   0.003   4.118   5.474  1.5934 -3.5180  1.5100
15536TIP3    H268100   0.091   4.130   5.351 -0.0875  0.2782  0.5547
15537TIP3   OH268101   3.502   2.788   1.031  0.5933  0.6561  0.2100
15537TIP3    H168102   3.556   2.723   1.075 -0.4748  0.7015  1.6621
15537TIP3    H268103   3.565   2.846   0.987  1.7676  0.8995  2.0937
15538TIP3   OH268104   1.301   6.724   2.701  0.2203 -0.1486 -0.0956
15538TIP3    H168105   1.280   6.759   2.788 -2.2458 -0.6302 -0.4246
15538TIP3    H268106   1.368   6.658   2.717 -1.5872 -1.6545  1.7739
15539TIP3   OH268107   6.088   2.683   5.614  0.1349  0.9478  0.6697
15539TIP3    H168108   6.063   2.675   5.706  0.8675  0.0513  0.8068
15539TIP3    H268109   6.008   2.710   5.570 -0.2674  1.2293  1.5461
15540TIP3   OH268110   1.996   6.178   3.476  0.0935 -0.3802 -0.3058
15540TIP3    H168111   1.975   6.265   3.512  1.7752 -0.3978  0.8231
15540TIP3    H268112   1.977   6.117   3.547 -1.8421 -1.0773 -1.3577
15541TIP3   OH268113   1.766   1.742  10.365  0.1518 -0.3287 -0.2558
15541TIP3    H168114   1.676   1.711  10.370 -0.0497  0.1720 -0.6873
15541TIP3    H268115   1.814   1.671  10.322 -0.0846 -0.4801 -0.2681
15542TIP3   OH268116   6.623   0.579  12.848  0.4257  0.4870  0.5108
15542TIP3    H168117   6.629   0.658  12.793  0.3559  0.7436  0.8651
15542TIP3    H268118   6.635   0.612  12.937  1.6317 -0.0822  0.5618
15543TIP3   OH268119   5.266   5.108  11.571  0.4389  0.5947 -0.3037
15543TIP3    H168120   5.195   5.111  11.636 -0.0822 -0.7853 -0.7581
15543TIP3    H268121   5.273   5.015  11.548  2.2000  0.7494 -0.5086
15544TIP3   OH268122   6.327   3.951  13.592  0.3139  0.4375 -0.4146
15544TIP3    H168123   6.387   3.961  13.666  0.1060  1.5305 -0.3652
15544TIP3    H268124   6.384   3.935  13.517  0.6908  1.4249 -0.3585
15545TIP3   OH268125   1.664   2.745   2.388 -0.0487 -0.2778 -0.2301
15545TIP3    H168126   1.630   2.825   2.429  2.0795  0.0673  1.0327
15545TIP3    H268127   1.666   2.680   2.459  2.1402 -0.1651 -0.1006
15546TIP3   OH268128   4.846   3.574   1.734  0.3782 -0.3515 -0.3386
15546TIP3    H168129   4.882   3.521   1.663  0.9311  0.3154 -0.5652
15546TIP3    H268130   4.843   3.514   1.809  2.4340 -0.3149 -0.1731
15547TIP3   OH268131   3.872   2.678  10.464 -0.3582 -0.2366  0.1137
15547TIP3    H168132   3.869   2.766  10.427 -0.9725  0.5645  1.9559
15547TIP3    H268133   3.781   2.658  10.486 -0.1479 -1.0889  0.2549
15548TIP3   OH268134   3.310   0.402   1.590  0.2241 -0.1163 -0.3835
15548TIP3    H168135   3.268   0.476   1.546 -0.5540 -0.9478 -1.0793
15548TIP3    H268136   3.278   0.325   1.543  0.5831 -0.9360  0.6756
15549TIP3   OH268137   6.214   3.103  14.636  0.0492  0.1123 -0.2572
15549TIP3    H168138   6.196   3.020  14.592  0.5788  0.4634 -1.1552
15549TIP3    H268139   6.147   3.109  14.704  1.2689 -2.0781  1.2659
15550TIP3   OH268140   1.640   0.560  15.281 -0.8842 -0.5273 -0.1477
15550TIP3    H168141   1.552   0.526  15.267 -1.1586  0.4033 -0.7808
15550TIP3    H268142   1.635   0.651  15.254  0.4506 -0.6395 -0.8450
15551TIP3   OH268143   0.373   1.595   5.405 -0.1481  0.0199 -0.3712
15551TIP3    H168144   0.319   1.653   5.459 -1.4295 -1.3112 -0.1508
15551TIP3    H268145   0.368   1.510   5.450  1.3647 -0.3701 -0.8854
15552TIP3   OH268146   1.787   0.776  13.241 -0.2046  0.2493  0.2118
15552TIP3    H168147   1.844   0.700  13.233 -0.2929  0.2201 -0.1584
15552TIP3    H268148   1.759   0.794  13.152 -1.5863 -0.3523  0.5007
15553TIP3   OH268149   1.984   3.939  16.571  0.3422  0.1635 -0.1459
15553TIP3    H168150   2.027   3.878  16.630  0.8507  0.1434 -0.5245
15553TIP3    H268151   1.915   3.888  16.530 -1.0500  0.5870  1.5549
15554TIP3   OH268152   4.159   2.146  16.786  0.4017  0.3024  0.2087
15554TIP3    H168153   4.250   2.173  16.794  0.9387 -1.1213 -0.6907
15554TIP3    H268154   4.112   2.224  16.756  1.6045  0.6194 -0.8831
15555TIP3   OH268155   2.463   2.438  16.706 -0.0786 -0.0564  0.2868
15555TIP3    H168156   2.456   2.493  16.784 -1.2922  0.0123  0.1504
15555TIP3    H268157   2.505   2.494  16.641  0.3747  0.0942  0.7087
15556TIP3   OH268158   6.535   0.449  10.967 -0.1631 -0.2518  0.3796
15556TIP3    H168159   6.578   0.414  10.889  1.8107  1.8986  0.3711
15556TIP3    H268160   6.603   0.444  11.035 -0.9174  0.4608  1.2036
15557TIP3   OH268161   4.478   4.967  13.884  0.0679  0.6967  0.0070
15557TIP3    H168162   4.473   4.994  13.976 -0.7055 -0.7239  0.4144
15557TIP3    H268163   4.532   5.034  13.842  2.0656  0.4033  1.8905
15558TIP3   OH268164   2.365   0.887  16.521 -0.1713 -0.2415  0.1471
15558TIP3    H168165   2.431   0.909  16.587  0.3539  0.0418 -0.4722
15558TIP3    H268166   2.317   0.814  16.561 -1.0415  1.0778  1.6166
15559TIP3   OH268167   3.622   6.022   5.485 -0.9406 -0.1781 -0.0192
15559TIP3    H168168   3.587   5.953   5.428  0.8222 -0.4636 -0.8240
15559TIP3    H268169   3.642   5.978   5.567 -1.3326 -0.2793  0.0210
15560TIP3   OH268170   0.067   0.504  16.474  0.2730  0.0580  0.2703
15560TIP3    H168171   0.049   0.578  16.532  1.8079  0.3248  0.4594
15560TIP3    H268172   0.155   0.476  16.499  0.1671 -1.0937 -0.5989
15561TIP3   OH268173   2.257   0.645  16.662  0.0546 -0.0663  0.3512
15561TIP3    H168174   2.183   0.587  16.681  0.6110 -0.0372  2.9228
15561TIP3    H268175   2.330   0.609  16.713  1.0171  1.6108  0.2334
15562TIP3   OH268176   6.223   0.062  15.272 -0.2115  0.2121  0.5589
15562TIP3    H168177   6.293  -0.001  15.292  0.4872  0.8557  0.1932
15562TIP3    H268178   6.269   0.141  15.245 -1.0551  1.1468  1.7358
15563TIP3   OH268179   0.793   4.884  16.044  0.1196  0.4311 -0.1412
15563TIP3    H168180   0.761   4.974  16.050  0.2300  0.5199 -0.7647
15563TIP3    H268181   0.876   4.885  16.093 -0.3785  0.4150  0.7141
15564TIP3   OH268182   1.170   6.162   4.394  0.0577  0.1252  0.4840
15564TIP3    H168183   1.174   6.187   4.486  1.4341  1.6179  0.0508
15564TIP3    H268184   1.115   6.228   4.353 -2.0174 -1.4867  0.4603
15565TIP3   OH268185   1.284   3.744   4.824 -0.4884  0.3897  0.3023
15565TIP3    H168186   1.312   3.749   4.916 -1.8278  1.3149  0.6789
15565TIP3    H268187   1.190   3.730   4.828 -0.4332 -0.4977 -0.9506
15566TIP3   OH268188   2.504   2.535  14.963  0.0777 -0.5940 -0.3285
15566TIP3    H168189   2.576   2.595  14.981 -0.0569 -0.5293  0.0047
15566TIP3    H268190   2.435   2.592  14.928 -0.2175 -0.4748  0.4242
15567TIP3   OH268191   2.515   6.677  14.746  0.0020 -0.0111  0.3080
15567TIP3    H168192   2.474   6.720  14.821 -0.0984  0.6744 -0.1328
15567TIP3    H268193   2.604   6.657  14.776 -0.5014 -1.1860  1.1470
15568TIP3   OH268194   6.249   1.217   1.997 -0.1489 -0.0345  0.1151
15568TIP3    H168195   6.327   1.272   2.001  0.2352 -0.6088  0.6702
15568TIP3    H268196   6.269   1.142   2.054 -0.2227 -1.3051 -1.4636
15569TIP3   OH268197   6.248   4.108  10.831 -0.2413  0.1587 -0.6328
15569TIP3    H168198   6.260   4.178  10.767  0.3827  0.7177  0.0715
15569TIP3    H268199   6.154   4.091  10.831 -0.5818  1.8648  0.0820
15570TIP3   OH268200   2.801   6.489   5.989 -0.1993 -0.1420  0.4860
15570TIP3    H168201   2.724   6.542   6.011 -0.6247 -0.6025  0.1403
15570TIP3    H268202   2.840   6.468   6.073  0.1072  0.8970  0.6225
15571TIP3   OH268203   5.861   0.055  11.336  0.2951 -0.0081 -0.0462
15571TIP3    H168204   5.818   0.036  11.420 -0.1670 -2.2595 -0.7132
15571TIP3    H268205   5.948   0.015  11.344  0.7659  0.9618 -0.1759
15572TIP3   OH268206   6.408   1.744   4.151  0.6693 -0.1527  0.2840
15572TIP3    H168207   6.426   1.664   4.101 -0.8487 -1.6958  2.0378
15572TIP3    H268208   6.491   1.764   4.195  0.3655 -2.7254  2.3197
15573TIP3   OH268209   4.007   3.359   5.398  0.5739  0.2304 -0.2344
15573TIP3    H168210   4.067   3.432   5.414  0.9225  0.1381 -1.0937
15573TIP3    H268211   3.920   3.398   5.407  0.7428  0.4126  0.8024
15574TIP3   OH268212   0.424   1.515   4.821 -0.0501  0.1909 -0.3266
15574TIP3    H168213   0.492   1.570   4.861  1.2996 -0.3096 -1.8564
15574TIP3    H268214   0.374   1.575   4.766 -0.4515  0.4359  0.2968
15575TIP3   OH268215   3.487   0.907  14.211  0.4464 -0.1112  0.5934
15575TIP3    H168216   3.392   0.910  14.227  0.1454 -2.4749 -0.3503
15575TIP3    H268217   3.504   0.983  14.156 -1.3792 -0.9335 -1.2415
15576TIP3   OH268218   1.038   2.362  12.631  0.1995  0.0855  0.3277
15576TIP3    H168219   1.108   2.297  12.626 -1.5106 -1.7585 -3.0952
15576TIP3    H268220   0.957   2.311  12.633 -1.1789  2.0464 -1.0195
15577TIP3   OH268221   3.105   4.764  11.127  0.2308  0.4246 -0.1805
15577TIP3    H168222   3.097   4.682  11.079  1.4039  0.7486 -0.9826
15577TIP3    H268223   3.117   4.739  11.218  1.0677 -0.3133 -0.4862
15578TIP3   OH268224   1.538   1.245  13.859 -0.2530  0.1276 -0.4825
15578TIP3    H168225   1.614   1.200  13.822  0.0901  0.4476 -0.1689
15578TIP3    H268226   1.500   1.182  13.919 -1.1785 -0.6352 -1.8175
15579TIP3   OH268227   0.280   1.392  16.693 -0.2323  0.5442  0.4935
15579TIP3    H168228   0.302   1.450  16.621 -3.1975  1.3866  0.1603
15579TIP3    H268229   0.338   1.421  16.765 -0.1139  2.4720 -0.3086
15580TIP3   OH268230   6.067   4.492   2.528  0.2830  0.0407  0.2676
15580TIP3    H168231   6.118   4.570   2.504  0.3963 -0.3112 -0.6640
15580TIP3    H268232   5.995   4.527   2.581  0.2117  0.8142 -0.3086
15581TIP3   OH268233   5.745   5.647  15.516 -0.2831 -0.4725 -0.2110
15581TIP3    H168234   5.687   5.612  15.448  0.2632 -1.0662 -0.3848
15581TIP3    H268235   5.757   5.574  15.577 -0.2162 -0.1569  0.1542
15582TIP3   OH268236   0.321   4.205   0.111  0.4438 -0.0670  0.1572
15582TIP3    H168237   0.307   4.247   0.196 -0.6821  0.8632 -0.4543
15582TIP3    H268238   0.278   4.120   0.120  0.5089 -0.0599  0.5791
15583TIP3   OH268239   2.314   0.653  14.306  0.3661 -0.3054 -0.4363
15583TIP3    H168240   2.344   0.679  14.393 -0.1755  1.3658 -0.7092
15583TIP3    H268241   2.263   0.573  14.321  1.2529 -0.7153  0.5953
15584TIP3   OH268242   4.638   3.656  13.419  0.2099 -0.4271 -0.0296
15584TIP3    H168243   4.578   3.704  13.476  1.3912  0.5367  0.4479
15584TIP3    H268244   4.720   3.706  13.423  0.7443 -1.1376 -1.4643
15585TIP3   OH268245   4.314   0.379  17.015  0.3623 -0.6428 -0.1765
15585TIP3    H168246   4.351   0.356  16.930  2.1708 -1.5938  0.8173
15585TIP3    H268247   4.222   0.351  17.009  0.1891  0.1515 -2.0936
15586TIP3   OH268248   0.643   6.160  16.833  0.2575 -0.5677  0.3573
15586TIP3    H168249   0.592   6.093  16.787 -1.1138  1.4524 -1.3022
15586TIP3    H268250   0.579   6.203  16.890  1.2039 -0.8969  1.7010
15587TIP3   OH268251   5.496   3.582   0.850 -0.0843  0.2314  0.4813
15587TIP3    H168252   5.481   3.676   0.859 -0.6319  0.3032 -0.8431
15587TIP3    H268253   5.590   3.574   0.835 -0.2274  0.7500 -0.9299
15588TIP3   OH268254   2.927   6.238   0.660 -0.4160  0.2031 -0.4775
15588TIP3    H168255   2.955   6.161   0.610 -1.5525 -0.5960  0.0650
15588TIP3    H268256   2.843   6.262   0.622 -0.6008  0.4914  0.0965
15589TIP3   OH268257   5.356   2.134   5.816 -0.0285  0.5274  0.2054
15589TIP3    H168258   5.422   2.078   5.857  1.0888  0.6782 -1.2866
15589TIP3    H268259   5.354   2.106   5.725  0.5333  2.8271 -0.5993
15590TIP3   OH268260   3.829   0.175  13.327  0.0152  0.0928  0.5008
15590TIP3    H168261   3.741   0.140  13.312  0.3804 -0.7594  0.3215
15590TIP3    H268262   3.832   0.193  13.421 -1.5465  3.4702  0.0723
15591TIP3   OH268263   0.395   5.573  15.352  0.3690  0.0661 -0.2608
15591TIP3    H168264   0.369   5.497  15.404  0.6957 -0.5263 -0.9603
15591TIP3    H268265   0.404   5.644  15.417 -2.2010  0.1266  0.1275
15592TIP3   OH268266   0.573   3.806   2.433 -0.1814  0.0288 -0.3160
15592TIP3    H168267   0.621   3.839   2.509 -0.1555 -2.0414  0.6408
15592TIP3    H268268   0.481   3.821   2.454 -0.2030 -0.9269  0.3818
15593TIP3   OH268269   2.815   5.490   2.700  0.5647  0.5117  0.2148
15593TIP3    H168270   2.758   5.509   2.774 -0.7961  0.4096 -0.7717
15593TIP3    H268271   2.893   5.543   2.715  0.1352  0.8059  1.4957
15594TIP3   OH268272   5.920   2.202  15.666 -0.0342  0.3583 -0.0767
15594TIP3    H168273   5.938   2.228  15.757 -0.3685  1.6666 -0.3582
15594TIP3    H268274   5.970   2.122  15.653  1.9087  1.4019  0.5560
15595TIP3   OH268275   6.161   3.760  13.764 -0.0042 -0.8578  0.1379
15595TIP3    H168276   6.204   3.738  13.846  0.3464 -1.9206 -0.3031
15595TIP3    H268277   6.209   3.836  13.731  0.8638 -1.3789  0.1689
15596TIP3   OH268278   4.854   1.920  15.955 -0.2785 -0.0419 -0.2230
15596TIP3    H168279   4.887   1.846  15.904  0.8712 -0.6890  1.3523
15596TIP3    H268280   4.909   1.994  15.930 -0.5016 -0.0623 -0.7755
15597TIP3   OH268281   3.848   5.654  12.873  0.0904 -0.1795  0.1465
15597TIP3    H168282   3.888   5.691  12.952 -1.0752  0.3717  0.4960
15597TIP3    H268283   3.915   5.595  12.838  0.2193 -1.3714  2.1911
15598TIP3   OH268284   4.832   4.791  12.661  0.5002 -0.0533  0.1431
15598TIP3    H168285   4.861   4.820  12.575 -1.1896 -2.7560 -1.5093
15598TIP3    H268286   4.869   4.703  12.671 -1.6275 -0.9557  0.8244
15599TIP3   OH268287   5.812   3.040  14.715 -0.6851  0.5038  0.2334
15599TIP3    H168288   5.791   3.130  14.689 -3.4855  0.3637  1.6152
15599TIP3    H268289   5.734   3.010  14.761  0.8900 -2.0311  1.4592
15600TIP3   OH268290   5.629   6.323   6.138 -0.6123  0.4839  0.1492
15600TIP3    H168291   5.616   6.344   6.230  1.1416  0.6746  0.3836
15600TIP3    H268292   5.691   6.389   6.106  0.0261 -0.4995 -0.7404
15601TIP3   OH268293   0.417   2.610   3.063  0.3078  0.0959 -0.0619
15601TIP3    H168294   0.365   2.616   3.143  1.8673  3.3886  0.8818
15601TIP3    H268295   0.352   2.619   2.992 -1.0723 -2.7287  0.6720
15602TIP3   OH268296   5.272   0.276   5.414 -0.1013 -0.2992  0.5705
15602TIP3    H168297   5.271   0.336   5.340 -2.0606 -2.3385 -1.2082
15602TIP3    H268298   5.231   0.325   5.486 -1.1154  0.7159 -0.6534
15603TIP3   OH268299   4.669   4.557   2.711  0.0258  0.0310  0.5771
15603TIP3    H168300   4.628   4.638   2.741 -1.4522 -0.2716 -0.5058
15603TIP3    H268301   4.715   4.582   2.631 -0.0709 -0.0996  0.4793
15604TIP3   OH268302   2.353   6.117   6.411 -0.0310 -0.2654  0.0195
15604TIP3    H168303   2.271   6.074   6.436 -0.6393  0.3900 -0.7742
15604TIP3    H268304   2.349   6.122   6.315  0.3355  0.9476  0.0522
15605TIP3   OH268305   1.108   5.974  10.552 -0.3320  0.0759  0.0835
15605TIP3    H168306   1.017   5.947  10.542 -0.1781 -0.4929  0.1719
15605TIP3    H268307   1.148   5.904  10.603  0.4021 -0.1763 -0.8236
15606TIP3   OH268308   3.079   6.786   5.919  0.7923 -0.3168  0.1089
15606TIP3    H168309   3.133   6.760   5.844  0.0206 -1.0476 -0.2109
15606TIP3    H268310   3.094   6.880   5.929  2.8510 -0.6365  0.6182
15607TIP3   OH268311   5.275   2.160   2.420  0.2170  0.1509  0.2627
15607TIP3    H168312   5.221   2.239   2.410  0.7435  0.4058 -0.6575
15607TIP3    H268313   5.293   2.132   2.330  2.9826  1.0148  0.4661
15608TIP3   OH268314   5.427   0.126   3.570 -0.3327 -0.4759  0.3761
15608TIP3    H168315   5.446   0.191   3.637  0.4201  0.9502 -1.1444
15608TIP3    H268316   5.502   0.066   3.573 -1.0494 -1.3517  1.8097
15609TIP3   OH268317   4.470   0.749  13.249 -0.8064  0.0984  0.3517
15609TIP3    H168318   4.404   0.747  13.319 -0.8846  2.5765  0.4360
15609TIP3    H268319   4.501   0.840  13.248  1.5728 -0.6419 -0.6729
15610TIP3   OH268320   3.166   3.250   5.338 -0.1285 -0.2065  0.1844
15610TIP3    H168321   3.074   3.243   5.363 -0.4991  0.3760 -0.9624
15610TIP3    H268322   3.212   3.191   5.399 -1.6247 -3.2322 -1.3646
15611TIP3   OH268323   4.737   6.735  10.855 -0.0011  0.1481  0.4016
15611TIP3    H168324   4.778   6.717  10.939 -1.0595  1.2608  1.1924
15611TIP3    H268325   4.811   6.743  10.794  0.8115 -0.2232  1.3041
15612TIP3   OH268326   5.844   0.765  15.936  0.4672 -0.0995 -0.1518
15612TIP3    H168327   5.865   0.673  15.922  1.0062  0.1319 -0.9297
15612TIP3    H268328   5.926   0.811  15.919  0.2945  0.5059  0.5665
15613TIP3   OH268329   5.127   5.086  13.459 -0.7896  0.3908 -0.4663
15613TIP3    H168330   5.187   5.122  13.524 -1.4667  0.9264 -0.1241
15613TIP3    H268331   5.151   5.129  13.377  0.4689 -0.7416 -0.7084
15614TIP3   OH268332   4.736   2.424   3.980  0.3128  0.0113 -0.0825
15614TIP3    H168333   4.673   2.409   4.051  0.6822  0.7017  0.3978
15614TIP3    H268334   4.805   2.476   4.020  1.0515 -0.4920 -0.6847
15615TIP3   OH268335   4.932   2.621   2.696 -0.3226 -0.2729  0.4089
15615TIP3    H168336   4.869   2.550   2.690  0.0164 -0.5205 -0.4183
15615TIP3    H268337   4.951   2.629   2.789  0.1133 -1.6938  0.4686
15616TIP3   OH268338   1.218   2.823  14.897 -0.0726 -0.2321  0.1000
15616TIP3    H168339   1.299   2.815  14.846 -0.1745  0.3442 -0.1608
15616TIP3    H268340   1.237   2.890  14.963 -1.0974  1.7795 -1.5326
15617TIP3   OH268341   1.963   4.507  16.740 -0.3127  0.0833 -0.0155
15617TIP3    H168342   1.998   4.418  16.730  2.2815  0.9409  0.7744
15617TIP3    H268343   1.921   4.525  16.656 -0.1472 -1.5854 -0.4953
15618TIP3   OH268344   2.077   5.327   5.115  0.3505  0.1040  0.0832
15618TIP3    H168345   2.155   5.273   5.125  1.2309  1.0986 -1.0174
15618TIP3    H268346   2.110   5.417   5.120 -0.1731  0.6242 -3.3955
15619TIP3   OH268347   3.213   6.337  15.966 -0.2019  0.4984 -0.3598
15619TIP3    H168348   3.244   6.345  15.876 -0.3836  0.6212 -0.4130
15619TIP3    H268349   3.180   6.425  15.988  0.8850  0.7788  0.2202
15620TIP3   OH268350   3.089   6.746  14.933  0.6259  0.1445 -1.1375
15620TIP3    H168351   3.169   6.700  14.907 -0.0434 -1.9372  0.2588
15620TIP3    H268352   3.090   6.827  14.881  1.1122 -2.0470 -4.9318
15621TIP3   OH268353   4.139   4.733   2.936 -0.1939  0.0639 -0.0780
15621TIP3    H168354   4.161   4.722   3.029  1.4210  1.6432 -0.2075
15621TIP3    H268355   4.049   4.767   2.936 -0.0352  0.5111  0.9387
15622TIP3   OH268356   3.689   2.708   3.435  0.4159 -0.4461 -0.1578
15622TIP3    H168357   3.762   2.768   3.442  0.7475 -0.9895  4.6665
15622TIP3    H268358   3.612   2.764   3.428  0.9734  0.3133 -0.2843
15623TIP3   OH268359   5.949   4.315  10.840  0.4333 -0.1764  0.4457
15623TIP3    H168360   5.971   4.353  10.755 -0.1949 -1.4963 -0.3348
15623TIP3    H268361   5.963   4.221  10.829 -0.0616 -0.4214  1.6809
15624TIP3   OH268362   0.751   5.964   2.478  0.0319 -0.0774  0.3028
15624TIP3    H168363   0.699   5.883   2.480  0.3144 -0.2586  0.2835
15624TIP3    H268364   0.837   5.938   2.509 -0.0794  0.3666  1.0299
15625TIP3   OH268365   0.730   5.859   0.544 -0.2042 -0.2920 -0.3787
15625TIP3    H168366   0.636   5.872   0.532 -0.3639 -2.0711 -1.4561
15625TIP3    H268367   0.769   5.897   0.465  0.2061  2.0479  0.8553
15626TIP3   OH268368   3.293   3.066  14.660  1.0138  0.3668 -0.7161
15626TIP3    H168369   3.331   3.039  14.576  1.4226  0.8426 -0.6902
15626TIP3    H268370   3.324   3.156  14.672 -2.9214  2.1453 -2.3573
15627TIP3   OH268371   4.111   4.716  11.835 -0.6394  0.1591 -0.3851
15627TIP3    H168372   4.071   4.731  11.749 -0.0742 -2.5263 -1.2296
15627TIP3    H268373   4.200   4.750  11.826 -0.9056  0.8358 -0.4992
15628TIP3   OH268374   1.813   4.792  11.427  0.0467  0.3436  0.1244
15628TIP3    H168375   1.801   4.735  11.503 -2.7136 -0.3576 -0.7437
15628TIP3    H268376   1.843   4.732  11.358 -0.0292  0.5002 -0.0429
15629TIP3   OH268377   4.393   6.573   4.730  0.0919  0.1591  0.0771
15629TIP3    H168378   4.302   6.569   4.702 -0.5496  0.9927  1.8514
15629TIP3    H268379   4.409   6.665   4.749  1.2631  0.0047 -0.0424
15630TIP3   OH268380   6.754   0.929   2.696 -0.4622  0.1543 -0.0007
15630TIP3    H168381   6.818   0.887   2.639  1.3165  1.4110  0.9978
15630TIP3    H268382   6.751   1.020   2.666  0.9029  0.9773  2.1575
15631TIP3   OH268383   5.192   4.410   6.725  0.7309 -0.2703 -0.6554
15631TIP3    H168384   5.133   4.338   6.702 -1.9237  1.0180  1.4072
15631TIP3    H268385   5.171   4.479   6.662 -2.3751  1.2248  1.7049
15632TIP3   OH268386   4.636   4.828  10.635 -0.7900 -0.0512  0.7085
15632TIP3    H168387   4.631   4.801  10.726 -3.3259 -1.1231  0.3375
15632TIP3    H268388   4.694   4.764  10.594 -0.9192 -0.5301  1.2611
15633TIP3   OH268389   1.754   5.417   1.498  0.4169  0.2373  0.0371
15633TIP3    H168390   1.808   5.351   1.454  2.0841  0.9096  0.9748
15633TIP3    H268391   1.772   5.404   1.591  0.0634  1.4175  0.2829
15634TIP3   OH268392   1.069   0.863   2.297  0.0139  0.3590 -0.2422
15634TIP3    H168393   1.041   0.944   2.339  1.1582  0.1081  1.0720
15634TIP3    H268394   1.082   0.886   2.205 -0.5096  1.4365 -0.0570
15635TIP3   OH268395   4.036   6.478  11.970 -0.4592  0.5992 -0.3707
15635TIP3    H168396   4.126   6.446  11.962  0.0786  2.2770 -1.7869
15635TIP3    H268397   3.987   6.430  11.904 -0.1453  1.1024 -0.9782
15636TIP3   OH268398   2.304   4.653   5.717 -0.3727  0.0395 -0.4030
15636TIP3    H168399   2.376   4.710   5.742 -0.6459 -0.8541  2.8840
15636TIP3    H268400   2.346   4.578   5.674  0.5667  0.0844  0.4068
15637TIP3   OH268401   5.313   5.754  12.603 -1.0301 -0.1910 -0.2816
15637TIP3    H168402   5.299   5.724  12.693  1.2515 -0.4022  0.0537
15637TIP3    H268403   5.241   5.814  12.587 -1.4132 -0.0273  1.7442
15638TIP3   OH268404   0.822   5.655   0.696 -0.1616 -0.6732 -0.0415
15638TIP3    H168405   0.782   5.732   0.656  0.3618 -0.7367 -0.7054
15638TIP3    H268406   0.874   5.691   0.769  0.2586 -0.3676 -0.4844
15639TIP3   OH268407   1.850   4.985   6.154  0.0341  0.0989  0.1274
15639TIP3    H168408   1.863   4.901   6.197  0.9877  0.4718  0.5927
15639TIP3    H268409   1.755   4.997   6.152 -0.0847 -0.7511  0.5109
15640TIP3   OH268410   0.551   0.188  16.017 -0.1050 -0.4045  0.7037
15640TIP3    H168411   0.574   0.096  16.029  1.2895 -0.1568  0.1883
15640TIP3    H268412   0.626   0.236  16.052 -0.2146  0.4866 -0.2271
15641TIP3   OH268413   6.469   0.349   4.414 -0.1994  0.1879  0.1094
15641TIP3    H168414   6.556   0.365   4.378 -0.6401  1.1306 -0.5721
15641TIP3    H268415   6.417   0.425   4.387 -0.8891  0.3093  1.6382
15642TIP3   OH268416   5.233   5.698  13.227  0.4069 -0.1303 -0.1030
15642TIP3    H168417   5.307   5.644  13.253  1.6657  1.6951  0.2668
15642TIP3    H268418   5.268   5.759  13.162 -1.2153 -0.4043 -1.3117
15643TIP3   OH268419   1.600   0.758   4.265 -0.2576 -0.2525 -0.4116
15643TIP3    H168420   1.610   0.834   4.207 -1.6582 -0.4368 -0.9458
15643TIP3    H268421   1.594   0.795   4.353  1.1899  0.0830 -0.4412
15644TIP3   OH268422   2.683   1.686  10.798 -0.1071  0.2716  0.0800
15644TIP3    H168423   2.606   1.679  10.854  0.6364  1.0244  1.2461
15644TIP3    H268424   2.664   1.759  10.739 -0.6710 -0.1746 -0.2993
15645TIP3   OH268425   2.638   5.458   1.688  0.0127  0.2462 -0.1804
15645TIP3    H168426   2.723   5.414   1.677 -0.1920  0.2100 -1.8755
15645TIP3    H268427   2.625   5.461   1.782  1.1833 -1.1274  0.0617
15646TIP3   OH268428   6.525   1.726  14.270  0.1409 -0.5062  0.0078
15646TIP3    H168429   6.573   1.675  14.335 -0.8785  0.4278  1.5571
15646TIP3    H268430   6.593   1.759  14.210  0.9394 -2.5741 -0.3082
15647TIP3   OH268431   0.824   0.595  13.873  0.1335 -0.0459 -0.0954
15647TIP3    H168432   0.847   0.529  13.938 -0.4166  0.9658  1.1686
15647TIP3    H268433   0.905   0.646  13.860  0.4047 -0.6068 -0.6620
15648TIP3   OH268434   0.595   3.948   6.468 -0.1074 -0.4339 -0.6884
15648TIP3    H168435   0.543   3.869   6.480 -0.5391  0.1809  2.3952
15648TIP3    H268436   0.547   4.000   6.404 -1.2644 -1.4798 -0.6940
15649TIP3   OH268437   4.703   3.343  17.124 -0.3038  0.5112  0.6181
15649TIP3    H168438   4.726   3.299  17.041 -1.6869 -1.3642  1.1476
15649TIP3    H268439   4.675   3.430  17.098 -3.6103 -0.9557 -1.3739
15650TIP3   OH268440   4.890   3.516  13.575 -0.1404  0.4523  0.4038
15650TIP3    H168441   4.844   3.515  13.491  0.0724  2.0112  0.2494
15650TIP3    H268442   4.962   3.577  13.562  0.4324  0.0246  1.4590
15651TIP3   OH268443   5.779   5.228  15.880  0.4972  0.8037 -0.2076
15651TIP3    H168444   5.723   5.252  15.955 -1.2664 -0.3640 -1.0777
15651TIP3    H268445   5.840   5.164  15.915 -0.7434 -0.2336  0.1408
15652TIP3   OH268446   4.100   6.086  14.091  0.2889  0.1010 -0.1771
15652TIP3    H168447   4.083   6.056  14.181 -0.0978  0.6437 -0.0608
15652TIP3    H268448   4.075   6.179  14.092  1.8515  0.5531 -0.4132
15653TIP3   OH268449   3.373   1.462  14.283 -0.4595 -0.0264  0.1348
15653TIP3    H168450   3.427   1.465  14.362  0.9511  0.3230 -0.8201
15653TIP3    H268451   3.435   1.462  14.211 -1.7445  2.1930 -1.0642
15654TIP3   OH268452   6.321   2.873   3.961  1.0246 -0.1582  0.3188
15654TIP3    H168453   6.270   2.810   4.012 -0.9674  1.8240  0.9010
15654TIP3    H268454   6.398   2.892   4.014  0.8122 -0.8454  0.8801
15655TIP3   OH268455   4.214   4.150   3.300 -0.0230  0.2439  0.5205
15655TIP3    H168456   4.274   4.109   3.237  1.6437  2.8661  0.2334
15655TIP3    H268457   4.130   4.152   3.256  0.4324 -0.5740 -0.4337
15656TIP3   OH268458   4.485   3.516  11.087 -0.2151 -0.3517 -0.3940
15656TIP3    H168459   4.544   3.588  11.067  0.0398 -0.7741 -1.2327
15656TIP3    H268460   4.413   3.556  11.136  0.4707  0.2656  0.1290
15657TIP3   OH268461   5.249   4.635   4.152  0.4033 -0.1370  0.1621
15657TIP3    H168462   5.175   4.683   4.114 -0.0570  0.3405  1.6200
15657TIP3    H268463   5.263   4.675   4.237  1.2206 -1.3781  0.6386
15658TIP3   OH268464   5.851   2.853   2.583  0.3972  0.3735 -0.3978
15658TIP3    H168465   5.826   2.902   2.505 -0.1508 -0.7175 -0.9286
15658TIP3    H268466   5.814   2.766   2.570  1.0401 -0.0869  0.6828
15659TIP3   OH268467   0.955   2.644  14.047 -0.9362  0.4508  0.6401
15659TIP3    H168468   0.859   2.646  14.048 -0.9235  1.0080  1.0934
15659TIP3    H268469   0.981   2.733  14.023 -0.5425 -0.4755 -3.0204
15660TIP3   OH268470   6.251   2.777  10.311 -0.1206 -0.7609  0.0857
15660TIP3    H168471   6.252   2.871  10.327  0.8347 -0.0814 -3.1580
15660TIP3    H268472   6.337   2.747  10.343 -0.4764 -0.6025  1.2397
15661TIP3   OH268473   6.376   4.175  15.679  0.0569 -0.0745 -0.2720
15661TIP3    H168474   6.305   4.153  15.619 -0.3425 -0.1848  0.2353
15661TIP3    H268475   6.417   4.253  15.640 -1.2224  0.8422  0.1466
15662TIP3   OH268476   3.756   3.148  13.411  0.6100  0.3040 -0.0064
15662TIP3    H168477   3.764   3.091  13.488  0.3266  0.9330  0.4942
15662TIP3    H268478   3.802   3.100  13.341 -0.9635 -1.3090 -0.0178
15663TIP3   OH268479   5.489   0.535   2.901 -0.4442 -0.2795 -0.6483
15663TIP3    H168480   5.469   0.550   2.994  0.6061  2.6200 -0.7728
15663TIP3    H268481   5.547   0.459   2.901 -1.9745 -1.5345  0.8227
15664TIP3   OH268482   6.660   1.197  14.188 -0.0496  0.0174  0.0632
15664TIP3    H168483   6.615   1.255  14.126  1.2931 -0.9933 -1.9602
15664TIP3    H268484   6.740   1.244  14.211 -0.5839  0.4266  1.1631
15665TIP3   OH268485   4.109   4.515  16.725 -0.0399  0.2417  0.1338
15665TIP3    H168486   4.013   4.514  16.735  0.1327  0.1983  2.4280
15665TIP3    H268487   4.124   4.484  16.636 -2.1534  0.1442 -0.2525
15666TIP3   OH268488   0.316   0.061  12.020  0.4112 -0.2968  0.6348
15666TIP3    H168489   0.313  -0.027  12.058 -2.6875 -0.1388  1.0329
15666TIP3    H268490   0.347   0.048  11.931  0.6019 -1.7234  0.8837
15667TIP3   OH268491   0.203   0.921   4.084  0.1842 -0.9296  0.1325
15667TIP3    H168492   0.216   0.943   4.176  0.6973 -1.0653  0.0912
15667TIP3    H268493   0.177   0.829   4.084  2.3163 -1.5803  0.0028
15668TIP3   OH268494   4.264   0.432   2.792 -0.4986  0.1977 -0.3202
15668TIP3    H168495   4.356   0.459   2.800  0.1457 -1.4472 -1.6098
15668TIP3    H268496   4.243   0.392   2.876  0.5999 -1.0969 -0.6180
15669TIP3   OH268497   5.713   0.147  16.201 -0.1914  0.0910 -0.0342
15669TIP3    H168498   5.683   0.213  16.264  2.7066  2.0908 -0.5141
15669TIP3    H268499   5.683   0.180  16.116 -0.5626 -0.3719 -0.0830
15670TIP3   OH268500   3.023   1.183  11.480 -0.0070  0.0458  0.2575
15670TIP3    H168501   3.061   1.142  11.402  0.2280  0.6535  0.0519
15670TIP3    H268502   3.024   1.276  11.461  0.5007  0.2386  1.1875
15671TIP3   OH268503   3.725   5.563   3.207  0.1078  0.3622  0.8135
15671TIP3    H168504   3.766   5.631   3.154 -1.1329  0.1838 -0.4471
15671TIP3    H268505   3.787   5.490   3.205 -0.0779  0.2062 -0.7982
15672TIP3   OH268506   2.866   1.617   2.342  0.1741 -0.6531  0.1611
15672TIP3    H168507   2.811   1.583   2.414 -1.0404  0.7219 -0.0711
15672TIP3    H268508   2.904   1.538   2.303 -1.1730 -1.6276  0.7089
15673TIP3   OH268509   6.498   6.392   3.943 -0.1886  0.5602  0.3848
15673TIP3    H168510   6.575   6.433   3.981 -0.2141  1.9260 -0.9372
15673TIP3    H268511   6.450   6.464   3.901 -1.7987 -0.3672  0.5404
15674TIP3   OH268512   2.510   4.045   3.878  0.4494  0.1241  0.2269
15674TIP3    H168513   2.514   4.063   3.972 -3.6632  1.2468  0.4132
15674TIP3    H268514   2.485   3.953   3.872 -2.7505  0.8141  0.6162
15675TIP3   OH268515   3.296   3.123   1.742  0.1472  0.2072  0.0272
15675TIP3    H168516   3.297   3.059   1.670 -1.2999  0.2943 -0.1052
15675TIP3    H268517   3.306   3.208   1.699  0.7987  0.1673  0.0861
15676TIP3   OH268518   5.940   5.010  15.959  0.0081  0.2089 -0.0680
15676TIP3    H168519   5.932   4.957  16.039 -0.3094  0.8327  0.3299
15676TIP3    H268520   6.001   4.961  15.903  1.5178  0.5391  1.2108
15677TIP3   OH268521   1.444   3.768   4.543  0.5413 -0.0058 -0.0819
15677TIP3    H168522   1.451   3.778   4.638  1.9062  1.0816 -0.2725
15677TIP3    H268523   1.349   3.762   4.527  0.2738  0.0995  1.3040
15678TIP3   OH268524   4.979   2.831  12.864  0.4536  0.2548 -0.2826
15678TIP3    H168525   4.894   2.790  12.848  0.0728  0.9372 -0.0604
15678TIP3    H268526   5.005   2.867  12.779  0.6704 -0.2358 -0.4223
15679TIP3   OH268527   6.713   6.613  15.251 -0.4690  0.1685 -0.2265
15679TIP3    H168528   6.642   6.553  15.273 -0.6160  0.3320 -0.2433
15679TIP3    H268529   6.780   6.598  15.318 -0.9378  0.7017  0.3731
15680TIP3   OH268530   2.794   0.004   5.916  0.0475 -0.7242 -0.0250
15680TIP3    H168531   2.886  -0.020   5.920  0.0826 -0.7081 -0.5915
15680TIP3    H268532   2.750  -0.056   5.975  0.6125  0.2584  1.4408
15681TIP3   OH268533   4.215   3.783  16.052  0.0721 -0.1546  0.2646
15681TIP3    H168534   4.211   3.818  15.963  1.3567 -1.9896 -0.5757
15681TIP3    H268535   4.302   3.808  16.083  0.8821 -2.1835 -0.2276
15682TIP3   OH268536   3.915   3.765   5.661 -0.2091  0.1337  0.1222
15682TIP3    H168537   3.949   3.849   5.630 -1.2463  0.7870  0.6674
15682TIP3    H268538   3.896   3.715   5.582 -1.4556  1.2121 -0.2913
15683TIP3   OH268539   6.519   6.196  11.968 -0.1792  0.0319  0.3531
15683TIP3    H168540   6.485   6.256  12.034  0.7719 -0.6678  1.5061
15683TIP3    H268541   6.483   6.229  11.885  0.0737  2.0155  0.9865
15684TIP3   OH268542   1.504   6.628   2.016 -0.7323  0.4433  0.4982
15684TIP3    H168543   1.502   6.611   2.110  0.7127  2.0250  0.8743
15684TIP3    H268544   1.593   6.604   1.990 -1.3138 -0.5771 -0.6087
15685TIP3   OH268545   3.289   1.540  15.310  0.3958  0.2469 -0.2177
15685TIP3    H168546   3.206   1.551  15.357 -1.3176 -3.1909 -2.0158
15685TIP3    H268547   3.329   1.463  15.350  0.1429 -1.1783 -2.5197
15686TIP3   OH268548   2.575   4.225  16.530  0.2986 -0.0487 -0.9547
15686TIP3    H168549   2.637   4.200  16.462 -1.1319 -0.8524 -2.0305
15686TIP3    H268550   2.490   4.193  16.498 -0.7276  1.2629  0.3006
15687TIP3   OH268551   3.710   5.876  13.714 -0.0916 -0.1784  0.2381
15687TIP3    H168552   3.621   5.911  13.720  0.8237  2.2860  0.5919
15687TIP3    H268553   3.730   5.876  13.621 -0.1169  0.2617  0.2297
15688TIP3   OH268554   6.731   1.975   2.428  0.6148  0.2106 -0.0145
15688TIP3    H168555   6.764   1.966   2.518  0.1062 -0.9983  0.0766
15688TIP3    H268556   6.704   2.066   2.421 -0.1502  0.1129  1.3563
15689TIP3   OH268557   1.182   6.501   5.678 -0.5313 -0.5770  0.0793
15689TIP3    H168558   1.101   6.452   5.695 -0.6504 -1.8571 -3.3399
15689TIP3    H268559   1.249   6.433   5.669  0.5682  0.3488  0.9970
15690TIP3   OH268560   2.271   1.410  13.620 -0.1816  0.9619  0.0346
15690TIP3    H168561   2.317   1.467  13.559  1.0283  0.1605  0.1565
15690TIP3    H268562   2.340   1.371  13.673 -0.8030 -1.6141 -0.8909
15691TIP3   OH268563   6.740   0.462   2.642  0.0921 -0.2061  0.3117
15691TIP3    H168564   6.667   0.475   2.583  0.7179  0.4147 -0.3498
15691TIP3    H268565   6.798   0.401   2.596  0.9638  0.8923 -0.1017
15692TIP3   OH268566   3.854   6.152  15.693  0.3838 -0.3668  0.1755
15692TIP3    H168567   3.775   6.205  15.709  1.0478  0.1789  1.9257
15692TIP3    H268568   3.903   6.158  15.775  0.9225 -2.9826  0.1150
15693TIP3   OH268569   3.744   5.966  15.480  0.0290  0.1208  0.3093
15693TIP3    H168570   3.798   6.010  15.546 -1.3412 -0.0786  1.6291
15693TIP3    H268571   3.730   6.032  15.412  1.2912  0.3990  0.2950
15694TIP3   OH268572   3.192   1.208  13.297  0.0556  0.0876  0.0782
15694TIP3    H168573   3.172   1.115  13.285 -0.9216  0.4232 -1.1709
15694TIP3    H268574   3.246   1.231  13.221 -1.1907  0.9125 -0.6122
15695TIP3   OH268575   5.680   1.521  12.383  0.7001  0.3294  0.1320
15695TIP3    H168576   5.590   1.529  12.350  1.1624  0.8149 -1.0456
15695TIP3    H268577   5.708   1.434  12.355  0.8228  0.4399 -0.0946
15696TIP3   OH268578   3.594   2.642  10.499 -0.5618  0.0288  0.2672
15696TIP3    H168579   3.525   2.581  10.524  0.0703 -1.0360 -0.4722
15696TIP3    H268580   3.550   2.726  10.488 -1.0322  0.3872  3.9324
15697TIP3   OH268581   1.954   6.704   3.722 -0.2404 -0.2504 -0.8018
15697TIP3    H168582   1.963   6.613   3.750  0.1292  0.7351  2.7675
15697TIP3    H268583   2.036   6.745   3.748 -1.3200  1.5885 -0.1244
15698TIP3   OH268584   3.790   1.237   2.508  0.0701  0.0359 -0.3727
15698TIP3    H168585   3.864   1.295   2.493 -0.1870  0.5808  0.3808
15698TIP3    H268586   3.754   1.265   2.592 -0.6200 -0.6195 -0.4323
15699TIP3   OH268587   4.633   0.721  10.722  0.8252 -0.0292 -0.3875
15699TIP3    H168588   4.636   0.632  10.687  1.6066 -0.6479  1.1263
15699TIP3    H268589   4.707   0.765  10.680  1.0729 -0.4190 -0.3741
15700TIP3   OH268590   1.033   1.352   3.772  0.1304 -0.1663 -0.3121
15700TIP3    H168591   1.042   1.292   3.847 -1.2658 -2.7449 -2.0538
15700TIP3    H268592   0.953   1.401   3.791  0.8640  0.6527  0.7785
15701TIP3   OH268593   0.610   6.344  10.373  0.0369 -0.5371 -0.5012
15701TIP3    H168594   0.604   6.419  10.314  0.5475 -0.0027  0.1071
15701TIP3    H268595   0.521   6.329  10.402  0.2754  1.8040  1.7426
15702TIP3   OH268596   2.782   0.659   2.390 -0.2783 -0.1227  0.6252
15702TIP3    H168597   2.740   0.734   2.348 -0.7320 -0.6488  0.1177
15702TIP3    H268598   2.815   0.606   2.317  1.3680  0.3086  1.0017
15703TIP3   OH268599   1.125   0.869  13.531 -0.2135 -0.1970 -0.4322
15703TIP3    H168600   1.157   0.926  13.602 -0.6664 -1.8903  1.2064
15703TIP3    H268601   1.065   0.924  13.482  3.0319  2.2943 -2.0286
15704TIP3   OH268602   6.405   2.948  16.467 -0.1557  0.4367  0.0683
15704TIP3    H168603   6.382   3.038  16.491  0.0146  0.3474  0.5618
15704TIP3    H268604   6.337   2.895  16.508  1.2513  0.1113  2.0967
15705TIP3   OH268605   6.502   0.489  14.786 -0.0542 -0.5268 -0.4211
15705TIP3    H168606   6.477   0.565  14.838 -0.0724 -2.3009  2.3803
15705TIP3    H268607   6.510   0.522  14.696 -0.7860  2.5600  0.5467
15706TIP3   OH268608   5.274   0.393   1.225  0.4260  0.6714  0.3239
15706TIP3    H168609   5.315   0.475   1.253 -0.0691  0.7904  0.7103
15706TIP3    H268610   5.328   0.324   1.264  0.9737  0.8081 -0.1854
15707TIP3   OH268611   5.390   3.348  14.312  0.5959  1.0311 -0.0028
15707TIP3    H168612   5.300   3.339  14.343  0.2676  2.0123 -0.5972
15707TIP3    H268613   5.442   3.361  14.392  0.6575 -2.2370  0.6023
15708TIP3   OH268614   1.792   2.597  13.720  0.4168 -0.0141 -0.0906
15708TIP3    H168615   1.850   2.606  13.644  0.5479 -0.0864 -0.0009
15708TIP3    H268616   1.847   2.623  13.794 -0.3817  2.3202 -0.2478
15709TIP3   OH268617   3.973   2.963  14.444  0.1060  0.1097 -0.5158
15709TIP3    H168618   3.969   2.885  14.388 -2.8593  1.4175 -2.3462
15709TIP3    H268619   4.012   3.031  14.389 -0.3191  0.7452 -0.0557
15710TIP3   OH268620   1.254   2.023  11.427 -0.4009  0.7957 -0.1638
15710TIP3    H168621   1.292   2.091  11.483 -0.9969  0.7080  0.3522
15710TIP3    H268622   1.285   1.941  11.463 -1.0586  0.7243  0.2501
15711TIP3   OH268623   4.930   5.631  12.501  0.0114  0.5202 -0.5832
15711TIP3    H168624   4.965   5.616  12.589 -1.9022 -0.9819  0.0141
15711TIP3    H268625   4.838   5.654  12.516 -0.9442 -1.8448 -2.1854
15712TIP3   OH268626   6.307   6.006   4.404  0.5916 -0.7524  0.4271
15712TIP3    H168627   6.245   5.958   4.459 -0.8590  1.0065  0.4146
15712TIP3    H268628   6.301   5.965   4.319 -0.9607 -0.3384  0.2991
15713TIP3   OH268629   1.132   0.752   1.725 -0.5060 -0.1876  0.2828
15713TIP3    H168630   1.177   0.744   1.641 -3.7546  2.0199 -1.9442
15713TIP3    H268631   1.184   0.816   1.774  1.4291 -1.4807 -0.0005
15714TIP3   OH268632   5.848   5.688   3.274  1.0693 -0.0588 -0.2122
15714TIP3    H168633   5.863   5.692   3.369  1.0930 -0.7760 -0.1750
15714TIP3    H268634   5.834   5.595   3.257  2.8038 -0.1833 -1.1863
15715TIP3   OH268635   4.366   3.296   3.776 -1.2309 -0.1317 -0.0222
15715TIP3    H168636   4.412   3.317   3.695 -0.3314  0.3828  0.6061
15715TIP3    H268637   4.376   3.201   3.785 -0.0593  0.0048  0.2362
15716TIP3   OH268638   4.283   2.434  11.178  0.2807  0.7072 -0.8671
15716TIP3    H168639   4.257   2.525  11.195 -0.1591  0.5931 -0.9321
15716TIP3    H268640   4.313   2.402  11.263 -0.1450  0.7234 -0.7088
15717TIP3   OH268641   4.223   2.345  10.938  0.2163  0.2174 -0.0904
15717TIP3    H168642   4.236   2.374  11.029 -0.5396  2.3776 -0.6097
15717TIP3    H268643   4.311   2.344  10.901  0.3892  0.7346  0.2884
15718TIP3   OH268644   2.991   2.487  16.165 -0.9039  0.4339  0.3462
15718TIP3    H168645   3.019   2.440  16.244  0.4827 -0.5536 -0.6722
15718TIP3    H268646   3.069   2.492  16.111 -1.7753  1.2527 -0.9030
15719TIP3   OH268647   5.988   1.388   4.280  0.0862 -0.0616  0.1787
15719TIP3    H168648   5.984   1.319   4.214  1.6952 -0.5068  0.5057
15719TIP3    H268649   6.082   1.406   4.291 -0.0397 -0.6483  2.9990
15720TIP3   OH268650   1.341   0.632  16.368 -0.0015 -0.0631  0.1436
15720TIP3    H168651   1.274   0.681  16.320  0.8037 -0.7551 -1.7788
15720TIP3    H268652   1.421   0.682  16.356  0.2322 -0.2848  0.7281
15721TIP3   OH268653   1.993   6.135  13.342  0.5171 -0.3207  0.0328
15721TIP3    H168654   2.057   6.073  13.306 -0.5240 -1.5499  0.2390
15721TIP3    H268655   2.041   6.180  13.412  1.2792 -0.9253 -0.0821
15722TIP3   OH268656   6.617   6.038   2.306 -0.4456  0.3256  0.0241
15722TIP3    H168657   6.684   5.998   2.250 -0.5211  0.1967  0.0240
15722TIP3    H268658   6.656   6.039   2.393 -0.4420  0.2503  0.0239
15723TIP3   OH268659   6.758   1.386  12.989 -0.2828  0.1215 -0.6947
15723TIP3    H168660   6.781   1.479  12.997 -0.2149  0.0640 -0.2105
15723TIP3    H268661   6.815   1.342  13.052  0.2536 -0.3439 -1.4803
15724TIP3   OH268662   0.762   6.223   1.943 -1.0212  0.0702 -0.6349
15724TIP3    H168663   0.669   6.212   1.964 -1.0459 -0.7749 -1.1491
15724TIP3    H268664   0.787   6.141   1.901  0.2662 -0.1942  0.5523
15725TIP3   OH268665   0.646   2.176   0.778  0.0578  0.5137  0.6713
15725TIP3    H168666   0.627   2.269   0.768 -0.0395  0.2988 -1.6580
15725TIP3    H268667   0.740   2.168   0.758 -0.4895 -0.1683 -2.0660
15726TIP3   OH268668   2.628   1.374   0.369  0.2672  0.1841 -0.4623
15726TIP3    H168669   2.639   1.358   0.463  0.3352 -1.8431 -0.7751
15726TIP3    H268670   2.548   1.426   0.363  1.0846  1.6748  0.7878
15727TIP3   OH268671   5.209   2.923   0.319  0.6892  0.3470 -0.0571
15727TIP3    H168672   5.278   2.861   0.345  1.7141  1.2611 -0.5000
15727TIP3    H268673   5.239   2.957   0.235 -0.5727  0.3998 -0.4955
15728TIP3   OH268674   4.957   1.248   1.495 -0.4507  0.0098 -0.5837
15728TIP3    H168675   4.879   1.247   1.549 -0.5127 -1.7989 -0.6345
15728TIP3    H268676   4.925   1.251   1.405 -0.4230  0.4632 -0.5794
15729TIP3   OH268677   3.407   3.152   5.416 -0.5045 -0.2011  0.2637
15729TIP3    H168678   3.493   3.133   5.454  1.7292  1.2065 -3.4781
15729TIP3    H268679   3.411   3.245   5.394 -2.1429 -0.5576 -1.8348
15730TIP3   OH268680   5.784   2.336  14.475 -0.3682 -0.1767 -0.0493
15730TIP3    H168681   5.780   2.372  14.387 -1.1983 -1.5310 -0.6089
15730TIP3    H268682   5.746   2.404  14.531  0.8882  1.0064 -0.6025
15731TIP3   OH268683   0.124   6.794  15.284 -0.2245 -0.1143 -0.2101
15731TIP3    H168684   0.046   6.739  15.283  0.9052 -1.8325  0.7212
15731TIP3    H268685   0.178   6.760  15.213  1.3775 -1.7085  1.6351
15732TIP3   OH268686   2.650   6.618   5.763 -0.8278 -0.2173  0.2224
15732TIP3    H168687   2.734   6.663   5.761  0.0283 -1.7462 -2.8531
15732TIP3    H268688   2.612   6.643   5.848  2.1039  1.5292  1.1574
15733TIP3   OH268689   3.606   2.129   2.629 -0.0897 -0.3779 -0.2800
15733TIP3    H168690   3.572   2.218   2.632  0.0180 -0.2928 -1.1828
15733TIP3    H268691   3.610   2.108   2.536  1.2529 -0.7929 -0.1516
15734TIP3   OH268692   0.805   0.935  12.835 -0.7158  0.0205  0.0490
15734TIP3    H168693   0.838   0.898  12.753 -1.4913 -2.0357  0.5963
15734TIP3    H268694   0.723   0.888  12.852 -0.6906  0.5407  1.8884
15735TIP3   OH268695   2.032   5.200   3.821  0.0899 -0.5919  0.4212
15735TIP3    H168696   1.997   5.112   3.806  2.0985 -1.0696 -2.2450
15735TIP3    H268697   1.976   5.257   3.769 -1.3357 -0.1828  2.3082
15736TIP3   OH268698   6.756   5.022  15.485 -0.3862  0.1338 -0.2105
15736TIP3    H168699   6.791   5.092  15.541 -0.1808 -1.1947  1.4149
15736TIP3    H268700   6.694   4.975  15.541 -0.4275 -1.0640 -1.2090
15737TIP3   OH268701   1.506   4.648   0.682 -0.2212 -0.4681 -0.3382
15737TIP3    H168702   1.466   4.583   0.739 -0.5793 -1.0324 -1.2236
15737TIP3    H268703   1.485   4.620   0.593 -0.2740  0.7852 -0.7453
15738TIP3   OH268704   2.377   3.029   1.204  0.1566 -0.0733 -0.0057
15738TIP3    H168705   2.315   3.100   1.218  0.2193  0.2614 -1.3176
15738TIP3    H268706   2.463   3.072   1.202  0.2646 -0.2871 -0.0178
15739TIP3   OH268707   1.509   3.338  11.647 -0.4401 -0.1443  0.7206
15739TIP3    H168708   1.557   3.402  11.596 -0.9699 -0.8310 -0.7060
15739TIP3    H268709   1.469   3.388  11.718 -0.0648  0.9286  0.1956
15740TIP3   OH268710   6.623   0.999  14.857  0.3801 -0.0090  0.1001
15740TIP3    H168711   6.581   0.948  14.788 -1.8523 -1.8858  2.6626
15740TIP3    H268712   6.715   0.971  14.855  0.0030 -1.2478 -1.0263
15741TIP3   OH268713   0.374   2.001   5.827  0.4039 -0.3536  0.0140
15741TIP3    H168714   0.395   1.911   5.799 -0.3122 -0.5385  0.0311
15741TIP3    H268715   0.360   2.048   5.744 -0.0417 -0.4704  0.0216
15742TIP3   OH268716   4.024   1.508   3.242  0.2904  0.1325  0.0005
15742TIP3    H168717   4.020   1.603   3.228  0.2559  0.3223  1.1722
15742TIP3    H268718   4.103   1.495   3.294  1.3085 -0.7175 -1.6563
15743TIP3   OH268719   4.294   4.311   1.819  0.1957  0.4804 -0.0899
15743TIP3    H168720   4.324   4.390   1.775  1.0405 -0.7100 -1.7648
15743TIP3    H268721   4.273   4.250   1.749  1.2073 -1.3702  1.1039
15744TIP3   OH268722   6.052   6.377  16.268  0.1608  0.0950 -0.0813
15744TIP3    H168723   5.966   6.345  16.240 -0.8879  1.9046  0.9413
15744TIP3    H268724   6.106   6.297  16.275 -1.4764 -1.1010 -0.4818
15745TIP3   OH268725   2.900   4.544   1.502  0.1528  0.5435  0.8013
15745TIP3    H168726   2.808   4.535   1.523  0.0273  0.6457  0.3097
15745TIP3    H268727   2.904   4.539   1.407  0.6963  0.1736  0.8349
15746TIP3   OH268728   5.643   6.675  11.948  0.0780 -0.9302 -0.0280
15746TIP3    H168729   5.636   6.702  12.039  0.4881 -1.8015  0.2796
15746TIP3    H268730   5.554   6.680  11.914 -0.1582 -1.0571  0.5637
15747TIP3   OH268731   2.584   1.109   5.765 -0.8324 -0.3057 -0.4249
15747TIP3    H168732   2.678   1.097   5.780 -0.2733  2.0018 -1.6520
15747TIP3    H268733   2.548   1.124   5.853  0.5252  1.9030 -0.1534
15748TIP3   OH268734   0.670   2.543   3.072 -0.6961  0.0885 -0.0610
15748TIP3    H168735   0.709   2.629   3.090 -0.3160  0.3917 -2.1076
15748TIP3    H268736   0.583   2.563   3.039  0.3953 -0.0271 -3.3868
15749TIP3   OH268737   3.829   5.522   4.412  0.6323  0.1972 -0.1599
15749TIP3    H168738   3.875   5.570   4.481 -0.7707  2.0088 -0.4390
15749TIP3    H268739   3.899   5.472   4.368  1.6936 -0.2957  1.9350
15750TIP3   OH268740   2.135   4.184  16.806 -0.0936 -0.4012 -0.5773
15750TIP3    H168741   2.104   4.187  16.716  0.3169 -0.3535 -0.7171
15750TIP3    H268742   2.078   4.245  16.853  1.8427  2.2623 -1.4595
15751TIP3   OH268743   4.461   2.936  12.016 -0.2473  0.0255 -0.7174
15751TIP3    H168744   4.448   2.910  12.107 -1.3576 -0.2356 -0.9319
15751TIP3    H268745   4.547   2.900  11.993  0.0568  0.1234  0.2292
15752TIP3   OH268746   5.955   2.345  10.707  0.4274 -0.3823  0.2287
15752TIP3    H168747   6.048   2.355  10.727  0.4694 -1.1965  0.4772
15752TIP3    H268748   5.943   2.390  10.624  0.9215  0.2498  0.4954
15753TIP3   OH268749   3.505   0.986   5.356  0.5921  0.6444 -0.3999
15753TIP3    H168750   3.536   0.896   5.366 -1.2300 -0.1759 -1.5470
15753TIP3    H268751   3.501   1.020   5.445 -0.0011 -0.9102  0.2158
15754TIP3   OH268752   4.472   3.699   4.569 -0.1893 -0.1788 -0.3922
15754TIP3    H168753   4.479   3.715   4.664  0.6407  1.3066 -0.6614
15754TIP3    H268754   4.422   3.618   4.562 -1.5014  0.4059  1.2968
15755TIP3   OH268755   3.932   3.002  13.265  0.0054  0.4021  0.2771
15755TIP3    H168756   3.909   2.983  13.174  0.9231  1.2551 -0.1651
15755TIP3    H268757   3.997   3.073  13.259  1.3414 -0.6362  1.5005
15756TIP3   OH268758   4.307   4.152   1.252  0.4682 -0.0378 -0.4434
15756TIP3    H168759   4.235   4.090   1.246  0.2549  0.1611 -0.0518
15756TIP3    H268760   4.386   4.098   1.247  0.2870 -0.3416 -0.1433
15757TIP3   OH268761   1.702   6.783   5.833 -0.7557 -0.3331 -0.1151
15757TIP3    H168762   1.626   6.816   5.785 -2.0973 -1.1362  1.3894
15757TIP3    H268763   1.702   6.832   5.915  0.1838 -0.5666  0.0389
15758TIP3   OH268764   4.169   4.556   3.339 -0.0034  0.1811 -0.0245
15758TIP3    H168765   4.242   4.599   3.384  0.3666 -1.7211  1.3134
15758TIP3    H268766   4.105   4.540   3.408 -0.2861 -1.0366 -0.5491
15759TIP3   OH268767   5.678   3.017  12.647  0.1856 -0.3806  0.2292
15759TIP3    H168768   5.629   2.944  12.684 -0.0795 -1.4974 -2.1439
15759TIP3    H268769   5.628   3.095  12.671 -1.3837 -1.2780 -0.0239
15760TIP3   OH268770   3.805   5.594   1.784  0.3325 -0.7924 -0.0454
15760TIP3    H168771   3.831   5.635   1.866  0.3243  1.5637 -1.1544
15760TIP3    H268772   3.886   5.559   1.746  1.2837  2.4395 -1.2878
15761TIP3   OH268773   5.973   3.050  16.526 -0.4092 -0.6010  0.8397
15761TIP3    H168774   5.961   3.137  16.487  1.3197 -0.6712  0.0887
15761TIP3    H268775   5.979   2.991  16.451 -0.7530 -1.2708  1.3325
15762TIP3   OH268776   0.640   6.161  15.142  0.5026 -0.2710 -0.3129
15762TIP3    H168777   0.545   6.159  15.133  0.3673 -0.3448  1.0052
15762TIP3    H268778   0.672   6.161  15.052 -0.7244 -1.1727 -0.7783
15763TIP3   OH268779   0.552   1.301   4.206  0.5145  0.1827  0.1107
15763TIP3    H168780   0.642   1.334   4.197 -0.5266  3.3212  0.0457
15763TIP3    H268781   0.544   1.281   4.300  0.9599  1.0516  0.3523
15764TIP3   OH268782   6.778   5.660  11.693  0.0370 -0.0602  0.2682
15764TIP3    H168783   6.735   5.743  11.671  0.5217  0.3546  0.8609
15764TIP3    H268784   6.865   5.686  11.724 -0.3768 -0.6609  1.9917
15765TIP3   OH268785   0.567   3.244  11.850  0.1323 -0.2026 -0.2599
15765TIP3    H168786   0.505   3.293  11.904  0.2256  0.5619 -0.8266
15765TIP3    H268787   0.650   3.248  11.898  0.0708 -0.0501 -0.1681
15766TIP3   OH268788   1.513   1.131   2.377  0.4358  0.2978 -0.3946
15766TIP3    H168789   1.418   1.143   2.368  0.3770 -1.0591 -2.4096
15766TIP3    H268790   1.549   1.220   2.375 -0.7764  0.8433  0.6465
15767TIP3   OH268791   3.467   3.547   5.460 -0.3460 -0.3422 -0.3395
15767TIP3    H168792   3.532   3.611   5.430  0.6211 -1.0827  0.1233
15767TIP3    H268793   3.414   3.529   5.383 -0.8405  1.2266 -0.4123
15768TIP3   OH268794   4.008   5.950  12.967 -0.1813  0.5041  0.0389
15768TIP3    H168795   4.031   5.868  13.010 -0.5460  1.2725  1.7817
15768TIP3    H268796   4.039   5.939  12.877  0.4179 -1.2545  0.4179
15769TIP3   OH268797   2.521   3.974  16.360 -0.3094  0.1733  0.0231
15769TIP3    H168798   2.603   3.931  16.337 -0.0692  0.9650 -0.6655
15769TIP3    H268799   2.461   3.903  16.382  0.2937 -0.4669 -0.3708
15770TIP3   OH268800   0.045   4.161   3.632 -0.2913  0.3025 -0.1443
15770TIP3    H168801   0.010   4.144   3.719  1.5407 -0.8272  0.4106
15770TIP3    H268802   0.104   4.088   3.614  0.0129  0.9315 -1.9985
15771TIP3   OH268803   1.428   5.446   4.544 -0.6257  0.8006 -0.1471
15771TIP3    H168804   1.509   5.446   4.493  1.1419  0.3104  2.4321
15771TIP3    H268805   1.402   5.354   4.548  0.9605  0.3523  2.1519
15772TIP3   OH268806   1.378   1.853  12.449 -0.0081 -0.5285  0.5220
15772TIP3    H168807   1.388   1.759  12.433  1.3161 -0.3802  0.4112
15772TIP3    H268808   1.411   1.866  12.538  1.6636  0.1063 -0.1521
15773TIP3   OH268809   1.227   5.642   5.341 -0.3355 -0.5119 -0.1860
15773TIP3    H168810   1.141   5.628   5.303 -1.6156 -2.4127  3.0186
15773TIP3    H268811   1.212   5.708   5.409  1.2993  0.8597 -1.0672
15774TIP3   OH268812   3.196   4.209   6.242  0.5329 -0.0700 -0.5503
15774TIP3    H168813   3.277   4.160   6.259  0.6388  0.9185  2.2226
15774TIP3    H268814   3.190   4.272   6.314 -2.4921  0.2101 -0.9239
15775TIP3   OH268815   0.419   1.394  14.286 -0.2962  0.2562  0.3442
15775TIP3    H168816   0.507   1.433  14.288 -0.3347  0.3416  0.3741
15775TIP3    H268817   0.367   1.451  14.342 -0.4996  0.5188 -0.1021
15776TIP3   OH268818   4.520   1.391   0.505  0.1082 -0.1171 -0.1305
15776TIP3    H168819   4.493   1.482   0.490  1.0359 -0.0803 -1.8103
15776TIP3    H268820   4.605   1.384   0.462 -0.3594 -2.0280 -0.8233
15777TIP3   OH268821   3.006   3.359  15.735  0.0815 -0.7147  0.6030
15777TIP3    H168822   3.062   3.347  15.659 -0.1814 -0.5249  0.3778
15777TIP3    H268823   3.011   3.276  15.783  2.2815  0.0222  1.7576
15778TIP3   OH268824   0.132   3.950  11.559 -0.0565  0.5323 -0.3303
15778TIP3    H168825   0.209   4.007  11.563  1.2343 -1.2200  1.5920
15778TIP3    H268826   0.111   3.932  11.651 -1.6160 -0.5294 -0.8604
15779TIP3   OH268827   6.237   4.175  17.012  0.5211  0.3731  0.6003
15779TIP3    H168828   6.324   4.154  17.046  0.2174  0.6110  1.5489
15779TIP3    H268829   6.178   4.116  17.059  0.1233  0.4850  0.2447
15780TIP3   OH268830   3.663   1.464   1.745  0.3834  0.5995  0.3307
15780TIP3    H168831   3.670   1.376   1.707 -1.4611  1.0926 -1.3451
15780TIP3    H268832   3.743   1.509   1.718 -0.1512  0.4245 -1.7584
15781TIP3   OH268833   3.506   3.967  13.510 -0.1439 -0.3456 -0.1097
15781TIP3    H168834   3.568   4.039  13.501  0.6379 -1.2602 -3.5110
15781TIP3    H268835   3.543   3.912  13.579 -0.3005  1.9501  1.9331
15782TIP3   OH268836   6.074   4.206  13.831  0.0046  0.1101 -0.5241
15782TIP3    H168837   6.010   4.176  13.895 -1.0083  2.3020 -0.3905
15782TIP3    H268838   6.089   4.298  13.854  1.8389  0.1468 -1.6813
15783TIP3   OH268839   2.984   4.634   5.825  0.6502  0.1700  0.2004
15783TIP3    H168840   2.970   4.695   5.753  1.0171 -0.7626 -0.7033
15783TIP3    H268841   3.035   4.683   5.889 -1.5485  1.7192  0.8742
15784TIP3   OH268842   5.853   4.787   5.383 -0.0994  0.8418  0.2602
15784TIP3    H168843   5.829   4.696   5.361 -0.3126  0.8194  0.5807
15784TIP3    H268844   5.946   4.782   5.405  0.7489  1.2338 -2.7828
15785TIP3   OH268845   4.043   5.950  14.625 -0.2992  0.5281 -0.2661
15785TIP3    H168846   3.951   5.926  14.619 -0.3252  0.3463  0.6571
15785TIP3    H268847   4.061   5.952  14.719  0.6187  0.6447 -0.4324
15786TIP3   OH268848   1.920   6.088  12.145 -0.4576 -0.0983  0.7827
15786TIP3    H168849   2.007   6.100  12.105 -0.4165 -2.7318 -0.1253
15786TIP3    H268850   1.912   6.161  12.206  0.2471  3.2485 -2.6675
15787TIP3   OH268851   1.823   1.222   0.450 -0.0936  0.2368  0.2089
15787TIP3    H168852   1.828   1.144   0.505 -0.1754  0.3440  0.3685
15787TIP3    H268853   1.877   1.287   0.495 -0.6558  0.5181  0.4858
15788TIP3   OH268854   3.053   6.020   0.534  0.4989 -0.6605  0.3627
15788TIP3    H168855   3.022   6.052   0.450 -0.0388 -1.2636  0.3224
15788TIP3    H268856   3.143   5.992   0.518  1.6502  2.3610  0.7891
15789TIP3   OH268857   2.484   2.552   3.948  0.3012 -0.0043 -0.1156
15789TIP3    H168858   2.554   2.571   3.886  0.4586  0.4940  0.2071
15789TIP3    H268859   2.429   2.488   3.904 -0.2518  1.2009 -1.2669
15790TIP3   OH268860   0.236   1.289  12.632 -0.1474 -0.0159  0.0115
15790TIP3    H168861   0.323   1.254  12.614  0.6271  1.5446  0.4543
15790TIP3    H268862   0.245   1.332  12.717 -1.1201  0.8408 -0.2899
15791TIP3   OH268863   2.031   1.343   1.793  0.5451 -0.7940 -0.4721
15791TIP3    H168864   2.025   1.319   1.700  1.2321 -1.4609 -0.3547
15791TIP3    H268865   1.966   1.287   1.836 -0.2957  0.0366 -0.6329
15792TIP3   OH268866   4.729   0.769  16.903  0.1650  0.2131  0.3009
15792TIP3    H168867   4.797   0.798  16.842  0.2185 -1.2610 -0.3938
15792TIP3    H268868   4.752   0.678  16.923 -2.2854 -0.7878 -1.0138
15793TIP3   OH268869   6.749   5.087   4.099 -0.0319  1.2434 -0.2214
15793TIP3    H168870   6.818   5.150   4.118  3.2056 -1.5898 -1.5310
15793TIP3    H268871   6.791   5.002   4.108 -3.1603 -0.6869 -1.9992
15794TIP3   OH268872   0.537   3.766  16.241 -0.6758 -0.6922  0.5173
15794TIP3    H168873   0.529   3.703  16.169  2.2964 -0.7014  0.0537
15794TIP3    H268874   0.544   3.712  16.320 -1.1939 -0.7966  0.4937
15795TIP3   OH268875   1.496   5.766   2.056  0.8913 -0.6543  0.2103
15795TIP3    H168876   1.483   5.734   2.145 -0.4122 -2.4574 -0.5633
15795TIP3    H268877   1.510   5.687   2.004  0.5303  0.2709 -1.3593
15796TIP3   OH268878   6.248   2.591   4.335 -0.2901  0.0720  0.3900
15796TIP3    H168879   6.230   2.499   4.353 -0.5345  0.1383  0.4815
15796TIP3    H268880   6.189   2.639   4.393 -0.7628  0.2891 -0.2682
15797TIP3   OH268881   0.697   1.367  14.906 -0.1882  0.1082  0.4485
15797TIP3    H168882   0.693   1.282  14.949 -1.6587  0.7039  1.5557
15797TIP3    H268883   0.605   1.392  14.893  0.2183  1.3728 -0.1869
15798TIP3   OH268884   1.148   5.368   2.566  0.4119 -0.1093 -0.3481
15798TIP3    H168885   1.147   5.426   2.643  0.3434  0.9577 -1.1291
15798TIP3    H268886   1.067   5.388   2.520 -1.0718 -2.9122  0.8002
15799TIP3   OH268887   5.765   2.427   3.084 -0.1628 -0.4780  0.1026
15799TIP3    H168888   5.787   2.356   3.145 -2.6235 -0.3086  1.2976
15799TIP3    H268889   5.738   2.382   3.004  0.1654 -0.8068  0.1716
15800TIP3   OH268890   1.002   2.483   4.335 -0.0418  0.0117  0.3142
15800TIP3    H168891   0.929   2.543   4.350  1.0757  1.9488 -1.5127
15800TIP3    H268892   1.029   2.500   4.245  1.0708 -2.4799  0.0960
15801TIP3   OH268893   5.264   5.075   3.132  0.0762  0.0583 -0.4039
15801TIP3    H168894   5.242   5.076   3.039  1.7985  0.4799 -0.8494
15801TIP3    H268895   5.347   5.027   3.136  0.0811  0.1475  0.8975
15802TIP3   OH268896   4.425   0.819   3.615 -0.6360  0.6094 -0.0354
15802TIP3    H168897   4.462   0.869   3.543 -0.4997  0.0328 -0.3687
15802TIP3    H268898   4.489   0.827   3.686  0.6656 -1.2270 -0.9366
15803TIP3   OH268899   0.140   6.448   5.504 -0.0704 -0.2144 -0.3438
15803TIP3    H168900   0.073   6.423   5.440  0.4349  1.2659 -1.4986
15803TIP3    H268901   0.091   6.466   5.584 -0.7929 -1.3470 -0.5070
15804TIP3   OH268902   0.934   3.338  13.759  0.1933  0.0894 -0.0255
15804TIP3    H168903   0.855   3.384  13.732  0.1386  0.2831  0.4621
15804TIP3    H268904   0.948   3.273  13.690 -0.1976  0.2779 -0.2879
15805TIP3   OH268905   2.915   0.840   1.239 -0.4033  0.0880  0.5538
15805TIP3    H168906   2.873   0.852   1.325  0.1086  1.1050  0.6816
15805TIP3    H268907   2.948   0.750   1.241 -1.2346 -0.2167  1.0479
15806TIP3   OH268908   5.354   5.280  16.903  0.2201 -0.3028  0.3852
15806TIP3    H168909   5.435   5.230  16.906 -0.2632 -1.1947 -0.5294
15806TIP3    H268910   5.307   5.244  16.828 -0.2286  1.4357 -0.2196
15807TIP3   OH268911   3.846   2.624  12.280  0.3914 -0.3364 -0.5408
15807TIP3    H168912   3.771   2.574  12.311 -0.0831  0.9605  0.4623
15807TIP3    H268913   3.821   2.654  12.192 -0.1739 -0.0872 -0.2973
15808TIP3   OH268914   5.067   1.595   4.829 -0.0083  0.2206 -0.3339
15808TIP3    H168915   5.002   1.664   4.843 -2.9857 -2.3742 -0.1980
15808TIP3    H268916   5.021   1.514   4.852  2.7073 -1.9925 -2.0484
15809TIP3   OH268917   6.146   4.594   5.090  0.4416 -0.2520  0.1191
15809TIP3    H168918   6.061   4.552   5.103  0.0957  0.1135 -0.9138
15809TIP3    H268919   6.194   4.533   5.034  1.0914 -0.7246  1.1383
15810TIP3   OH268920   6.012   1.789  11.142 -0.1399 -0.7904  0.3102
15810TIP3    H168921   5.971   1.742  11.214  0.2415 -0.6966  0.5895
15810TIP3    H268922   6.073   1.726  11.104  0.2520 -0.5745  0.5825
15811TIP3   OH268923   4.328   3.559  15.024 -0.3503  0.6360 -0.2430
15811TIP3    H168924   4.268   3.576  15.097  0.8367  1.4485  0.5815
15811TIP3    H268925   4.383   3.487  15.055  0.7414  1.5676  0.0666
15812TIP3   OH268926   0.701   4.418  12.797  0.5271  0.2492 -0.6089
15812TIP3    H168927   0.707   4.325  12.818  0.4147 -0.1211 -2.0976
15812TIP3    H268928   0.783   4.438  12.752  0.7178  0.9875  0.0323
15813TIP3   OH268929   0.633   1.051  14.186  0.6182 -0.2652 -0.0252
15813TIP3    H168930   0.695   1.109  14.231  0.6075  0.2000 -0.6014
15813TIP3    H268931   0.676   0.965  14.187  1.1934  0.0141 -0.2512
15814TIP3   OH268932   4.440   1.016   5.003  0.2072 -0.4591  0.3974
15814TIP3    H168933   4.364   0.979   4.959  0.5992  0.7372 -1.3643
15814TIP3    H268934   4.404   1.058   5.081 -0.9721  0.2036 -0.4707
15815TIP3   OH268935   3.030   5.727   4.327 -0.1866  0.3868 -0.6398
15815TIP3    H168936   2.944   5.747   4.289 -0.9692 -1.9453 -0.3016
15815TIP3    H268937   3.009   5.687   4.412  1.2222 -0.1036 -0.5029
15816TIP3   OH268938   3.372   6.195  11.320 -0.8258 -0.0015 -0.3117
15816TIP3    H168939   3.361   6.196  11.415 -1.7748 -1.4346 -0.3797
15816TIP3    H268940   3.463   6.166  11.307  0.6101  3.7529  0.1393
15817TIP3   OH268941   4.993   6.444   2.781 -0.2990  0.1307 -0.4674
15817TIP3    H168942   4.976   6.373   2.720 -1.5704 -0.1292  0.1623
15817TIP3    H268943   5.035   6.512   2.728  4.6465 -2.4338 -0.3852
15818TIP3   OH268944   3.277   6.784   5.747  0.0714 -0.0997  0.3507
15818TIP3    H168945   3.371   6.770   5.734  0.2294  1.5480 -0.4629
15818TIP3    H268946   3.260   6.869   5.707 -1.9145 -0.7006 -0.1474
15819TIP3   OH268947   4.596   5.050  16.205  0.5070  0.0213 -0.4736
15819TIP3    H168948   4.687   5.045  16.233  0.7231 -1.7194 -1.3038
15819TIP3    H268949   4.591   5.128  16.150  0.9785  1.2822  1.1955
15820TIP3   OH268950   0.937   6.317   0.958 -0.4204  0.4382 -0.4290
15820TIP3    H168951   0.888   6.389   0.919 -0.6652  1.6812  2.0381
15820TIP3    H268952   1.029   6.343   0.952 -0.2533 -0.3630 -2.0009
15821TIP3   OH268953   2.088   3.031   4.907 -0.1867  0.2471 -0.6054
15821TIP3    H168954   2.050   2.972   4.841 -1.5663  1.0361 -0.5561
15821TIP3    H268955   2.018   3.094   4.926  0.4711  0.5462  1.0009
15822TIP3   OH268956   2.408   5.485   0.085 -0.2737  0.1288  0.6967
15822TIP3    H168957   2.415   5.501   0.179 -2.4162 -1.2090  1.1571
15822TIP3    H268958   2.342   5.547   0.054 -0.0146  0.1528  0.1707
15823TIP3   OH268959   1.526   1.371  15.650 -0.0030 -0.3559  0.2596
15823TIP3    H168960   1.528   1.450  15.704  2.0070  0.2013 -0.5475
15823TIP3    H268961   1.469   1.393  15.577 -0.2903 -0.0437  0.5730
15824TIP3   OH268962   0.275   2.400  15.876  0.0486 -0.2733 -0.4886
15824TIP3    H168963   0.337   2.453  15.827 -1.2167  3.6063  1.6411
15824TIP3    H268964   0.315   2.390  15.963 -0.6175 -1.1337 -0.2595
15825TIP3   OH268965   3.097   3.271  11.951  0.2352  0.0616  0.0101
15825TIP3    H168966   3.025   3.213  11.976  1.2020 -0.2178  2.5158
15825TIP3    H268967   3.094   3.274  11.856 -2.1207 -1.1487 -0.0344
15826TIP3   OH268968   4.991   2.808   5.363  0.3982  0.0116  0.3668
15826TIP3    H168969   4.905   2.799   5.322  1.3137  0.9949 -1.9243
15826TIP3    H268970   4.988   2.894   5.405  0.8570  0.9136 -1.3672
15827TIP3   OH268971   5.525   4.823   0.827 -0.0584  0.4415  0.3145
15827TIP3    H168972   5.543   4.769   0.904 -0.8569 -0.7012 -0.2638
15827TIP3    H268973   5.553   4.911   0.852  2.9596 -0.5135  0.6889
15828TIP3   OH268974   6.469   2.586   5.837  0.0966  0.1517 -0.1164
15828TIP3    H168975   6.550   2.575   5.887  0.1260 -1.7581 -0.5293
15828TIP3    H268976   6.436   2.497   5.824 -0.9266  0.7371 -1.8490
15829TIP3   OH268977   2.730   0.051   3.332 -0.2662  0.1191 -0.1840
15829TIP3    H168978   2.817   0.091   3.339  1.2102 -2.5430 -1.5630
15829TIP3    H268979   2.715   0.043   3.237 -0.1409 -2.9393 -0.0658
15830TIP3   OH268980   3.216   5.232   3.473  0.2869  0.7760  0.4290
15830TIP3    H168981   3.143   5.220   3.411  0.3497 -0.3718  0.5578
15830TIP3    H268982   3.294   5.235   3.417  0.3232 -0.0355  0.4318
15831TIP3   OH268983   3.017   6.652   2.002 -0.3043 -0.5191 -0.1028
15831TIP3    H168984   2.952   6.688   2.061  2.0381 -0.5689  2.7390
15831TIP3    H268985   3.004   6.557   2.006  0.3936 -0.5817  1.1163
15832TIP3   OH268986   4.892   6.180  11.687 -0.1079  0.4386  0.0182
15832TIP3    H168987   4.845   6.217  11.613 -0.8188  0.0809  0.2855
15832TIP3    H268988   4.866   6.233  11.762  0.5292  0.7342  0.0339
15833TIP3   OH268989   2.409   2.410   4.422  0.3601  0.5292 -0.2380
15833TIP3    H168990   2.315   2.420   4.406 -0.2351 -0.6103  2.0685
15833TIP3    H268991   2.422   2.316   4.433  1.3830  0.8212  1.3991
15834TIP3   OH268992   1.706   3.384   2.981  0.6540  0.5418 -0.2281
15834TIP3    H168993   1.743   3.349   3.063  0.6013 -1.3852 -0.9830
15834TIP3    H268994   1.658   3.462   3.009  0.8806  0.1062  1.5482
15835TIP3   OH268995   3.414   0.761   5.527 -0.4726  0.1205  0.1911
15835TIP3    H168996   3.433   0.696   5.595  1.1915  0.8016  0.4196
15835TIP3    H268997   3.339   0.725   5.481 -1.2513 -0.6822  1.9738
15836TIP3   OH268998   2.156   4.622  13.107 -0.0795  0.2209  0.5656
15836TIP3    H168999   2.199   4.695  13.151 -2.0045  1.4651  0.5331
15836TIP3    H269000   2.120   4.568  13.177  0.3508 -0.0739  0.5650
15837TIP3   OH269001   0.342   4.105  12.317 -0.0657  0.2093  0.6801
15837TIP3    H169002   0.299   4.133  12.236  0.0821  0.1612  0.5838
15837TIP3    H269003   0.353   4.186  12.367  1.6634  0.5657 -0.2177
15838TIP3   OH269004   0.669   2.909   3.451 -0.2286 -0.2825  0.5730
15838TIP3    H169005   0.645   3.001   3.460  1.1387  0.4281 -2.0714
15838TIP3    H269006   0.763   2.907   3.469 -0.1090 -1.0422 -0.0851
15839TIP3   OH269007   2.719   5.385   2.225 -0.0968  0.2428  0.3050
15839TIP3    H169008   2.699   5.477   2.239  0.0662  0.3524 -0.1543
15839TIP3    H269009   2.748   5.353   2.310 -0.1705  0.6115  0.4695
15840TIP3   OH269010   3.032   6.447   1.225 -0.5732  0.4665  0.1516
15840TIP3    H169011   3.050   6.521   1.282  0.4684  1.4763 -1.4098
15840TIP3    H269012   3.087   6.462   1.148  0.4252 -2.4135  0.1660
15841TIP3   OH269013   4.268   6.469  14.686 -0.4486 -0.3734  0.1217
15841TIP3    H169014   4.231   6.414  14.617 -1.2009  0.7645 -0.4167
15841TIP3    H269015   4.258   6.558  14.653 -0.5553  0.1801  1.5756
15842TIP3   OH269016   6.401   2.916  13.921  0.2711  0.0316 -0.1269
15842TIP3    H169017   6.364   2.973  13.853  1.9234  0.4640 -0.7270
15842TIP3    H269018   6.437   2.843  13.872  2.5252  0.9132  0.1109
15843TIP3   OH269019   1.078   2.592  14.296  0.3814  0.0334  0.5236
15843TIP3    H169020   1.148   2.526  14.295  1.0787  0.7427 -1.1444
15843TIP3    H269021   1.038   2.585  14.209 -0.3701  0.9382  0.7878
15844TIP3   OH269022   0.922   0.085  17.007  0.4214 -0.0559 -0.0173
15844TIP3    H169023   0.876   0.082  16.923 -0.3882 -0.4120  0.4261
15844TIP3    H269024   0.919   0.177  17.032  2.1699  0.3603 -1.1732
15845TIP3   OH269025   0.298   6.456   3.759 -0.1466 -0.3033 -0.1546
15845TIP3    H169026   0.341   6.374   3.736 -0.7300 -0.2401 -1.5608
15845TIP3    H269027   0.238   6.473   3.687 -0.9499  0.7287  0.7174
15846TIP3   OH269028   6.288   5.996  16.813 -0.2705  0.0070  0.2639
15846TIP3    H169029   6.337   5.920  16.782 -0.5966  0.2988 -1.0243
15846TIP3    H269030   6.205   5.961  16.843  0.5464 -0.4476  2.1185
15847TIP3   OH269031   1.253   3.886   5.745  0.1849  0.2268  0.1795
15847TIP3    H169032   1.246   3.893   5.650  1.6369  0.2216  0.0391
15847TIP3    H269033   1.226   3.971   5.778 -0.2978  0.2394 -0.2381
15848TIP3   OH269034   3.307   3.435   0.234  0.0140 -0.0944 -0.6322
15848TIP3    H169035   3.346   3.348   0.230  0.5660  0.1239 -0.2068
15848TIP3    H269036   3.379   3.495   0.212  0.2188  0.3697  1.0782
15849TIP3   OH269037   6.807   6.584   3.847  0.1898  0.5057 -0.2199
15849TIP3    H169038   6.738   6.604   3.910  0.8614  0.5207  0.5258
15849TIP3    H269039   6.805   6.489   3.839 -1.5788  0.6369 -2.1368
15850TIP3   OH269040   1.932   3.304  11.047 -0.2049 -0.3621 -0.0283
15850TIP3    H169041   1.901   3.383  11.091  0.3834 -0.1882  0.0890
15850TIP3    H269042   1.860   3.241  11.056 -0.1770 -0.2675  1.0153
15851TIP3   OH269043   2.132   0.275  11.582  0.3931 -0.5718 -0.1700
15851TIP3    H169044   2.124   0.370  11.591 -0.2140 -0.4859 -1.3320
15851TIP3    H269045   2.097   0.257  11.494  0.5644 -1.8595  0.0109
15852TIP3   OH269046   5.583   6.030   2.203  0.0298  0.4608  0.2195
15852TIP3    H169047   5.520   6.033   2.130  0.6415  0.2162 -0.3323
15852TIP3    H269048   5.649   5.966   2.175  0.5850  0.7944  0.7376
15853TIP3   OH269049   0.918   5.594  14.372  0.5417 -0.3360 -0.2358
15853TIP3    H169050   0.921   5.605  14.467  2.3052  0.0455 -0.2963
15853TIP3    H269051   0.825   5.597  14.350  0.0400 -1.2275  1.5618
15854TIP3   OH269052   1.573   0.137   4.390  0.3433 -0.1265  0.5267
15854TIP3    H169053   1.586   0.206   4.454  0.5233 -1.7894  2.3685
15854TIP3    H269054   1.660   0.120   4.354  0.3366  0.4318  0.2472
15855TIP3   OH269055   1.419   3.475  16.945  0.3227 -0.0796  0.1061
15855TIP3    H169056   1.485   3.415  16.978 -1.0543 -0.2144  2.8650
15855TIP3    H269057   1.344   3.465  17.004 -1.2515  1.8738 -1.3714
15856TIP3   OH269058   1.547   6.779  11.988 -0.1983 -0.0646 -0.0803
15856TIP3    H169059   1.465   6.751  11.946  0.0226 -1.7811  0.5781
15856TIP3    H269060   1.616   6.737  11.937  0.2961  1.2891 -0.5647
15857TIP3   OH269061   2.626   6.141  14.899  0.2581  0.1673 -0.3247
15857TIP3    H169062   2.711   6.102  14.917  0.5701  0.9662 -0.0362
15857TIP3    H269063   2.594   6.170  14.984  0.7371  1.9391 -0.7192
15858TIP3   OH269064   4.193   2.782   3.783 -0.1915  0.1952  0.0432
15858TIP3    H169065   4.133   2.713   3.754 -0.5826  0.3713  0.4152
15858TIP3    H269066   4.249   2.739   3.848 -0.6983  0.3205  0.5729
15859TIP3   OH269067   6.168   5.496   0.542 -0.2156 -0.5477  0.3601
15859TIP3    H169068   6.140   5.416   0.586 -0.2675 -1.5481 -1.4017
15859TIP3    H269069   6.090   5.526   0.495  0.4657 -0.9301 -1.0660
15860TIP3   OH269070   0.505   5.484  14.984 -0.3258  0.0469 -0.2389
15860TIP3    H169071   0.427   5.538  14.968 -0.3204  0.7929  1.9167
15860TIP3    H269072   0.480   5.426  15.056  0.4990 -1.0862 -0.8363
15861TIP3   OH269073   5.724   1.890   2.945  0.0315 -0.1065 -0.8548
15861TIP3    H169074   5.648   1.836   2.924 -1.1653 -0.6416  3.7459
15861TIP3    H269075   5.771   1.840   3.012  1.5568  2.4557  0.1418
15862TIP3   OH269076   4.946   3.442  14.141  0.1375 -0.9158  0.2761
15862TIP3    H169077   4.940   3.462  14.048  1.5690 -2.2472 -0.1560
15862TIP3    H269078   4.864   3.473  14.178  0.4822  1.8273 -0.9799
15863TIP3   OH269079   2.512   0.642   0.680  0.4653  0.0157 -0.5875
15863TIP3    H169080   2.489   0.681   0.596  1.6203  1.7380 -0.1595
15863TIP3    H269081   2.606   0.625   0.673  0.2908 -1.2303 -0.1594
15864TIP3   OH269082   1.124   0.136   5.186 -0.4470 -0.3092 -0.0809
15864TIP3    H169083   1.041   0.184   5.188 -0.6911 -0.6947 -0.5291
15864TIP3    H269084   1.184   0.192   5.137 -0.3484  0.1098  0.5108
15865TIP3   OH269085   6.006   1.597  16.357  0.3682  0.2241 -0.7857
15865TIP3    H169086   6.096   1.585  16.389  0.8487  2.2079 -1.2305
15865TIP3    H269087   5.951   1.576  16.432  1.0756 -2.5131 -0.9331
15866TIP3   OH269088   2.992   0.048  11.998 -0.2052  0.4688 -0.0405
15866TIP3    H169089   3.042   0.062  11.917 -0.0275  0.2391  0.0308
15866TIP3    H269090   3.058   0.044  12.067 -0.4195  1.8125  0.2783
15867TIP3   OH269091   1.039   0.097  12.833  0.1490 -0.6052 -0.7622
15867TIP3    H169092   1.054   0.041  12.756  3.6211  0.5451 -1.1242
15867TIP3    H269093   1.007   0.179  12.796 -1.7085 -1.1954 -0.5517
15868TIP3   OH269094   5.664   0.963  12.254  0.4300  0.5998  0.1356
15868TIP3    H169095   5.705   1.039  12.213  0.7977  0.9875  1.1964
15868TIP3    H269096   5.734   0.923  12.305  0.3979 -0.8068 -0.8714
15869TIP3   OH269097   0.172   0.087   4.106 -0.2782 -0.7177 -0.3529
15869TIP3    H169098   0.132   0.110   4.021 -0.6618 -0.1343 -0.0240
15869TIP3    H269099   0.103   0.037   4.151 -0.1661 -0.8078 -0.2821
15870TIP3   OH269100   2.167   0.388  10.263  0.1277 -0.5378 -1.0447
15870TIP3    H169101   2.135   0.437  10.188 -0.6490  0.4833 -0.0890
15870TIP3    H269102   2.087   0.362  10.310  0.6096 -0.5657 -0.2174
15871TIP3   OH269103   5.958   0.285  14.019 -0.1749  0.3302 -0.4096
15871TIP3    H169104   5.919   0.358  13.970 -0.1877  1.0864  0.7092
15871TIP3    H269105   6.052   0.298  14.010 -0.1655 -0.0133 -0.9095
15872TIP3   OH269106   0.982   0.768  15.125 -0.1281 -0.0693 -0.5050
15872TIP3    H169107   1.026   0.768  15.209  0.1969 -1.9652 -0.6316
15872TIP3    H269108   0.909   0.828  15.136  0.6278  0.6608  0.7187
15873TIP3   OH269109   3.319   0.690  11.170 -0.4614  0.1480  0.5654
15873TIP3    H169110   3.302   0.700  11.076 -1.3208 -0.3118  0.6583
15873TIP3    H269111   3.394   0.632  11.175  0.5513  1.3797  0.1428
15874TIP3   OH269112   6.745   4.299   0.118  0.4568  0.1972  0.1890
15874TIP3    H169113   6.676   4.262   0.173  0.3514 -0.5451 -0.4310
15874TIP3    H269114   6.816   4.236   0.122  0.5216  0.2288 -0.3754
15875TIP3   OH269115   6.004   4.387  15.901  0.1564  0.2244  0.1370
15875TIP3    H169116   5.908   4.385  15.897  0.2098 -0.2420 -1.5880
15875TIP3    H269117   6.026   4.329  15.974 -0.8557 -0.2372  0.0920
15876TIP3   OH269118   6.291   3.597  12.756 -0.0513  0.0558 -0.6197
15876TIP3    H169119   6.224   3.530  12.742 -1.0778  0.8841  0.1512
15876TIP3    H269120   6.297   3.643  12.672  1.1335 -1.3596 -1.3677
15877TIP3   OH269121   0.353   0.106   4.992 -0.0150  0.5714  0.5794
15877TIP3    H169122   0.377   0.015   5.012  0.5268  0.3903 -0.8024
15877TIP3    H269123   0.433   0.145   4.958 -0.8104  0.8771 -1.0677
15878TIP3   OH269124   1.997   1.395   4.029  0.2343  0.1594 -0.0798
15878TIP3    H169125   2.079   1.365   4.067  1.4756  2.7078 -0.5261
15878TIP3    H269126   1.940   1.318   4.031  1.4192 -0.8164  3.4195
15879TIP3   OH269127   0.360   5.725  14.244 -0.1480  0.1313 -0.3374
15879TIP3    H169128   0.288   5.722  14.181  0.1808 -1.0518 -0.6747
15879TIP3    H269129   0.380   5.634  14.263  1.4112  0.4238 -0.4275
15880TIP3   OH269130   4.211   0.291  16.198  0.3246  0.2828 -0.5753
15880TIP3    H169131   4.242   0.241  16.273  0.0695 -0.6305 -1.0627
15880TIP3    H269132   4.200   0.380  16.231  0.6264 -0.0154  0.3534
15881TIP3   OH269133   2.683   5.502  13.207  0.1308  0.2772 -0.8663
15881TIP3    H169134   2.651   5.575  13.260 -1.9264 -0.1039 -1.4893
15881TIP3    H269135   2.773   5.489  13.236 -0.7271  0.3927  2.2127
15882TIP3   OH269136   5.666   3.349  13.086 -0.4112  0.3871 -0.0572
15882TIP3    H169137   5.687   3.388  13.170  0.3238 -0.8009  0.3431
15882TIP3    H269138   5.592   3.290  13.105  0.2433 -0.4598 -0.0548
15883TIP3   OH269139   5.042   3.826   3.128 -0.3272  0.0203  0.0107
15883TIP3    H169140   4.962   3.800   3.174 -1.0962 -0.1978 -1.3936
15883TIP3    H269141   5.057   3.755   3.065  2.2703 -1.1045  1.7089
15884TIP3   OH269142   1.283   3.891  12.577  0.5603  0.2392  0.1542
15884TIP3    H169143   1.313   3.813  12.532  2.2694  1.4986 -1.0125
15884TIP3    H269144   1.334   3.893  12.658 -0.5173 -0.5624  0.8823
15885TIP3   OH269145   2.628   5.172  16.328 -0.0431 -0.4882 -0.1043
15885TIP3    H169146   2.632   5.116  16.250  1.7384 -0.7211  0.1170
15885TIP3    H269147   2.687   5.245  16.309 -0.5769  0.1274  0.5260
15886TIP3   OH269148   5.785   1.338   3.027  0.2842 -0.2581 -0.1150
15886TIP3    H169149   5.856   1.378   2.976 -0.4308  0.2821 -0.7069
15886TIP3    H269150   5.793   1.377   3.113  0.5266  0.0200 -0.2617
15887TIP3   OH269151   3.013   4.483  12.762  0.1721 -0.2406 -0.5621
15887TIP3    H169152   3.099   4.521  12.744 -0.2724  0.7487 -0.6941
15887TIP3    H269153   2.952   4.538  12.712 -0.4912 -1.2256 -0.8571
15888TIP3   OH269154   4.877   0.390   4.636 -0.0154  0.5678  0.4633
15888TIP3    H169155   4.909   0.363   4.551 -1.9380  0.7143 -0.3588
15888TIP3    H269156   4.929   0.339   4.699  2.4505  1.5404 -0.6755
15889TIP3   OH269157   4.343   0.084  13.800  0.0971  0.4205 -0.1073
15889TIP3    H169158   4.379   0.173  13.805  2.1623 -0.2625 -1.7119
15889TIP3    H269159   4.381   0.039  13.875 -0.0475  0.5713  0.0584
15890TIP3   OH269160   1.326   6.317  11.342 -0.5962  0.2603 -0.2372
15890TIP3    H169161   1.388   6.387  11.319  1.3200 -1.7672 -1.7172
15890TIP3    H269162   1.347   6.296  11.433 -1.1884  1.5650  0.2211
15891TIP3   OH269163   2.458   5.004  13.010  0.3949 -0.1617  0.4610
15891TIP3    H169164   2.457   5.098  12.991  0.2126 -0.4534 -1.1684
15891TIP3    H269165   2.374   4.972  12.978  0.9795 -1.0723 -0.2260
15892TIP3   OH269166   3.610   6.251  15.801  0.3050  0.1651 -0.2257
15892TIP3    H169167   3.615   6.323  15.864 -0.3904  1.6052 -1.7392
15892TIP3    H269168   3.581   6.176  15.852  2.7008  0.4623  1.7587
15893TIP3   OH269169   2.755   6.062   3.381  0.1632 -0.0897 -0.7116
15893TIP3    H169170   2.746   6.153   3.410  1.3545 -0.5434  1.2686
15893TIP3    H269171   2.825   6.026   3.435 -0.9568 -2.4940 -0.7330
15894TIP3   OH269172   3.829   3.150   4.889 -0.6819 -0.4164  0.4843
15894TIP3    H169173   3.792   3.152   4.801 -2.1912  1.6620  1.0918
15894TIP3    H269174   3.819   3.239   4.922  1.3455 -0.7302  2.1835
15895TIP3   OH269175   2.080   3.686   5.777 -0.4291 -0.6011 -0.3899
15895TIP3    H169176   2.056   3.673   5.868 -0.3585  0.6502 -0.1778
15895TIP3    H269177   2.083   3.598   5.740 -1.8314 -1.0385  0.4596
15896TIP3   OH269178   2.180   1.233   4.552 -0.4869 -0.6043 -0.1923
15896TIP3    H169179   2.251   1.183   4.592 -1.1926 -1.9256 -0.5402
15896TIP3    H269180   2.169   1.309   4.610 -0.0461 -1.3477  0.8918
15897TIP3   OH269181   3.416   2.884  12.795  0.6385  0.0318  0.4372
15897TIP3    H169182   3.380   2.899  12.707 -0.0647  1.0108  0.8659
15897TIP3    H269183   3.416   2.971  12.835  0.9208 -0.4106  1.4126
15898TIP3   OH269184   1.567   1.800  15.702  0.2225 -0.7169 -0.2040
15898TIP3    H169185   1.529   1.879  15.741  0.7131 -1.1358  1.1969
15898TIP3    H269186   1.493   1.757  15.660 -0.6726 -0.9359  1.4767
15899TIP3   OH269187   1.391   5.788   5.114  0.2914 -0.0786 -0.7503
15899TIP3    H169188   1.319   5.784   5.051  0.8456  0.6043 -1.4423
15899TIP3    H269189   1.354   5.751   5.194 -0.0495 -2.1655 -1.7923
15900TIP3   OH269190   1.248   2.592  16.082 -0.3078 -0.2336  0.2812
15900TIP3    H169191   1.213   2.663  16.135 -1.0484  0.2014 -0.7670
15900TIP3    H269192   1.283   2.634  16.004  1.2410 -0.8153  0.6278
15901TIP3   OH269193   4.272   3.016  15.441 -0.2102  0.0940  0.1860
15901TIP3    H169194   4.309   2.950  15.382 -1.2627 -1.6356  1.3599
15901TIP3    H269195   4.241   3.086  15.383  0.2472 -0.7876 -1.1773
15902TIP3   OH269196   0.660   2.824  13.722 -0.0214  0.1977  0.1576
15902TIP3    H169197   0.582   2.830  13.778 -1.7662 -2.1200 -1.8271
15902TIP3    H269198   0.651   2.898  13.662 -0.1782  0.4912  0.5340
15903TIP3   OH269199   0.276   4.855  17.096 -0.0599 -0.7134 -0.4215
15903TIP3    H169200   0.352   4.820  17.050  1.2394  1.4473 -0.0429
15903TIP3    H269201   0.209   4.862  17.028  0.1798 -2.2101 -0.8576
15904TIP3   OH269202   6.287   1.032  11.978 -0.0880  0.0128  0.0376
15904TIP3    H169203   6.331   0.954  11.942  1.2670  0.8499 -0.1830
15904TIP3    H269204   6.271   1.087  11.902  1.2884  1.0559  0.4521
15905TIP3   OH269205   1.934   5.827  12.064  0.1789  0.4564 -0.4876
15905TIP3    H169206   1.900   5.766  12.129 -1.1379  1.2815 -0.3727
15905TIP3    H269207   1.928   5.913  12.105  1.2790  0.7694 -0.9386
15906TIP3   OH269208   2.053   0.712  17.006  0.0874 -0.6323 -0.2449
15906TIP3    H169209   2.017   0.780  16.950  0.3689  0.8605  1.3138
15906TIP3    H269210   1.995   0.710  17.082  2.8075  1.5098  2.1205
15907TIP3   OH269211   4.382   0.379   4.718  0.0415 -0.0282  0.4016
15907TIP3    H169212   4.476   0.389   4.735 -0.4686  0.3240  3.6397
15907TIP3    H269213   4.351   0.321   4.788 -1.9546 -1.3462 -1.4438
15908TIP3   OH269214   6.152   5.655   2.755  0.4652  0.4604  0.0027
15908TIP3    H169215   6.241   5.631   2.782  0.5124  0.8525  0.2075
15908TIP3    H269216   6.130   5.730   2.810 -0.3957 -0.2823  0.7073
15909TIP3   OH269217   4.388   3.601  15.392 -0.1232  0.0608 -0.3816
15909TIP3    H169218   4.294   3.584  15.392 -0.0460 -0.4060 -0.1999
15909TIP3    H269219   4.426   3.525  15.347  0.1141  0.5677 -1.0395
15910TIP3   OH269220   3.585   4.668   3.715  0.2323 -0.0094  0.1236
15910TIP3    H169221   3.577   4.750   3.764 -1.1665  1.4971 -2.3985
15910TIP3    H269222   3.659   4.623   3.755  1.3557  2.6939  1.3225
15911TIP3   OH269223   3.552   0.298  10.779 -0.4022  0.2042 -0.5542
15911TIP3    H169224   3.607   0.362  10.823 -0.4043 -0.8516  1.0655
15911TIP3    H269225   3.578   0.303  10.687  2.2419 -0.0907  0.0956
15912TIP3   OH269226   4.899   1.259  16.501  0.5687  0.0589  0.1906
15912TIP3    H169227   4.957   1.271  16.425 -0.9599  0.0664 -1.0270
15912TIP3    H269228   4.921   1.332  16.560  1.0759  0.6583 -0.7161
15913TIP3   OH269229   4.818   2.604  16.797  0.0089  0.7084  0.1430
15913TIP3    H169230   4.816   2.528  16.856 -1.2389 -0.0130 -0.7753
15913TIP3    H269231   4.881   2.664  16.838 -0.2183 -0.0946  1.7735
15914TIP3   OH269232   4.692   2.958   4.149  0.4947 -0.0843  0.1205
15914TIP3    H169233   4.699   3.006   4.231 -1.7839 -0.2517  0.4923
15914TIP3    H269234   4.684   3.026   4.082 -2.2466  0.1832  0.5955
15915TIP3   OH269235   3.593   0.201  11.768 -0.3451  0.0047  0.1506
15915TIP3    H169236   3.675   0.215  11.816 -1.3051  0.0840  1.8614
15915TIP3    H269237   3.620   0.192  11.676  1.5921 -0.2663  0.6939
15916TIP3   OH269238   3.088   6.794   4.434  0.5487  0.0881  0.3110
15916TIP3    H169239   3.060   6.824   4.347 -0.0315  0.4182  0.6083
15916TIP3    H269240   3.175   6.832   4.446  0.0761  1.1669  0.4299
15917TIP3   OH269241   6.013   0.383   2.751  0.4431  0.3177 -0.1351
15917TIP3    H169242   6.027   0.310   2.691 -0.4412 -0.2913  0.3800
15917TIP3    H269243   5.923   0.410   2.736  0.8679  1.5536 -0.5732
15918TIP3   OH269244   4.495   6.046   5.018 -0.2773 -0.3576 -0.2544
15918TIP3    H169245   4.435   6.098   5.070 -0.2013 -0.8855  0.3727
15918TIP3    H269246   4.471   5.955   5.036  1.7151 -0.6658  1.3244
15919TIP3   OH269247   1.602   4.914   2.529 -0.1874  0.0217  0.4779
15919TIP3    H169248   1.593   5.000   2.488 -1.1879 -0.1732  0.2825
15919TIP3    H269249   1.513   4.887   2.549 -0.0842 -1.8765 -1.3250
15920TIP3   OH269250   3.265   0.047   1.278 -0.1109  0.1983  0.6192
15920TIP3    H169251   3.206   0.034   1.203 -0.2207  0.7778  0.5979
15920TIP3    H269252   3.265  -0.037   1.324 -1.7106  0.4589  1.1647
15921TIP3   OH269253   5.628   4.320   3.257  0.0760 -0.0844  0.0713
15921TIP3    H169254   5.722   4.306   3.272 -0.2697 -2.0067  0.7462
15921TIP3    H269255   5.616   4.413   3.272  2.1156  0.4985 -1.4864
15922TIP3   OH269256   5.488   0.011   0.773 -0.2111 -0.2696 -0.7860
15922TIP3    H169257   5.504  -0.073   0.815 -0.9185  0.0039  0.0867
15922TIP3    H269258   5.451   0.066   0.843 -1.6783  0.1307 -1.8141
15923TIP3   OH269259   6.769   4.985  14.678 -0.1516 -0.2632  0.4356
15923TIP3    H169260   6.863   4.979  14.693 -0.0644  0.2688  0.1187
15923TIP3    H269261   6.734   5.022  14.759  0.1391  1.2365 -0.0980
15924TIP3   OH269262   3.342   1.466   2.720 -0.2910  0.6905 -0.1961
15924TIP3    H169263   3.403   1.539   2.712 -0.1560  0.6300  0.2546
15924TIP3    H269264   3.331   1.455   2.814 -0.4916  0.2817 -0.2684
15925TIP3   OH269265   2.720   1.368   5.945  0.1500  0.8551  0.5376
15925TIP3    H169266   2.807   1.353   5.910  0.5474 -0.8445  2.1051
15925TIP3    H269267   2.734   1.384   6.039 -1.1529  1.5129  0.6430
15926TIP3   OH269268   0.730   1.847   1.125 -0.0267  0.2748  0.3990
15926TIP3    H169269   0.642   1.863   1.092  0.1835  0.7020  0.0521
15926TIP3    H269270   0.732   1.891   1.210  0.1978  1.1623 -0.0665
15927TIP3   OH269271   5.037   0.532  14.432  0.1599  0.0041 -0.4761
15927TIP3    H169272   5.077   0.562  14.350  0.3676  2.3286  0.4214
15927TIP3    H269273   4.954   0.492  14.404  0.0623  1.0566 -1.8092
15928TIP3   OH269274   4.486   2.163  11.226  0.5595 -0.0121  0.2721
15928TIP3    H169275   4.468   2.256  11.217  1.2979  0.0724 -0.3958
15928TIP3    H269276   4.558   2.146  11.165  3.6739 -0.0652  3.6060
15929TIP3   OH269277   3.855   5.069   5.504 -0.0433  0.4712  0.2399
15929TIP3    H169278   3.814   5.154   5.516  0.8184  1.0813 -0.9559
15929TIP3    H269279   3.869   5.062   5.409  3.5815  0.7871  0.6196
15930TIP3   OH269280   1.279   1.800  13.771  0.4212  0.0464  0.2775
15930TIP3    H169281   1.205   1.753  13.733  0.9777 -0.6724  0.0488
15930TIP3    H269282   1.353   1.739  13.762  0.6231 -0.0539  2.3098
15931TIP3   OH269283   6.490   4.474  14.382 -0.1195 -0.1121  0.5460
15931TIP3    H169284   6.443   4.494  14.463  2.1482  2.2289  1.4400
15931TIP3    H269285   6.580   4.458  14.410  0.5940  0.1576 -1.4325
15932TIP3   OH269286   2.391   5.049   3.449 -0.4621  0.2534 -0.0123
15932TIP3    H169287   2.330   5.038   3.522 -0.9108  0.5301 -0.3414
15932TIP3    H269288   2.433   5.133   3.466 -1.4114  0.8838 -0.6725
15933TIP3   OH269289   6.449   3.315  13.795  0.1394 -0.2879 -0.3350
15933TIP3    H169290   6.395   3.244  13.762 -1.6771  1.2244 -0.8395
15933TIP3    H269291   6.404   3.395  13.765  1.3369  1.0870  1.3205
15934TIP3   OH269292   1.102   5.710  15.676 -0.7681  0.3251 -0.3216
15934TIP3    H169293   1.110   5.800  15.645 -3.0392  0.4279 -0.7875
15934TIP3    H269294   1.164   5.660  15.623  1.1671  1.6881  0.5272
15935TIP3   OH269295   5.781   0.614   3.330  0.2382 -0.0098 -0.5398
15935TIP3    H169296   5.841   0.651   3.394  0.3233 -0.6557 -0.2301
15935TIP3    H269297   5.807   0.651   3.246  0.6813  0.1730 -0.3202
15936TIP3   OH269298   2.092   4.294   1.054  0.3142  0.1693  0.2693
15936TIP3    H169299   2.162   4.338   1.102  0.5592  1.1220 -0.9178
15936TIP3    H269300   2.017   4.296   1.113  0.4441  1.8165  0.4214
15937TIP3   OH269301   5.129   1.945   5.844  0.5551 -0.4740 -0.6906
15937TIP3    H169302   5.161   1.871   5.897 -0.3978 -2.3925 -2.6527
15937TIP3    H269303   5.205   2.001   5.832  1.1888 -0.8418  1.2626
15938TIP3   OH269304   4.597   2.132  11.690  0.0484  0.7270  0.3018
15938TIP3    H169305   4.687   2.105  11.671  0.3149  1.5027  0.4394
15938TIP3    H269306   4.602   2.177  11.774 -0.4955  0.6758  0.3704
15939TIP3   OH269307   0.571   2.538  11.394  0.2393 -0.0337 -0.2298
15939TIP3    H169308   0.577   2.634  11.399  1.9191 -0.1424  0.4393
15939TIP3    H269309   0.619   2.507  11.471 -0.8695 -1.4167 -0.0778
15940TIP3   OH269310   0.807   3.220   2.189  0.2241 -0.8694  0.1094
15940TIP3    H169311   0.758   3.290   2.230  0.8210 -0.1867 -0.3065
15940TIP3    H269312   0.832   3.162   2.261 -1.0589 -1.1606  0.3348
15941TIP3   OH269313   1.662   2.234   0.478  0.2835 -0.0653 -0.2693
15941TIP3    H169314   1.571   2.236   0.509  0.4124  0.6845  0.0631
15941TIP3    H269315   1.672   2.146   0.441  0.6591 -1.7610  3.4499
15942TIP3   OH269316   0.817   3.367   4.680  0.4365 -0.9050  0.1156
15942TIP3    H169317   0.849   3.452   4.710  1.0521 -1.6168  1.5962
15942TIP3    H269318   0.897   3.315   4.670 -0.0337 -1.8338  1.0153
15943TIP3   OH269319   6.788   4.156   6.415 -0.3498  0.1734  0.2089
15943TIP3    H169320   6.831   4.234   6.380  0.3111 -0.0747  0.4579
15943TIP3    H269321   6.841   4.132   6.491  0.0861 -1.1374 -0.4831
15944TIP3   OH269322   3.939   5.457   4.908 -0.0906 -0.2984 -0.1227
15944TIP3    H169323   3.968   5.541   4.873 -0.9816  0.7591  1.5332
15944TIP3    H269324   3.918   5.405   4.830  0.6269  0.9459 -1.1903
15945TIP3   OH269325   5.566   5.160   1.800 -0.3687 -0.1428  0.1755
15945TIP3    H169326   5.569   5.157   1.705 -0.8856  2.1588  0.0409
15945TIP3    H269327   5.621   5.234   1.825 -0.5270 -0.4774  1.6548
15946TIP3   OH269328   4.888   3.385   4.208  0.1346 -0.1639 -0.2648
15946TIP3    H169329   4.973   3.346   4.228  0.7915  0.9691 -0.6988
15946TIP3    H269330   4.880   3.378   4.112 -0.8972 -1.4808 -0.1004
15947TIP3   OH269331   0.053   4.774  11.919  0.3579  0.3716  0.2950
15947TIP3    H169332   0.022   4.684  11.917  1.2667  0.0349 -2.5231
15947TIP3    H269333   0.133   4.772  11.971 -0.5035 -0.0882  1.6442
15948TIP3   OH269334   1.710   5.548  13.509 -0.0548 -0.2091 -0.3935
15948TIP3    H169335   1.656   5.601  13.450 -0.7452 -1.4893 -0.9494
15948TIP3    H269336   1.800   5.567  13.483 -0.3247 -0.0166 -1.2174
15949TIP3   OH269337   0.716   3.218  16.842 -0.1299  0.2558  0.0234
15949TIP3    H169338   0.740   3.166  16.919  1.4156  2.3097  1.0341
15949TIP3    H269339   0.772   3.186  16.772  1.2694  0.9239  0.8025
15950TIP3   OH269340   2.191   5.010  13.518  0.2684  0.2089  0.0592
15950TIP3    H169341   2.259   5.029  13.454 -0.3170  0.1184 -0.6022
15950TIP3    H269342   2.120   5.070  13.495  0.3854  0.7993  1.1766
15951TIP3   OH269343   0.670   5.496  15.301  0.3798  0.2822  0.7851
15951TIP3    H169344   0.577   5.495  15.324  0.2624  0.5120  0.3465
15951TIP3    H269345   0.674   5.552  15.223  0.7864 -0.2835  0.3907
15952TIP3   OH269346   1.345   1.624   3.207 -0.4204  0.3988  0.4758
15952TIP3    H169347   1.367   1.675   3.285 -1.9594  0.7811  0.6906
15952TIP3    H269348   1.253   1.642   3.192 -0.9866 -2.1979  0.4401
15953TIP3   OH269349   1.092   0.486   3.912  0.1097  0.2247  0.7232
15953TIP3    H169350   1.154   0.449   3.975  0.2460  0.7123  0.8814
15953TIP3    H269351   1.144   0.549   3.862  0.1235 -0.5137 -0.2162
15954TIP3   OH269352   3.035   6.453  12.042  0.2283  0.3434  0.4323
15954TIP3    H169353   3.109   6.393  12.040  0.8590  1.1109  0.3732
15954TIP3    H269354   3.060   6.520  12.106 -0.2643  0.8055  0.1488
15955TIP3   OH269355   0.813   6.164  10.297  0.5433 -0.6677  0.2268
15955TIP3    H169356   0.804   6.075  10.331  0.5980 -0.0849  1.8697
15955TIP3    H269357   0.728   6.204  10.312  0.4124 -0.5250 -0.8252
15956TIP3   OH269358   0.081   2.895  16.470 -0.1046 -0.2106  0.7664
15956TIP3    H169359   0.045   2.874  16.384  0.5272  0.5942  0.2879
15956TIP3    H269360   0.085   2.991  16.471 -1.3240 -0.1297  2.2011
15957TIP3   OH269361   1.279   5.140  16.613 -0.7192  0.2123 -0.1195
15957TIP3    H169362   1.254   5.141  16.705 -0.9270 -0.1444 -0.1708
15957TIP3    H269363   1.212   5.086  16.571 -1.1540  1.1320 -0.6340
15958TIP3   OH269364   5.622   5.081  11.615 -0.5148 -0.2335  0.0728
15958TIP3    H169365   5.643   5.172  11.634 -1.1935 -0.0072 -0.2339
15958TIP3    H269366   5.699   5.049  11.566 -0.7162  0.4852 -0.7429
15959TIP3   OH269367   4.298   1.947   4.528  0.0859 -0.4752  0.3646
15959TIP3    H169368   4.301   2.026   4.474  1.0112  1.9071  3.6026
15959TIP3    H269369   4.287   1.979   4.617  1.5686 -3.9720  2.0016
15960TIP3   OH269370   5.617   4.965   1.068 -0.0811 -0.1490  0.1799
15960TIP3    H169371   5.570   4.882   1.060  1.3145 -0.9619  0.0950
15960TIP3    H269372   5.610   5.005   0.982  0.2633 -0.7661 -0.1466
15961TIP3   OH269373   5.188   2.726   4.285 -0.1587 -0.6220 -1.0516
15961TIP3    H169374   5.210   2.689   4.199 -0.4771 -1.5576 -0.7496
15961TIP3    H269375   5.094   2.741   4.281 -0.2118 -0.8872 -0.7853
15962TIP3   OH269376   5.611   3.882  14.591  0.1323 -0.8048 -0.0136
15962TIP3    H169377   5.522   3.882  14.555  0.3270 -0.6259 -0.5132
15962TIP3    H269378   5.616   3.804  14.645 -0.2246 -0.9996 -0.2622
15963TIP3   OH269379   3.108   6.727  10.581 -0.1579  0.2093  0.1606
15963TIP3    H169380   3.079   6.674  10.506  1.6413 -0.8102  0.1298
15963TIP3    H269381   3.159   6.798  10.541  1.0326 -0.4874  0.3873
15964TIP3   OH269382   1.136   6.512   4.882  0.3289 -0.2481 -0.5009
15964TIP3    H169383   1.151   6.566   4.960  0.0046  0.0531 -0.6507
15964TIP3    H269384   1.108   6.427   4.917  2.3766 -0.8578 -0.1915
15965TIP3   OH269385   5.717   0.812   1.612  0.2951 -0.6705  0.0588
15965TIP3    H169386   5.701   0.880   1.547  0.5231 -0.7088 -0.0411
15965TIP3    H269387   5.777   0.751   1.569 -0.5378 -1.3680 -0.1379
15966TIP3   OH269388   3.000   6.032  12.076  0.2232  0.0600 -0.2828
15966TIP3    H169389   2.990   5.997  11.988  0.8426 -1.7486  0.3185
15966TIP3    H269390   3.061   6.105  12.066  1.4195 -1.0188 -1.1799
15967TIP3   OH269391   0.640   2.847  15.115 -0.2287 -0.2214  0.1776
15967TIP3    H169392   0.720   2.883  15.154  0.1268 -0.1983 -0.5558
15967TIP3    H269393   0.665   2.824  15.025 -1.1855  0.3265 -0.2516
15968TIP3   OH269394   2.715   3.279  12.992 -1.2835  0.2062  0.0453
15968TIP3    H169395   2.717   3.283  12.897 -1.5013 -2.0997 -0.1181
15968TIP3    H269396   2.633   3.233  13.012  0.5043 -2.8341  1.0795
15969TIP3   OH269397   5.456   2.694   3.487  0.6581  0.0284 -0.6807
15969TIP3    H169398   5.493   2.617   3.529 -1.7269 -0.9213 -0.1438
15969TIP3    H269399   5.361   2.683   3.496  0.1829  1.9717 -2.4864
15970TIP3   OH269400   5.205   5.577  12.094 -0.2340 -0.2381  0.3587
15970TIP3    H169401   5.221   5.529  12.175  0.4606  1.1247  1.0814
15970TIP3    H269402   5.159   5.656  12.122 -0.5246 -0.0262 -0.6610
15971TIP3   OH269403   0.961   0.851   0.611  0.4163 -1.1741 -0.1648
15971TIP3    H169404   1.035   0.792   0.627  0.9082 -0.3803  0.6161
15971TIP3    H269405   0.943   0.890   0.696 -1.0467 -1.4828 -0.3031
15972TIP3   OH269406   6.641   6.515   0.003 -0.5534 -0.0264 -0.3251
15972TIP3    H169407   6.705   6.471  -0.054 -0.4839  0.8143 -0.9037
15972TIP3    H269408   6.643   6.463   0.084 -0.0003 -0.7080 -0.7576
15973TIP3   OH269409   3.583   4.577   1.778  0.3842  0.2822 -0.2109
15973TIP3    H169410   3.615   4.491   1.754  1.2895  1.1171 -2.2356
15973TIP3    H269411   3.659   4.622   1.816 -0.0671  0.2263  0.7912
15974TIP3   OH269412   0.403   5.180   5.679 -0.3880  0.1155  0.5381
15974TIP3    H169413   0.492   5.174   5.645 -0.5595 -3.0762  0.3052
15974TIP3    H269414   0.348   5.149   5.607 -1.3493 -0.8879  1.6603
15975TIP3   OH269415   1.657   3.734   1.398  0.1074  0.2229 -0.1479
15975TIP3    H169416   1.611   3.812   1.369 -0.4435 -0.1783 -0.3725
15975TIP3    H269417   1.639   3.728   1.492 -1.2023 -0.5138 -0.4244
15976TIP3   OH269418   3.621   6.758   0.910  0.3713 -0.2318  0.2081
15976TIP3    H169419   3.675   6.702   0.966  0.7469 -2.9401 -2.6036
15976TIP3    H269420   3.666   6.758   0.825 -2.3898 -0.0128 -1.3877
15977TIP3   OH269421   3.318   4.150  15.513  0.5435 -0.1809  0.2738
15977TIP3    H169422   3.387   4.113  15.458  0.1936 -0.7578  0.2078
15977TIP3    H269423   3.237   4.134  15.464  0.3522  0.3888  0.4000
15978TIP3   OH269424   2.267   4.843  11.429  0.7167  0.3741 -0.5243
15978TIP3    H169425   2.305   4.757  11.446 -0.0711 -0.0448 -0.8283
15978TIP3    H269426   2.203   4.855  11.499  0.2675  0.3618 -0.9250
15979TIP3   OH269427   0.931   1.714  14.920 -0.5494  0.6851  0.4107
15979TIP3    H169428   0.939   1.810  14.925 -0.9747  0.7009  0.8837
15979TIP3    H269429   0.894   1.689  15.005  1.1229 -0.0713  0.9657
15980TIP3   OH269430   5.646   2.984  13.305 -0.4171 -0.6867 -0.2768
15980TIP3    H169431   5.614   3.074  13.294  0.3145 -0.3790  0.0351
15980TIP3    H269432   5.624   2.962  13.396  2.1653  0.3435  0.6784
15981TIP3   OH269433   1.484   2.235  12.515  0.7845  0.4359 -0.7718
15981TIP3    H169434   1.573   2.225  12.480  1.5324  2.7351  0.2521
15981TIP3    H269435   1.491   2.204  12.605  0.6832  1.0071 -0.5613
15982TIP3   OH269436   1.430   2.362   1.658  0.1951  0.3844 -0.1828
15982TIP3    H169437   1.383   2.393   1.580  0.0326  0.0768 -0.2075
15982TIP3    H269438   1.449   2.441   1.707 -0.2877  0.5190 -0.2071
15983TIP3   OH269439   0.715   4.649  15.253 -0.3576 -0.3867  0.4461
15983TIP3    H169440   0.737   4.674  15.342 -0.8009 -0.3004  0.5323
15983TIP3    H269441   0.796   4.611  15.218  0.0583  0.3290  0.6140
15984TIP3   OH269442   2.655   0.403  12.041  0.3507  0.6331 -0.8173
15984TIP3    H169443   2.596   0.445  11.979  0.1800 -1.1933 -1.9820
15984TIP3    H269444   2.601   0.382  12.117  0.0239  0.8827 -0.9818
15985TIP3   OH269445   1.333   5.463  13.901  0.2155  0.3689 -0.1570
15985TIP3    H169446   1.299   5.530  13.841 -0.1166  1.0648  0.7844
15985TIP3    H269447   1.275   5.468  13.977 -0.2481 -1.4876 -0.3509
15986TIP3   OH269448   0.340   6.134   4.949  0.3875  0.2339  0.1742
15986TIP3    H169449   0.277   6.155   5.018 -0.6292 -1.7177 -0.0625
15986TIP3    H269450   0.303   6.174   4.870  0.0747  0.1331  0.2680
15987TIP3   OH269451   4.091   3.513   4.784  0.3700  0.0343 -0.5192
15987TIP3    H169452   4.132   3.427   4.783 -0.1240 -0.2345  0.4889
15987TIP3    H269453   4.055   3.524   4.696 -0.7913 -1.4165 -0.2624
15988TIP3   OH269454   2.459   5.530  16.631 -0.0514 -0.2345  0.2251
15988TIP3    H169455   2.443   5.619  16.601  0.2695 -0.5904 -1.0566
15988TIP3    H269456   2.432   5.475  16.558  0.3885 -1.1647  0.7413
15989TIP3   OH269457   4.563   3.824   5.883  0.2715  0.3679 -0.8444
15989TIP3    H169458   4.527   3.912   5.889 -1.7422 -0.4561 -0.1992
15989TIP3    H269459   4.488   3.765   5.895  1.7674 -1.4464  0.3292
15990TIP3   OH269460   0.226   6.701   2.419  0.1154 -0.5911 -0.0564
15990TIP3    H169461   0.140   6.708   2.377  0.0888 -1.9473 -0.2718
15990TIP3    H269462   0.286   6.745   2.359 -0.2078 -0.9165 -0.6184
15991TIP3   OH269463   5.120   1.394   1.089 -0.2966 -0.3400 -0.5537
15991TIP3    H169464   5.051   1.443   1.135 -1.0792 -1.2106 -0.7733
15991TIP3    H269465   5.162   1.343   1.158 -1.3446 -1.4970 -0.7158
15992TIP3   OH269466   3.954   0.731   1.679 -0.5594 -0.1288  0.7306
15992TIP3    H169467   3.943   0.801   1.744 -0.3573  0.0568  0.5658
15992TIP3    H269468   4.048   0.727   1.664 -0.7239  0.9193 -0.7426
15993TIP3   OH269469   0.141   3.470   2.649  0.2777 -0.0709 -0.0570
15993TIP3    H169470   0.180   3.385   2.666 -1.1869 -1.5742 -3.2488
15993TIP3    H269471   0.215   3.526   2.625  0.9329 -2.1984 -3.7143
15994TIP3   OH269472   0.832   2.282  13.364 -0.0914  0.3827 -0.9098
15994TIP3    H169473   0.753   2.241  13.401  1.0165  0.3613  1.6734
15994TIP3    H269474   0.867   2.216  13.304  0.5164 -1.7696  1.5656
15995TIP3   OH269475   5.739   3.238   6.466 -0.1807  0.2614  0.1666
15995TIP3    H169476   5.822   3.190   6.465 -0.2076  0.1534  1.7533
15995TIP3    H269477   5.673   3.171   6.446 -0.0309  0.0152  0.4827
15996TIP3   OH269478   0.463   2.286  15.449 -0.2156 -0.3924  0.2609
15996TIP3    H169479   0.426   2.202  15.476 -2.1632  0.5131  0.6106
15996TIP3    H269480   0.461   2.283  15.353 -0.9527 -0.4895  0.2706
15997TIP3   OH269481   5.659   6.188  12.430 -0.2471  0.6403  0.1892
15997TIP3    H169482   5.710   6.164  12.507 -0.8849 -0.4247  0.3023
15997TIP3    H269483   5.626   6.276  12.449  0.6101  0.8832  0.5913
15998TIP3   OH269484   3.360   0.991   2.436  0.7240 -0.6567 -0.2486
15998TIP3    H169485   3.317   1.001   2.521 -1.6584  1.4541 -1.5685
15998TIP3    H269486   3.450   1.021   2.451  0.5901 -1.0855  1.6699
15999TIP3   OH269487   6.101   2.449  11.694 -0.2271 -0.2208 -0.4637
15999TIP3    H169488   6.043   2.458  11.619  1.1618 -1.6656 -1.7971
15999TIP3    H269489   6.051   2.398  11.758 -1.6124  1.4661 -0.1492
16000TIP3   OH269490   0.128   4.771   4.535  0.3423  0.0214 -0.0655
16000TIP3    H169491   0.100   4.861   4.553 -1.9325 -0.6271 -0.0336
16000TIP3    H269492   0.212   4.781   4.490 -0.7578  2.2994 -1.8925
16001TIP3   OH269493   0.476   6.372  12.152  0.4666 -0.2241  0.5106
16001TIP3    H169494   0.540   6.426  12.105  0.6189 -1.3890 -0.6655
16001TIP3    H269495   0.480   6.287  12.109 -2.8586  0.0063 -0.5042
16002TIP3   OH269496   1.068   0.877  13.025  0.0749  0.4949 -0.6376
16002TIP3    H169497   0.976   0.865  13.047 -0.0421 -0.1132 -1.4134
16002TIP3    H269498   1.071   0.869  12.930  0.7872  1.5321 -0.7187
16003TIP3   OH269499   0.637   2.016  11.678 -0.2821  0.2795 -0.1185
16003TIP3    H169500   0.585   1.936  11.665 -0.4521  0.1951  0.9549
16003TIP3    H269501   0.685   2.027  11.596  0.5803 -1.5487  0.0715
16004TIP3   OH269502   3.528   4.043   3.163  0.2696  0.1748  0.0602
16004TIP3    H169503   3.552   3.976   3.227 -2.1016 -0.2153  0.6515
16004TIP3    H269504   3.492   3.995   3.089 -0.2110  0.7533 -0.0907
16005TIP3   OH269505   2.060   6.793   6.321  0.1980 -0.3241  0.1490
16005TIP3    H169506   2.041   6.716   6.267  0.0867 -0.0192 -0.2502
16005TIP3    H269507   2.077   6.863   6.258 -0.3536  0.1420  0.5094
16006TIP3   OH269508   1.932   6.447   3.555 -0.6550 -0.1856  0.1527
16006TIP3    H169509   1.971   6.432   3.641 -0.6369 -1.9578 -0.1245
16006TIP3    H269510   1.935   6.542   3.543  4.1838 -0.1274 -0.1618
16007TIP3   OH269511   2.017   2.666  13.908 -0.0036  0.7614 -0.2039
16007TIP3    H169512   2.043   2.574  13.913 -0.3538  0.6621 -0.1957
16007TIP3    H269513   2.083   2.712  13.960 -0.3313  0.4112  0.5368
16008TIP3   OH269514   2.011   6.415   0.178 -0.5140 -0.3049  0.2743
16008TIP3    H169515   2.106   6.423   0.177 -0.5688  0.4541 -1.4490
16008TIP3    H269516   1.991   6.378   0.264  1.4662 -2.0818  0.0504
16009TIP3   OH269517   4.851   5.601   3.384 -0.1425 -0.0743 -0.0935
16009TIP3    H169518   4.933   5.560   3.415  0.3281  0.9556  0.0723
16009TIP3    H269519   4.867   5.618   3.291  0.9841  2.6867  0.5070
16010TIP3   OH269520   2.226   1.878   3.605 -0.1188  0.1896 -0.2109
16010TIP3    H169521   2.316   1.889   3.574  0.4740  1.0728  1.6554
16010TIP3    H269522   2.188   1.812   3.547  1.8007 -0.3522 -0.9153
16011TIP3   OH269523   2.155   5.133   6.430  0.1442 -0.3245 -0.3466
16011TIP3    H169524   2.089   5.194   6.464  0.3430 -1.3961  2.1709
16011TIP3    H269525   2.237   5.181   6.436  0.2361 -0.6309  1.1904
16012TIP3   OH269526   3.821   3.450   0.221 -0.1098  0.3743 -0.2499
16012TIP3    H169527   3.860   3.362   0.220  0.3977  0.5962 -0.4455
16012TIP3    H269528   3.784   3.461   0.134 -0.7124  0.1243 -0.0319
16013TIP3   OH269529   6.208   3.996   6.051 -0.1106 -0.3598 -0.4200
16013TIP3    H169530   6.262   3.968   6.125 -0.5535 -0.9354 -0.3062
16013TIP3    H269531   6.263   3.979   5.974 -0.0164 -0.6873 -0.2862
16014TIP3   OH269532   1.179   6.761   1.478 -0.8573 -0.0779 -0.3424
16014TIP3    H169533   1.232   6.798   1.408 -2.0886 -0.5459 -1.5739
16014TIP3    H269534   1.231   6.687   1.511 -0.8443 -0.7273 -1.7417
16015TIP3   OH269535   5.907   5.518  12.854 -0.1685  0.1269  0.1749
16015TIP3    H169536   5.819   5.482  12.853  0.0171 -0.3276 -0.0757
16015TIP3    H269537   5.961   5.449  12.892  0.4465 -0.4761 -1.6667
16016TIP3   OH269538   2.969   4.614   2.615 -0.0663 -0.2233  0.1538
16016TIP3    H169539   3.052   4.662   2.610 -0.2326  0.3470  2.1345
16016TIP3    H269540   2.911   4.659   2.554  0.9666 -0.4380 -1.0226
16017TIP3   OH269541   5.994   6.380   5.961  0.5046  0.3437 -0.1094
16017TIP3    H169542   5.916   6.405   6.010  0.3614  0.4123 -0.3708
16017TIP3    H269543   5.975   6.292   5.928  0.3185  0.5715 -0.6231
16018TIP3   OH269544   2.310   1.275  13.263  0.0587  0.1380  0.3766
16018TIP3    H169545   2.281   1.265  13.353 -0.0565  0.3789  0.3650
16018TIP3    H269546   2.291   1.190  13.222 -2.7343  0.9503 -0.2362
16019TIP3   OH269547   1.370   3.675  12.348 -0.7565  0.2493 -0.2241
16019TIP3    H169548   1.283   3.691  12.311 -1.0847  1.6558  1.0337
16019TIP3    H269549   1.359   3.597  12.402 -0.9635 -0.2007 -0.9061
16020TIP3   OH269550   6.111   0.753  10.623 -0.4170 -0.2431  0.2915
16020TIP3    H169551   6.069   0.819  10.567  0.5025  1.1667  1.1956
16020TIP3    H269552   6.069   0.671  10.598  0.0439  0.2721 -2.5715
16021TIP3   OH269553   0.836   3.243   3.677 -0.1351 -0.0329  0.0185
16021TIP3    H169554   0.919   3.198   3.693 -0.1042 -0.3696 -1.0367
16021TIP3    H269555   0.848   3.288   3.594 -1.1245 -0.3753 -0.3249
16022TIP3   OH269556   6.250   5.726  12.923  0.1173 -0.0898  0.1815
16022TIP3    H169557   6.203   5.743  13.004  0.2772  0.3138  0.1919
16022TIP3    H269558   6.341   5.713  12.950  0.4135  1.3522 -0.0532
16023TIP3   OH269559   5.452   3.834   0.094  0.3624 -0.1689  0.0243
16023TIP3    H169560   5.358   3.819   0.105  0.2906 -0.4294 -0.8727
16023TIP3    H269561   5.473   3.794   0.010  1.1814  0.3267 -0.0190
16024TIP3   OH269562   0.259   5.997   2.938 -0.1445  0.4084 -0.0614
16024TIP3    H169563   0.272   5.971   3.029  2.6641 -0.9454 -0.7419
16024TIP3    H269564   0.268   6.093   2.938  2.9740  0.2034  0.7366
16025TIP3   OH269565   3.481   3.211   0.311 -0.0136  0.0900 -0.3376
16025TIP3    H169566   3.572   3.218   0.342 -0.0270  2.1059 -0.5645
16025TIP3    H269567   3.448   3.130   0.349  0.8895  0.9203  2.4454
16026TIP3   OH269568   1.472   1.382   4.955 -0.3606 -0.6881 -0.1076
16026TIP3    H169569   1.382   1.350   4.958 -0.7079  0.2841  0.0675
16026TIP3    H269570   1.466   1.468   4.913  0.4220 -0.4038  0.3340
16027TIP3   OH269571   4.260   1.975   2.369  0.6305  0.2742  0.3669
16027TIP3    H169572   4.317   1.900   2.352  0.0934 -0.3877  1.4345
16027TIP3    H269573   4.176   1.950   2.331  0.6079  0.5862  0.2087
16028TIP3   OH269574   0.461   6.567   6.499  0.0537 -0.0700 -0.3735
16028TIP3    H169575   0.488   6.495   6.441  1.4799  0.7247 -0.7185
16028TIP3    H269576   0.535   6.627   6.500 -1.6987  2.2836 -1.4435
16029TIP3   OH269577   4.164   2.091   1.385 -0.3112  0.1543  0.2712
16029TIP3    H169578   4.143   2.013   1.335 -3.0417  1.9621 -1.6931
16029TIP3    H269579   4.110   2.084   1.464 -1.4416  0.5017 -0.4388
16030TIP3   OH269580   1.052   4.167  13.632  0.3977 -0.2069 -0.1943
16030TIP3    H169581   1.012   4.205  13.553  4.5511  0.3959 -2.3164
16030TIP3    H269582   1.067   4.242  13.689 -1.4495 -0.4621  0.6974
16031TIP3   OH269583   1.410   3.507  13.484 -0.1499  0.2273 -0.2231
16031TIP3    H169584   1.402   3.596  13.518 -0.5827 -0.0857  0.5172
16031TIP3    H269585   1.349   3.504  13.410  1.2065  1.0776 -1.4196
16032TIP3   OH269586   0.290   0.977   1.197  0.4214  0.7415 -0.0069
16032TIP3    H169587   0.238   0.913   1.149  0.3398  1.0381 -0.3212
16032TIP3    H269588   0.304   0.937   1.283  3.1416 -1.1696 -1.2029
16033TIP3   OH269589   6.319   6.082   0.237  0.0607 -0.3305 -0.1894
16033TIP3    H169590   6.326   6.054   0.328  2.0203  0.7070  0.0447
16033TIP3    H269591   6.269   6.013   0.194 -0.8216 -0.8818  1.6336
16034TIP3   OH269592   1.910   0.351  14.014  0.5103  0.0013 -0.3081
16034TIP3    H169593   1.815   0.352  14.008  0.1183  0.8384  3.6176
16034TIP3    H269594   1.935   0.441  14.034  1.6199 -0.8790  2.8045
16035TIP3   OH269595   1.585   5.942  11.654 -0.0958  0.3706 -0.0697
16035TIP3    H169596   1.497   5.958  11.687 -0.1201 -0.0726  0.1012
16035TIP3    H269597   1.640   5.945  11.732  0.0714  0.8518 -0.2039
16036TIP3   OH269598   0.898   3.664  16.601  0.3532 -0.3719  0.2862
16036TIP3    H169599   0.866   3.608  16.672  0.1781 -0.8981 -0.2006
16036TIP3    H269600   0.873   3.752  16.628  0.6665 -0.5161  1.0810
16037TIP3   OH269601   5.265   0.005   0.220  0.1511  0.0044  0.0328
16037TIP3    H169602   5.241  -0.018   0.309  0.5074 -0.5391 -0.0068
16037TIP3    H269603   5.278   0.100   0.222  1.1634 -0.1442  0.7977
16038TIP3   OH269604   0.585   3.330  17.114  0.0325 -0.1822 -0.2596
16038TIP3    H169605   0.556   3.338  17.023  2.9732 -1.2476 -1.4080
16038TIP3    H269606   0.552   3.245  17.142  2.4046 -1.7481 -1.8156
16039TIP3   OH269607   3.824   3.017   5.585  0.2315  0.1305  0.1738
16039TIP3    H169608   3.782   3.071   5.518  0.2952  0.6013  0.5129
16039TIP3    H269609   3.916   3.015   5.560  0.2464  0.2642  0.2162
16040TIP3   OH269610   0.145   6.099  13.021  0.0115 -0.7076 -0.3996
16040TIP3    H169611   0.194   6.113  13.102  0.9426 -1.9820 -0.7142
16040TIP3    H269612   0.099   6.182  13.007  0.4499 -0.1911  1.0070
16041TIP3   OH269613   3.545   4.386   3.521 -0.3543 -0.6024  0.3809
16041TIP3    H169614   3.495   4.448   3.574 -0.0035 -0.3727  0.4518
16041TIP3    H269615   3.610   4.351   3.582  1.9062  1.7272 -0.4829
16042TIP3   OH269616   1.019   6.804   2.482 -0.5048 -0.2020  0.3377
16042TIP3    H169617   1.103   6.762   2.467 -0.8394 -0.7164 -0.1423
16042TIP3    H269618   0.991   6.835   2.396  0.4565  2.4616  0.8828
16043TIP3   OH269619   1.278   0.863   4.759 -0.1370 -0.5374 -0.0186
16043TIP3    H169620   1.273   0.896   4.848 -1.5233 -0.0745 -0.2406
16043TIP3    H269621   1.369   0.877   4.733 -0.5650  3.1365 -0.0652
16044TIP3   OH269622   0.633   4.661  16.089 -0.6434  0.3939  0.1481
16044TIP3    H169623   0.672   4.726  16.031  0.9053 -0.3181  0.3325
16044TIP3    H269624   0.649   4.578  16.045  2.0828 -0.3552  2.2498
16045TIP3   OH269625   4.248   2.266   5.840 -0.2297 -0.4812 -0.1545
16045TIP3    H169626   4.171   2.222   5.875  0.2056 -1.0675  0.0817
16045TIP3    H269627   4.303   2.283   5.917  0.7690 -1.8472 -0.5366
16046TIP3   OH269628   1.128   1.552  12.908  0.3815 -0.3181  0.0148
16046TIP3    H169629   1.123   1.644  12.882  0.8910  0.1564  1.4901
16046TIP3    H269630   1.212   1.544  12.953  0.2748 -1.4719  0.0415
16047TIP3   OH269631   6.224   3.759   2.913  0.5514  0.2701 -0.0580
16047TIP3    H169632   6.273   3.765   2.995  1.1593  1.6800 -0.4857
16047TIP3    H269633   6.133   3.753   2.940  0.7603  0.5050  0.7328
16048TIP3   OH269634   6.378   1.388  10.694  0.4760 -0.0964 -0.0199
16048TIP3    H169635   6.425   1.331  10.632  1.0455 -1.7261  1.8165
16048TIP3    H269636   6.391   1.347  10.779 -1.6715  1.1504  1.0003
16049TIP3   OH269637   1.032   5.809   3.970 -0.2364  0.4741  0.3244
16049TIP3    H169638   0.973   5.798   4.044 -1.5257 -0.5069 -0.7981
16049TIP3    H269639   1.117   5.830   4.010 -0.8467 -0.1950  2.0711
16050TIP3   OH269640   1.352   6.716  15.247 -0.2583  0.1096 -0.2566
16050TIP3    H169641   1.323   6.790  15.193  2.5083  1.5794  0.1217
16050TIP3    H269642   1.424   6.677  15.198  0.5208 -0.2185  1.0970
16051TIP3   OH269643   1.506   1.569   4.720 -0.3258  0.0909  0.1464
16051TIP3    H169644   1.420   1.610   4.730 -0.2660  0.5098 -0.9077
16051TIP3    H269645   1.565   1.642   4.701  0.5275 -0.0236  2.0870
16052TIP3   OH269646   0.208   5.933   4.046  0.2507 -0.0784  0.5044
16052TIP3    H169647   0.258   6.011   4.024 -1.7398  0.7175 -1.5415
16052TIP3    H269648   0.227   5.872   3.975 -0.1493 -0.5150  0.7671
16053TIP3   OH269649   2.197   0.462  16.381  0.1449  0.4553  0.4682
16053TIP3    H169650   2.105   0.486  16.390  0.3926  1.6067  0.0602
16053TIP3    H269651   2.194   0.370  16.354 -0.9893  1.0414 -1.6500
16054TIP3   OH269652   0.412   3.867   1.694  0.5000  0.6213 -0.4798
16054TIP3    H169653   0.368   3.952   1.696  0.4307  0.6341  2.7410
16054TIP3    H269654   0.492   3.882   1.645  0.8048  2.7633  0.5810
16055TIP3   OH269655   5.484   0.519  11.087  0.2109  0.2212  0.2474
16055TIP3    H169656   5.465   0.425  11.090 -0.1103  0.3131  1.4418
16055TIP3    H269657   5.503   0.537  10.994 -0.6933 -0.8298 -0.1557
16056TIP3   OH269658   5.891   4.475   5.404  0.4222  0.7632 -0.1695
16056TIP3    H169659   5.807   4.436   5.379 -0.0556  0.6165  1.5192
16056TIP3    H269660   5.955   4.433   5.347 -0.0670 -2.4854  1.4474
16057TIP3   OH269661   6.019   3.732   5.915 -0.6138  0.0203 -0.0905
16057TIP3    H169662   6.107   3.744   5.950 -1.2946 -0.7959  2.0512
16057TIP3    H269663   6.023   3.647   5.871 -0.2092  0.2464 -0.5091
16058TIP3   OH269664   0.152   0.396  12.466  0.2224  0.6420  0.2184
16058TIP3    H169665   0.167   0.378  12.373  0.4178 -2.3335  0.7338
16058TIP3    H269666   0.236   0.429  12.498  0.8940 -0.6202 -0.1965
16059TIP3   OH269667   0.459   4.041   5.938 -0.2717 -0.3303  1.0160
16059TIP3    H169668   0.383   4.090   5.970  1.0971  0.9106  2.5537
16059TIP3    H269669   0.484   3.985   6.012  0.1529 -0.9395  0.4218
16060TIP3   OH269670   1.513   0.076  16.327 -0.1669 -0.0709 -0.5934
16060TIP3    H169671   1.593   0.038  16.293 -0.3509 -1.2002  0.1947
16060TIP3    H269672   1.530   0.170  16.329 -0.0787  0.0684 -3.5409
16061TIP3   OH269673   5.997   6.224   3.955 -0.0772  0.7868  0.5192
16061TIP3    H169674   6.078   6.271   3.974 -0.1073  0.0047  2.8736
16061TIP3    H269675   6.021   6.131   3.957 -0.6753  0.5821 -0.7259
16062TIP3   OH269676   3.379   0.080  15.123  0.6701  0.6364 -0.3099
16062TIP3    H169677   3.319   0.148  15.151  0.8486  0.1623  1.3321
16062TIP3    H269678   3.394   0.098  15.030 -2.4907  0.3763 -0.9742
16063TIP3   OH269679   5.594   6.582   0.129 -0.3537  0.3466 -0.5736
16063TIP3    H169680   5.681   6.600   0.093  0.1104 -1.1955 -0.3273
16063TIP3    H269681   5.612   6.527   0.206 -1.4589  1.5808  0.6163
16064TIP3   OH269682   2.863   5.361   4.957  0.2466 -0.1919 -0.7978
16064TIP3    H169683   2.820   5.426   5.012  1.9485  1.7030 -1.5716
16064TIP3    H269684   2.880   5.287   5.015 -0.3125  0.6912  0.5370
16065TIP3   OH269685   3.319   0.460  12.863  0.4175 -0.2110 -0.1697
16065TIP3    H169686   3.301   0.500  12.778  1.5542 -0.4043 -0.5171
16065TIP3    H269687   3.403   0.415  12.851  0.0978 -1.0901  0.7661
16066TIP3   OH269688   4.863   5.864  15.120  0.1190 -0.3334  0.0398
16066TIP3    H169689   4.804   5.805  15.167  0.3046  0.7573  1.7307
16066TIP3    H269690   4.809   5.902  15.051 -0.6928 -0.6320  0.5001
16067TIP3   OH269691   4.255   6.355   2.067  0.0948 -0.3446 -0.7069
16067TIP3    H169692   4.237   6.387   2.155 -0.1105 -1.8829 -0.1606
16067TIP3    H269693   4.350   6.361   2.058  0.2244 -1.1192  0.0182
16068TIP3   OH269694   0.444   0.253   1.497  0.2651 -0.3395 -0.0196
16068TIP3    H169695   0.524   0.272   1.447  0.3197 -0.7759 -0.1002
16068TIP3    H269696   0.409   0.174   1.456 -0.9283  0.5813 -0.8338
16069TIP3   OH269697   0.961   1.544   2.042 -0.3192 -0.2736  0.2140
16069TIP3    H169698   0.879   1.594   2.036 -0.8526 -0.8037  2.4137
16069TIP3    H269699   0.934   1.456   2.068  0.9829 -0.1911  2.0435
16070TIP3   OH269700   4.949   4.601  15.374  0.2008 -0.4490  0.0618
16070TIP3    H169701   4.979   4.511  15.362  4.5419  0.6794  0.6163
16070TIP3    H269702   4.878   4.595  15.437 -0.7719 -3.5624 -1.1794
16071TIP3   OH269703   6.198   6.362   3.367  0.2123  0.8085 -0.3721
16071TIP3    H169704   6.170   6.451   3.385  0.9886  0.7111  1.4479
16071TIP3    H269705   6.205   6.358   3.271  1.5069  3.1120 -0.4363
16072TIP3   OH269706   0.440   6.571   2.643  0.4791 -0.1035  0.7686
16072TIP3    H169707   0.498   6.634   2.599  1.1724  0.1345  1.9646
16072TIP3    H269708   0.453   6.588   2.736 -2.9034  1.1909  1.1264
16073TIP3   OH269709   0.519   4.166   0.516  0.3370  0.5483  0.5547
16073TIP3    H169710   0.518   4.131   0.427 -0.3882 -0.5137  0.9601
16073TIP3    H269711   0.606   4.204   0.526  0.4552  0.6027 -0.5761
16074TIP3   OH269712   4.490   4.176   0.155 -0.0140  0.0534  0.2082
16074TIP3    H169713   4.515   4.185   0.247 -0.7685  0.2835  0.3976
16074TIP3    H269714   4.532   4.251   0.111 -0.5191  0.5435  0.5538
16075TIP3   OH269715   6.036   5.298   1.178  0.1439  0.6606 -0.8101
16075TIP3    H169716   6.082   5.365   1.126  0.1289  1.1774 -0.1649
16075TIP3    H269717   6.078   5.216   1.154  1.8559  1.1844  0.2313
16076TIP3   OH269718   4.903   3.266   6.225 -0.3008 -0.2908 -0.3331
16076TIP3    H169719   4.943   3.291   6.309 -1.0372  0.5653 -0.2269
16076TIP3    H269720   4.977   3.264   6.164  0.2664 -1.0617  0.3506
16077TIP3   OH269721   5.395   3.555   5.565 -0.4264 -1.1709 -0.5625
16077TIP3    H169722   5.360   3.616   5.630 -0.3676 -1.3477 -0.3670
16077TIP3    H269723   5.404   3.608   5.486 -2.5086 -1.4377 -1.0505
16078TIP3   OH269724   6.375   4.758  14.309  0.0116  0.5355  0.2251
16078TIP3    H169725   6.338   4.803  14.386  1.5330 -0.3594  1.5346
16078TIP3    H269726   6.409   4.676  14.344  3.1097  1.2361 -0.8964
16079TIP3   OH269727   2.369   0.932  12.634 -0.2079  0.7556 -0.1416
16079TIP3    H169728   2.328   1.008  12.593 -0.1438  1.0565  0.3422
16079TIP3    H269729   2.328   0.856  12.592  1.3012  1.0300 -2.2075
16080TIP3   OH269730   4.336   4.291   2.904  0.1198  0.1409 -0.5239
16080TIP3    H169731   4.344   4.345   2.825 -1.3146  0.9458 -0.1570
16080TIP3    H269732   4.303   4.351   2.971  0.3991 -0.7507  0.4449
16081TIP3   OH269733   5.322   0.083  16.583 -0.1797  0.7004  0.2219
16081TIP3    H169734   5.374   0.034  16.519  0.3548  0.4979  0.8149
16081TIP3    H269735   5.305   0.167  16.540 -1.1614  0.0093 -0.8359
16082TIP3   OH269736   2.041   5.208   1.143  0.4323 -0.5529  0.2316
16082TIP3    H169737   1.953   5.201   1.105  1.2371 -0.1780 -1.8246
16082TIP3    H269738   2.070   5.117   1.152  0.0237 -0.6628  0.4635
16083TIP3   OH269739   5.652   4.940  16.406  0.9813 -0.1430  0.2214
16083TIP3    H169740   5.662   4.905  16.495  0.6851  0.1193  0.3626
16083TIP3    H269741   5.694   4.876  16.350  2.6268  0.4825  0.6873
16084TIP3   OH269742   1.329   1.449   0.501  0.3278  0.3250 -0.3489
16084TIP3    H169743   1.274   1.375   0.475 -0.5924 -0.0511  2.4113
16084TIP3    H269744   1.417   1.413   0.507 -0.0217 -0.4294  0.4178
16085TIP3   OH269745   3.335   0.539  11.816 -0.0291 -0.1671 -0.2801
16085TIP3    H169746   3.410   0.579  11.773 -0.5569 -0.5775 -1.6527
16085TIP3    H269747   3.373   0.477  11.878  0.8079  2.5634  2.1498
16086TIP3   OH269748   6.229   5.406  11.826 -0.4821  0.2959 -0.2992
16086TIP3    H169749   6.207   5.313  11.829  0.1235  0.1284 -0.7462
16086TIP3    H269750   6.298   5.417  11.891 -0.1029  0.2981 -0.6931
16087TIP3   OH269751   5.745   6.418  11.222  0.7759 -0.1487 -0.5880
16087TIP3    H169752   5.711   6.330  11.237  2.6977 -0.8312  0.0557
16087TIP3    H269753   5.678   6.476  11.257  0.1088 -1.4066  0.2891
16088TIP3   OH269754   2.034   0.048   1.242  0.0118  0.5373  0.3494
16088TIP3    H169755   2.087   0.090   1.310 -0.0009  0.3798  0.4571
16088TIP3    H269756   2.057   0.094   1.161 -1.4903  2.1370  0.7666
16089TIP3   OH269757   0.002   2.653  16.008  0.4694  0.0350 -0.1347
16089TIP3    H169758   0.004   2.576  16.064  0.3105  0.7752  0.9108
16089TIP3    H269759   0.085   2.697  16.023  0.3166  0.3784 -0.2822
16090TIP3   OH269760   1.423   4.356   4.745  0.1307  0.0037 -0.3445
16090TIP3    H169761   1.499   4.380   4.692  1.6426  0.4443  1.9033
16090TIP3    H269762   1.417   4.261   4.738  0.7343 -0.0095 -0.7038
16091TIP3   OH269763   4.656   5.134  16.486 -0.0380  0.2827  0.4917
16091TIP3    H169764   4.591   5.189  16.529 -0.0817 -0.3537  1.2450
16091TIP3    H269765   4.605   5.078  16.427  0.0358  1.2546 -0.5393
16092TIP3   OH269766   3.321   1.482   3.242 -0.1095 -0.1893  0.0406
16092TIP3    H169767   3.400   1.464   3.294  0.6532  2.1156 -0.1916
16092TIP3    H269768   3.249   1.451   3.297  0.9144 -2.1233  0.3639
16093TIP3   OH269769   6.572   5.201   0.207  0.2203  0.2168  0.1562
16093TIP3    H169770   6.478   5.217   0.207  0.0293 -0.8182  0.0187
16093TIP3    H269771   6.611   5.288   0.215 -0.7416  0.6560  0.2686
16094TIP3   OH269772   3.798   4.490  16.142  0.2902 -0.4640  0.6848
16094TIP3    H169773   3.864   4.436  16.186 -0.1952 -0.7640  1.0448
16094TIP3    H269774   3.849   4.542  16.079  0.8342 -0.9289  0.7252
16095TIP3   OH269775   4.916   6.413  16.209 -0.2080  0.3607  0.1394
16095TIP3    H169776   4.876   6.390  16.293  2.9229 -2.1074  1.1566
16095TIP3    H269777   4.874   6.354  16.146 -0.3962  0.0167  0.5772
16096TIP3   OH269778   5.594   5.125  16.867 -0.2631  0.0386  0.3108
16096TIP3    H169779   5.679   5.143  16.828 -0.8779 -0.3120 -1.2584
16096TIP3    H269780   5.541   5.089  16.795 -1.1061 -1.7220  1.7406
16097TIP3   OH269781   6.498   2.656  14.655 -0.5716  0.0632  0.2355
16097TIP3    H169782   6.592   2.670  14.646 -0.5964  0.5124  0.6167
16097TIP3    H269783   6.478   2.683  14.745 -0.6423 -2.3991  1.0262
16098TIP3   OH269784   0.345   2.104  12.064 -0.6532 -0.0314  0.1013
16098TIP3    H169785   0.398   2.047  12.008 -0.2968 -0.9266  1.3126
16098TIP3    H269786   0.397   2.184  12.074 -1.7336  1.1741 -2.7115
16099TIP3   OH269787   0.236   1.716  13.368 -0.0849  1.1539  0.1922
16099TIP3    H169788   0.301   1.729  13.437 -0.4778  0.1546  0.7642
16099TIP3    H269789   0.187   1.798  13.365 -0.4603  0.9862  1.5235
16100TIP3   OH269790   3.197   1.813  12.132  0.0754 -0.1383 -0.0403
16100TIP3    H169791   3.210   1.901  12.165 -2.4501  0.2737  0.0183
16100TIP3    H269792   3.121   1.780  12.179  0.3543 -1.9771 -0.7783
16101TIP3   OH269793   2.385   2.927   2.276 -0.3218 -0.3853 -0.4988
16101TIP3    H169794   2.334   3.008   2.270 -0.2822 -0.3351 -0.1882
16101TIP3    H269795   2.401   2.916   2.370  0.6562 -0.1439 -0.6266
16102TIP3   OH269796   5.439   4.232  11.702  0.5721  0.6050 -0.2357
16102TIP3    H169797   5.423   4.313  11.752 -2.5916  0.1162 -0.2080
16102TIP3    H269798   5.411   4.162  11.761  0.7539 -0.3083 -1.2022
16103TIP3   OH269799   4.321   1.671  15.636  0.3437  0.6680  0.0271
16103TIP3    H169800   4.308   1.765  15.621 -2.0859  1.0013  3.0884
16103TIP3    H269801   4.246   1.629  15.595 -0.3657  0.4853  1.4338
16104TIP3   OH269802   0.406   0.210  16.593 -0.1755 -0.5269  0.5550
16104TIP3    H169803   0.457   0.167  16.524 -0.3135  0.2724 -0.0700
16104TIP3    H269804   0.375   0.291  16.552  0.3470  0.3282  1.7942
16105TIP3   OH269805   1.981   3.691   1.426 -0.2546  0.3540  0.2127
16105TIP3    H169806   1.979   3.642   1.344  0.4757  0.4906  0.1058
16105TIP3    H269807   1.940   3.633   1.490 -0.3631  0.0374 -0.1418
16106TIP3   OH269808   1.966   5.943   2.978  0.1838  0.0997 -1.1664
16106TIP3    H169809   1.979   5.975   3.067  0.0878  0.6656 -1.3546
16106TIP3    H269810   2.054   5.933   2.943  0.2347 -0.5027 -0.8780
16107TIP3   OH269811   2.894   1.152  13.460  0.4226 -0.0455 -0.2961
16107TIP3    H169812   2.898   1.171  13.367 -2.0792  0.6064 -0.3315
16107TIP3    H269813   2.821   1.091  13.469  0.6757 -0.1644  1.2273
16108TIP3   OH269814   3.587   1.535  11.911  0.0303 -0.4107 -0.2675
16108TIP3    H169815   3.537   1.614  11.935 -0.0014 -0.7502  0.8475
16108TIP3    H269816   3.578   1.530  11.816 -2.5376 -0.7404 -0.0923
16109TIP3   OH269817   4.607   5.461   0.366  0.0039  0.2920  0.1453
16109TIP3    H169818   4.701   5.462   0.346 -0.4774  1.1998 -2.4411
16109TIP3    H269819   4.574   5.383   0.321 -0.6125  0.4127  0.3839
16110TIP3   OH269820   4.977   3.785  12.834 -0.1284  0.2751 -0.4938
16110TIP3    H169821   4.936   3.816  12.753 -0.4790  1.1413  0.0105
16110TIP3    H269822   5.067   3.816  12.829 -0.0318 -0.0371 -0.7412
16111TIP3   OH269823   2.735   6.401   4.343  0.4337  0.1231  0.2635
16111TIP3    H169824   2.771   6.455   4.413  0.6535 -1.7649  1.6603
16111TIP3    H269825   2.661   6.355   4.383 -1.3214  1.1519 -1.5538
16112TIP3   OH269826   5.964   4.166  12.125 -0.0489 -0.5150  0.2128
16112TIP3    H169827   6.004   4.234  12.071 -1.6789  0.2312 -0.0936
16112TIP3    H269828   5.911   4.213  12.188 -1.2560 -1.4871 -0.0466
16113TIP3   OH269829   5.626   5.630   1.794 -0.2357 -0.2291 -0.2312
16113TIP3    H169830   5.704   5.674   1.826 -0.1650 -1.3180  1.2280
16113TIP3    H269831   5.554   5.676   1.837 -0.6486  2.1444 -3.1779
16114TIP3   OH269832   1.692   6.785   5.279  0.5304 -0.1110  0.5931
16114TIP3    H169833   1.690   6.721   5.350  3.0402 -0.8159  0.1284
16114TIP3    H269834   1.665   6.736   5.201  0.7592 -0.1388  0.5315
16115TIP3   OH269835   1.421   1.287  11.458  0.1268 -0.0576  0.4557
16115TIP3    H169836   1.397   1.270  11.367 -0.8315 -1.4078  0.9176
16115TIP3    H269837   1.512   1.316  11.454  0.2391 -0.5098 -0.8948
16116TIP3   OH269838   3.243   5.443  15.978 -0.0522 -0.0472 -0.2759
16116TIP3    H169839   3.279   5.381  15.914  0.6832 -1.6052  1.5402
16116TIP3    H269840   3.157   5.409  15.999 -0.6882  0.9950 -1.0698
16117TIP3   OH269841   0.800   1.850  13.735 -0.1091  0.0144  0.4961
16117TIP3    H169842   0.866   1.913  13.764 -1.0916  2.0387 -1.3476
16117TIP3    H269843   0.718   1.881  13.773 -0.6197 -0.0809 -0.4854
16118TIP3   OH269844   0.812   5.294  16.731  0.1822  0.3481 -0.4649
16118TIP3    H169845   0.721   5.309  16.757  0.6093  0.1525  1.2545
16118TIP3    H269846   0.858   5.373  16.759  0.4806  0.6865 -1.8229
16119TIP3   OH269847   3.088   5.778  11.243 -0.4529  0.5925  0.6562
16119TIP3    H169848   3.143   5.854  11.262 -1.0825  1.3371 -0.4198
16119TIP3    H269849   3.028   5.773  11.318  0.9277 -0.1208  1.7493
16120TIP3   OH269850   4.622   6.319   0.563  0.2186 -0.0982  0.3187
16120TIP3    H169851   4.634   6.412   0.542  0.5129  0.2749  2.0223
16120TIP3    H269852   4.698   6.295   0.615 -0.4462 -0.9743  0.9291
16121TIP3   OH269853   6.427   1.481   0.922  0.2496 -0.2714 -0.0461
16121TIP3    H169854   6.467   1.563   0.950  3.1012 -1.6238  0.2420
16121TIP3    H269855   6.467   1.463   0.836  0.3905 -1.7564  0.2947
16122TIP3   OH269856   1.550   1.155  14.454  0.3885 -0.0138 -0.1879
16122TIP3    H169857   1.569   1.244  14.485  0.5804 -0.9869  2.7818
16122TIP3    H269858   1.620   1.102  14.490  0.0973 -1.4656 -1.6457
16123TIP3   OH269859   1.330   6.639  10.967  0.1905 -0.0419 -0.1861
16123TIP3    H169860   1.338   6.733  10.948  0.3524 -0.0377 -0.0996
16123TIP3    H269861   1.420   6.606  10.962  0.0115 -0.4005 -1.2984
16124TIP3   OH269862   3.238   1.562   0.787 -0.1084 -0.1574 -0.5077
16124TIP3    H169863   3.203   1.645   0.820  1.9815  1.2651 -1.6419
16124TIP3    H269864   3.258   1.579   0.695  0.7312 -1.8022 -0.6674
16125TIP3   OH269865   3.983   6.188   3.780  0.1291 -0.1021 -0.0439
16125TIP3    H169866   4.011   6.155   3.866  1.1741  0.2443 -0.2370
16125TIP3    H269867   3.888   6.176   3.780  0.3123 -1.8522  0.4232
16126TIP3   OH269868   1.207   4.382   6.328  0.2499  0.0002  0.4034
16126TIP3    H169869   1.127   4.422   6.363  0.4809  2.1715 -1.3143
16126TIP3    H269870   1.276   4.445   6.348  1.4568 -1.5293  1.2647
16127TIP3   OH269871   6.032   3.470  16.084  0.5690 -0.0686 -0.3676
16127TIP3    H169872   6.060   3.407  16.151 -0.7714  0.4000  0.6929
16127TIP3    H269873   5.977   3.420  16.024 -1.3340  0.2200  1.0402
16128TIP3   OH269874   6.317   5.756  15.127  0.0579  0.4833  0.4277
16128TIP3    H169875   6.345   5.671  15.160  1.7037  0.4647 -0.8585
16128TIP3    H269876   6.222   5.750  15.124  0.0205 -0.5638  2.2348
16129TIP3   OH269877   4.464   5.806  12.559  0.2396 -0.4576  0.0517
16129TIP3    H169878   4.411   5.884  12.540 -1.1987 -1.6030 -0.8215
16129TIP3    H269879   4.451   5.749  12.483 -0.1076 -2.2644  1.3939
16130TIP3   OH269880   0.633   1.610   4.143  0.1150  0.0695  0.4399
16130TIP3    H169881   0.696   1.553   4.186  0.0576 -1.0393 -0.8638
16130TIP3    H269882   0.601   1.558   4.069 -0.0196  1.7389 -0.7380
16131TIP3   OH269883   4.584   4.835   5.351 -0.2582 -0.3149 -0.6547
16131TIP3    H169884   4.665   4.821   5.400 -0.2983 -0.8249 -0.7227
16131TIP3    H269885   4.613   4.852   5.261 -0.1168  2.0384 -0.2142
16132TIP3   OH269886   0.591   0.402  14.302 -0.4661 -0.0646 -0.1486
16132TIP3    H169887   0.637   0.320  14.283  1.2528  0.5468  1.1363
16132TIP3    H269888   0.598   0.411  14.397  0.5182  2.1981 -0.3877
16133TIP3   OH269889   5.655   0.353  15.775 -0.1231  0.0242  0.0878
16133TIP3    H169890   5.571   0.397  15.759  0.6638  1.4096 -0.4275
16133TIP3    H269891   5.637   0.260  15.761 -0.9932  0.5154 -2.5176
16134TIP3   OH269892   0.224   5.832  13.367 -0.2053 -0.0766  0.4458
16134TIP3    H169893   0.149   5.890  13.384  0.2581  0.3225  1.1850
16134TIP3    H269894   0.288   5.889  13.325  0.1478 -0.1178  0.9254
16135TIP3   OH269895   6.808   1.646  16.135 -0.1020  0.5515  0.2039
16135TIP3    H169896   6.713   1.656  16.121 -0.2422 -0.9693 -0.2159
16135TIP3    H269897   6.831   1.568  16.083  1.5220  1.3030 -0.2690
16136TIP3   OH269898   0.060   4.055  16.781  0.0469  0.0586  0.0220
16136TIP3    H169899  -0.009   4.114  16.809  0.8177  0.9864  0.0154
16136TIP3    H269900   0.088   4.090  16.696 -0.7522 -1.4165 -0.8979
16137TIP3   OH269901   5.313   6.642   2.777 -0.6027  0.2823  0.5072
16137TIP3    H169902   5.327   6.737   2.777  1.0957  0.0761  0.5405
16137TIP3    H269903   5.371   6.610   2.847 -1.3724 -0.7559  0.6927
16138TIP3   OH269904   3.193   6.209  13.385 -0.2273  0.0186 -0.0834
16138TIP3    H169905   3.259   6.263  13.428  0.0286 -0.5795  0.2776
16138TIP3    H269906   3.243   6.145  13.334 -0.5173  0.7898 -1.3972
16139TIP3   OH269907   1.464   1.326   1.137  0.5046 -0.3081 -0.0728
16139TIP3    H169908   1.439   1.377   1.060  1.2891 -0.7599 -0.6498
16139TIP3    H269909   1.560   1.325   1.134  0.5585 -0.1249  1.0577
16140TIP3   OH269910   4.273   1.711  13.549  0.3183 -0.0339  0.3201
16140TIP3    H169911   4.294   1.659  13.472  0.3194  2.1034 -1.2313
16140TIP3    H269912   4.298   1.800  13.525 -1.0530  0.9592  2.2537
16141TIP3   OH269913   5.977   0.898   3.812 -0.0938  0.9910 -0.3179
16141TIP3    H169914   6.021   0.869   3.892  1.0397  2.1254 -0.4891
16141TIP3    H269915   5.887   0.869   3.822  0.1509  0.6485  1.1341
16142TIP3   OH269916   3.051   2.422  12.506  0.1549  0.8956 -0.3359
16142TIP3    H169917   3.005   2.341  12.488  1.2144  0.6809 -2.4035
16142TIP3    H269918   2.983   2.490  12.502 -0.3139  0.3935 -1.4874
16143TIP3   OH269919   4.570   3.055   4.804  0.0159 -0.0864  0.3109
16143TIP3    H169920   4.502   3.009   4.755  0.6368  0.1772 -0.8207
16143TIP3    H269921   4.538   3.055   4.895 -0.6317 -1.5284  0.1030
16144TIP3   OH269922   4.498   2.456  14.122 -0.7494 -0.0823 -0.1586
16144TIP3    H169923   4.520   2.546  14.144 -0.6677  0.0804 -0.8754
16144TIP3    H269924   4.405   2.448  14.144 -1.0290  0.4983 -1.0608
16145TIP3   OH269925   0.629   3.658  14.933  0.5459  0.3927  0.3319
16145TIP3    H169926   0.547   3.666  14.981  0.6833  1.4226  0.4244
16145TIP3    H269927   0.662   3.571  14.956  0.0793  0.4474  1.2605
16146TIP3   OH269928   2.269   5.586   0.854  0.1461  0.1974 -0.0600
16146TIP3    H169929   2.270   5.682   0.851  0.1567  0.3159  2.1161
16146TIP3    H269930   2.192   5.565   0.908  1.0292 -0.9403  0.8108
16147TIP3   OH269931   2.965   1.652  10.898 -0.2576  0.0619  0.5146
16147TIP3    H169932   2.889   1.706  10.919 -0.5071 -0.4957  1.0972
16147TIP3    H269933   2.928   1.566  10.876  0.1418  0.0768 -0.2516
16148TIP3   OH269934   1.192   0.058   1.740 -0.2937  0.4019 -0.4249
16148TIP3    H169935   1.154   0.019   1.661 -1.3705 -0.1972  0.3547
16148TIP3    H269936   1.285   0.068   1.719  0.5827 -4.3676 -0.1271
16149TIP3   OH269937   6.382   4.389  16.307  0.0194 -0.4760 -0.7382
16149TIP3    H169938   6.413   4.384  16.217  2.6091  1.5331 -0.0830
16149TIP3    H269939   6.451   4.347  16.359  1.7804  3.7254  0.7539
16150TIP3   OH269940   1.795   5.766   1.959 -0.1060 -0.2017  0.3944
16150TIP3    H169941   1.885   5.759   1.991 -0.2289  1.5521  1.2410
16150TIP3    H269942   1.763   5.848   1.996 -1.8533 -0.4762 -0.4193
16151TIP3   OH269943   5.401   6.644   1.528 -0.1021  0.0835 -0.1861
16151TIP3    H169944   5.314   6.684   1.541 -0.4355 -0.8595  0.5939
16151TIP3    H269945   5.396   6.606   1.441 -0.7776 -0.6840  0.1760
16152TIP3   OH269946   2.388   3.175  16.297  0.4474 -0.1807  0.1460
16152TIP3    H169947   2.344   3.202  16.378 -0.2754 -0.7582 -0.0381
16152TIP3    H269948   2.406   3.257  16.250 -0.7602  0.0536  0.0678
16153TIP3   OH269949   4.442   2.645  13.381 -0.1904  0.0487  0.5496
16153TIP3    H169950   4.383   2.605  13.317  1.4200  1.2006 -1.8046
16153TIP3    H269951   4.420   2.738  13.378  1.7027  0.5278 -0.4871
16154TIP3   OH269952   3.711   3.903   2.781 -0.1392 -0.1772  0.0317
16154TIP3    H169953   3.676   3.910   2.692  0.0520  0.0883 -0.0239
16154TIP3    H269954   3.726   3.993   2.808  0.1047 -0.2709  0.2141
16155TIP3   OH269955   4.512   1.186   0.188 -0.7437 -0.5683  0.0887
16155TIP3    H169956   4.576   1.164   0.256 -0.6086 -1.6006 -0.3631
16155TIP3    H269957   4.535   1.276   0.162  0.7039 -1.0117 -0.2590
16156TIP3   OH269958   0.421   2.503  16.368  0.1587 -0.5212  0.9205
16156TIP3    H169959   0.444   2.413  16.389 -0.0120 -1.2451 -1.6380
16156TIP3    H269960   0.502   2.541  16.333 -0.0661 -0.0470  0.9068
16157TIP3   OH269961   3.443   6.276  14.743 -0.0095  0.5408  0.4731
16157TIP3    H169962   3.463   6.341  14.676 -0.0701  0.6559  0.5670
16157TIP3    H269963   3.526   6.256  14.785  0.9308 -2.6422 -2.4048
16158TIP3   OH269964   2.848   6.630   3.303 -0.4282 -0.1234  0.2978
16158TIP3    H169965   2.778   6.569   3.277 -0.4754 -0.4423  1.1406
16158TIP3    H269966   2.805   6.715   3.308 -0.3947 -0.0338 -0.7486
16159TIP3   OH269967   2.349   4.670  13.447 -0.1630 -0.6047  0.0024
16159TIP3    H169968   2.284   4.727  13.407  1.2160  1.5310  0.6601
16159TIP3    H269969   2.375   4.715  13.527  0.2199 -2.7065  1.1393
16160TIP3   OH269970   6.341   6.788  16.307  0.1894  0.1026  0.4238
16160TIP3    H169971   6.374   6.791  16.396 -2.2760  3.2211  1.4009
16160TIP3    H269972   6.252   6.755  16.315 -0.3669  1.2182 -0.6971
16161TIP3   OH269973   3.245   5.111   0.948 -0.0916  0.2882  0.0309
16161TIP3    H169974   3.213   5.186   0.897 -0.4950  1.0786  1.3884
16161TIP3    H269975   3.337   5.131   0.965 -0.0878  0.2662  0.0369
16162TIP3   OH269976   3.022   6.671  10.285  0.1792 -0.3270  0.0631
16162TIP3    H169977   3.075   6.607  10.331 -0.7284 -0.1329  1.4284
16162TIP3    H269978   2.948   6.687  10.343 -0.3620  0.8617 -0.9160
16163TIP3   OH269979   3.107   5.960   4.853  0.3980  0.3144 -0.0445
16163TIP3    H169980   3.114   5.982   4.760  1.5463  0.3155  0.0187
16163TIP3    H269981   3.124   5.866   4.857  1.4358  0.4964  0.2467
16164TIP3   OH269982   3.641   1.985   4.651  0.2622  0.2311 -0.3257
16164TIP3    H169983   3.714   2.044   4.632  0.0665  0.3646 -0.6776
16164TIP3    H269984   3.621   1.999   4.743  0.3609  0.5544 -0.3545
16165TIP3   OH269985   3.788   1.813   3.972 -0.0341 -0.5062 -0.1778
16165TIP3    H169986   3.713   1.872   3.980  1.3417  1.3510 -0.2804
16165TIP3    H269987   3.829   1.815   4.059  0.0881 -1.2401 -0.2143
16166TIP3   OH269988   3.353   4.691   6.021 -0.3701  0.4695 -0.3508
16166TIP3    H169989   3.375   4.724   6.108 -1.1226  0.1685 -0.0420
16166TIP3    H269990   3.270   4.734   6.000 -1.2891 -1.0536 -0.0148
16167TIP3   OH269991   6.036   5.966  16.258  0.2783  0.2798  0.4553
16167TIP3    H169992   5.981   6.042  16.272  0.1561  0.1265  0.8026
16167TIP3    H269993   6.014   5.936  16.170  2.3382  2.3138 -0.8662
16168TIP3   OH269994   6.091   4.916  17.180  0.1020 -0.1315  0.7554
16168TIP3    H169995   6.166   4.858  17.168  0.2924  0.7054 -3.1099
16168TIP3    H269996   6.015   4.859  17.172  0.2990 -0.3067  0.1216
16169TIP3   OH269997   0.127   6.073  15.226  0.1354  0.2733 -0.2561
16169TIP3    H169998   0.146   5.979  15.216  0.4455  0.1182  1.4069
16169TIP3    H269999   0.212   6.115  15.217 -0.0494  0.4426 -1.3105
16170TIP3   OH270000   5.260   6.356   0.904 -0.0736 -0.1714 -0.4453
16170TIP3    H170001   5.238   6.348   0.997 -2.0351 -1.6381 -0.9648
16170TIP3    H270002   5.245   6.269   0.869  3.3070 -0.3821 -1.6750
16171TIP3   OH270003   6.114   3.260  16.296 -0.1853  0.1898 -0.0666
16171TIP3    H170004   6.191   3.310  16.323  0.0157 -0.1177 -0.0732
16171TIP3    H270005   6.145   3.203  16.226 -0.7318  1.0510 -1.0351
16172TIP3   OH270006   2.772   3.103  11.628 -0.4171  0.2976 -0.1000
16172TIP3    H170007   2.832   3.177  11.626  1.3681 -1.0770 -0.5207
16172TIP3    H270008   2.751   3.092  11.721  1.2515 -0.1189  0.2588
16173TIP3   OH270009   0.558   0.884  16.968  0.7777  0.0390  0.4488
16173TIP3    H170010   0.507   0.959  16.998  1.6473  1.2382 -0.9918
16173TIP3    H270011   0.650   0.912  16.975  1.1159 -0.8396 -0.2481
16174TIP3   OH270012   1.659   5.770   5.775  0.2262 -0.3096  0.5451
16174TIP3    H170013   1.658   5.815   5.859  0.8851  0.0599  0.3617
16174TIP3    H270014   1.752   5.759   5.754  0.0919  0.4717 -0.5835
16175TIP3   OH270015   4.240   0.210   2.000  0.2402  0.0263  0.3058
16175TIP3    H170016   4.194   0.132   1.969  2.4034 -1.7612  1.3246
16175TIP3    H270017   4.207   0.224   2.089  2.8100 -2.4795  1.8438
16176TIP3   OH270018   1.429   5.163  17.110 -0.4846 -0.2694  0.3358
16176TIP3    H170019   1.403   5.072  17.099  0.5352 -0.3374 -1.9395
16176TIP3    H270020   1.401   5.185  17.199 -1.9946 -2.3643  0.4529
16177TIP3   OH270021   0.554   4.082  13.368  0.2726 -0.1965  0.5299
16177TIP3    H170022   0.609   4.150  13.329 -0.2482 -0.2253 -0.2819
16177TIP3    H270023   0.585   4.000  13.330 -2.0550  0.0103 -2.1598
16178TIP3   OH270024   2.849   0.056  15.165  0.2421  0.2329 -0.8716
16178TIP3    H170025   2.865   0.084  15.075  2.0022 -0.5683 -0.8488
16178TIP3    H270026   2.756   0.076  15.180  0.6174  3.0864 -1.8375
16179TIP3   OH270027   4.625   0.518   5.779  0.2303 -0.7256 -0.0822
16179TIP3    H170028   4.599   0.437   5.735 -0.5588  0.0381 -1.0632
16179TIP3    H270029   4.551   0.577   5.766  0.9028  0.2434  0.3945
16180TIP3   OH270030   6.021   3.276   1.563 -0.3075  0.1203  0.4707
16180TIP3    H170031   5.997   3.359   1.605 -1.3581 -0.2299  0.5851
16180TIP3    H270032   6.037   3.216   1.636  1.9111  0.5892  0.4209
16181TIP3   OH270033   0.096   0.237   5.567  0.0134 -0.3225  0.2565
16181TIP3    H170034   0.063   0.318   5.530  1.1457  1.2198  2.3975
16181TIP3    H270035   0.174   0.217   5.515  0.2858  0.5238  0.3300
16182TIP3   OH270036   0.584   4.346  12.135 -0.3152 -0.2590  0.0264
16182TIP3    H170037   0.627   4.284  12.194 -0.0675 -0.7226 -0.6366
16182TIP3    H270038   0.632   4.428  12.147  1.3035 -0.9526 -1.2694
16183TIP3   OH270039   1.514   6.097  14.657  0.4639  0.1361 -0.4796
16183TIP3    H170040   1.534   6.158  14.586  1.5074  1.1336  0.6186
16183TIP3    H270041   1.499   6.154  14.733  1.1520 -0.9567  0.5057
16184TIP3   OH270042   2.102   1.953   1.098  0.2226  0.5729 -0.5566
16184TIP3    H170043   2.101   1.963   1.003 -2.0302 -1.3396 -0.8139
16184TIP3    H270044   2.011   1.937   1.121  0.8858 -0.0964  1.8171
16185TIP3   OH270045   4.399   5.548   1.608  0.1899  0.2474 -0.2557
16185TIP3    H170046   4.346   5.620   1.575  0.4506  0.8659  0.6484
16185TIP3    H270047   4.457   5.588   1.673  1.8136 -0.3820 -1.2438
16186TIP3   OH270048   0.833   0.048   2.662 -0.2210 -0.2758 -0.1341
16186TIP3    H170049   0.857   0.134   2.696  0.2736 -0.9234  1.2533
16186TIP3    H270050   0.909   0.019   2.612  0.1825 -0.4828  0.5837
16187TIP3   OH270051   5.003   5.227  14.231 -0.3650 -0.2226 -0.4564
16187TIP3    H170052   4.936   5.207  14.165  0.0358 -0.2570 -0.8536
16187TIP3    H270053   5.085   5.196  14.193 -0.0432  0.2668 -0.1791
16188TIP3   OH270054   0.609   1.603   2.610  0.1876 -0.0805 -0.3760
16188TIP3    H170055   0.612   1.698   2.613 -0.6228  0.1188 -2.8444
16188TIP3    H270056   0.684   1.574   2.662  0.3126  1.8711  0.6103
16189TIP3   OH270057   4.524   3.077   2.076  0.1807  0.1603  0.0455
16189TIP3    H170058   4.536   3.171   2.092 -0.5529  0.2288  0.2037
16189TIP3    H270059   4.467   3.048   2.147  0.0694 -0.3221 -0.2417
16190TIP3   OH270060   4.938   0.581  16.086  0.2527  0.0521  0.2605
16190TIP3    H170061   4.993   0.656  16.061  0.0804  0.7281  1.7990
16190TIP3    H270062   4.849   0.615  16.084 -0.1170 -0.8955 -1.6862
16191TIP3   OH270063   0.758   5.393  14.943  0.1478  0.1160  0.4929
16191TIP3    H170064   0.670   5.430  14.930  0.0609 -0.6070 -1.2827
16191TIP3    H270065   0.745   5.317  14.999 -0.0774  1.0240  1.7216
16192TIP3   OH270066   3.723   2.830   0.615  0.1903 -0.2705  0.6334
16192TIP3    H170067   3.707   2.736   0.605  2.8159 -0.7636  0.2992
16192TIP3    H270068   3.786   2.851   0.546  0.6975  1.4461  1.5558
16193TIP3   OH270069   4.928   6.579   1.581 -0.4768 -0.0893  0.1766
16193TIP3    H170070   4.979   6.548   1.656  0.9598 -1.0162 -1.1223
16193TIP3    H270071   4.892   6.663   1.610 -0.0074 -0.4476  1.9138
16194TIP3   OH270072   0.797   1.204  12.689  0.1576  0.4232  0.4740
16194TIP3    H170073   0.885   1.228  12.660  0.3479 -3.2346 -2.8942
16194TIP3    H270074   0.810   1.124  12.741 -1.1272 -0.3265 -0.3070
16195TIP3   OH270075   0.623   0.092  13.753  0.1712 -0.0366 -0.0779
16195TIP3    H170076   0.634   0.175  13.799  1.2718  0.6633 -1.5567
16195TIP3    H270077   0.549   0.106  13.694  1.3093  0.4441 -1.4441
16196TIP3   OH270078   4.928   3.098  11.139 -0.0421 -0.3026  0.4352
16196TIP3    H170079   4.859   3.126  11.079  0.2602  0.0589  0.2510
16196TIP3    H270080   4.923   3.159  11.212 -0.7058 -1.0209  1.0012
16197TIP3   OH270081   6.350   3.398  11.729 -0.0145  1.2951 -0.0000
16197TIP3    H170082   6.291   3.333  11.690 -1.7579  1.5672  1.9862
16197TIP3    H270083   6.296   3.477  11.738  1.0686  1.9823  0.6680
16198TIP3   OH270084   3.209   4.489   3.445 -0.9736 -0.1323  0.1252
16198TIP3    H170085   3.142   4.429   3.412 -1.4048  0.1401  0.4889
16198TIP3    H270086   3.187   4.500   3.538  1.2916 -2.3684  1.0581
16199TIP3   OH270087   5.688   4.294   5.329  0.0119 -0.8100  0.0205
16199TIP3    H170088   5.654   4.217   5.374  0.1945 -1.2697 -0.5997
16199TIP3    H270089   5.620   4.317   5.266 -0.1018 -0.3779  0.3022
16200TIP3   OH270090   4.846   0.446   0.039 -0.2044 -0.1320  0.3093
16200TIP3    H170091   4.860   0.353   0.051  2.9203  0.4298  1.9828
16200TIP3    H270092   4.843   0.482   0.128 -0.8217  1.4422 -0.2984
16201TIP3   OH270093   2.621   4.397  11.841 -0.1291 -0.1554  0.5543
16201TIP3    H170094   2.546   4.362  11.792  0.7842 -0.6637 -0.5215
16201TIP3    H270095   2.582   4.432  11.922 -1.3068 -2.0613  0.8822
16202TIP3   OH270096   2.608   3.011  12.264  0.2417  0.2044 -0.7500
16202TIP3    H170097   2.590   2.959  12.185 -1.3733 -0.3890 -0.0297
16202TIP3    H270098   2.593   3.101  12.237 -0.8901 -0.0445 -0.9753
16203TIP3   OH270099   6.602   2.279  11.602  0.4035  0.0120  0.6920
16203TIP3    H170100   6.603   2.192  11.563  1.2117  1.1159 -1.9652
16203TIP3    H270101   6.509   2.302  11.608  0.2608 -0.2085 -0.5752
16204TIP3   OH270102   4.795   2.015   0.493  0.3175  0.0987  0.4019
16204TIP3    H170103   4.840   2.029   0.576  0.0741  1.9188  0.2820
16204TIP3    H270104   4.824   2.088   0.438  0.2567 -0.9089 -1.0255
16205TIP3   OH270105   6.368   5.827   1.178 -0.1688 -0.0095 -0.0531
16205TIP3    H170106   6.419   5.873   1.112 -0.4436  1.3519  0.6518
16205TIP3    H270107   6.349   5.893   1.244 -2.8954 -0.4204 -0.3075
16206TIP3   OH270108   5.031   0.248  13.519  0.0357 -0.5661  0.2595
16206TIP3    H170109   5.090   0.303  13.571 -0.2142  0.4405 -0.4962
16206TIP3    H270110   5.085   0.217  13.446 -0.2294 -0.0424 -0.1651
16207TIP3   OH270111   6.236   1.558  16.476 -0.3360  0.8240 -0.3756
16207TIP3    H170112   6.224   1.611  16.555 -3.0026  1.0332 -0.8207
16207TIP3    H270113   6.323   1.518  16.487 -0.0067  1.9774  1.9425
16208TIP3   OH270114   3.078   0.035   4.109  1.4550 -0.1342  0.3454
16208TIP3    H170115   3.061  -0.039   4.052  0.8079 -1.7534  2.4977
16208TIP3    H270116   3.013   0.100   4.085  0.2474 -1.3649  0.1964
16209TIP3   OH270117   3.083   2.858   1.784 -0.1652  0.0773 -0.2465
16209TIP3    H170118   3.081   2.763   1.776  1.6604 -0.1243  1.1603
16209TIP3    H270119   3.129   2.888   1.705  3.1119 -0.6114  1.2467
16210TIP3   OH270120   0.270   5.355  17.069  0.3956  0.0915 -0.0837
16210TIP3    H170121   0.273   5.277  17.124  1.8233 -0.2690 -0.6475
16210TIP3    H270122   0.347   5.405  17.094 -0.7794  1.6210  0.6544
16211TIP3   OH270123   4.355   5.194   4.218 -0.7542  0.0398 -0.3857
16211TIP3    H170124   4.279   5.195   4.160 -0.5708 -0.1126 -0.6303
16211TIP3    H270125   4.428   5.222   4.162 -0.5719 -0.1332 -0.2355
16212TIP3   OH270126   5.503   2.018  15.648  0.0045 -0.2263  0.1025
16212TIP3    H170127   5.456   1.993  15.569 -1.1810 -3.3087  1.6106
16212TIP3    H270128   5.436   2.024  15.716  1.3446 -1.9235  1.7279
16213TIP3   OH270129   1.754   5.497  11.112 -0.3115  0.4739  0.0782
16213TIP3    H170130   1.760   5.402  11.119 -3.9020 -0.0915 -1.9875
16213TIP3    H270131   1.831   5.522  11.060 -1.1438 -1.8994 -2.5713
16214TIP3   OH270132   4.250   5.956  13.718  0.6942 -0.5962 -0.1181
16214TIP3    H170133   4.258   5.861  13.725 -0.3196 -0.6642  0.2527
16214TIP3    H270134   4.340   5.987  13.717  1.0715 -1.3898  2.2159
16215TIP3   OH270135   3.941   5.543  14.023 -0.0914  0.3095 -0.7251
16215TIP3    H170136   3.920   5.618  13.967 -1.7607 -0.7903 -1.6321
16215TIP3    H270137   3.968   5.474  13.963 -2.3755 -1.0494 -0.3253
16216TIP3   OH270138   4.649   2.920   0.039  0.9663 -0.3099  0.4202
16216TIP3    H170139   4.565   2.874   0.046  0.8481 -0.3272 -0.8589
16216TIP3    H270140   4.625   3.010   0.018  1.2593 -0.6331 -1.4767
16217TIP3   OH270141   2.179   3.096   5.385 -0.2945  0.4753  0.4607
16217TIP3    H170142   2.205   3.115   5.294 -3.1690 -3.7145 -1.5401
16217TIP3    H270143   2.245   3.036   5.417 -0.4775  0.1718  0.2737
16218TIP3   OH270144   0.099   5.557   0.131  0.0486  0.0368 -0.0780
16218TIP3    H170145   0.180   5.537   0.176 -1.6414 -1.7652  2.4537
16218TIP3    H270146   0.066   5.473   0.100 -0.9132  0.6968 -0.9513
16219TIP3   OH270147   1.722   5.955   2.255 -0.0062 -0.7166 -0.3668
16219TIP3    H170148   1.771   5.990   2.328 -0.6873 -2.0454  0.7784
16219TIP3    H270149   1.700   6.031   2.201  1.8190  0.0950 -0.0247
16220TIP3   OH270150   3.261   3.981   2.263  0.1855 -0.5548  0.2707
16220TIP3    H170151   3.198   3.966   2.192  0.8464  1.2565 -0.7595
16220TIP3    H270152   3.214   4.039   2.324 -0.8385 -3.0903  2.0529
16221TIP3   OH270153   6.127   5.077   4.268 -0.1528  0.2794 -0.1996
16221TIP3    H170154   6.213   5.095   4.229 -0.3351  2.0435  0.1123
16221TIP3    H270155   6.067   5.132   4.218 -0.9654 -0.2482  0.1851
16222TIP3   OH270156   1.399   3.612   5.830  0.1314  0.1931  0.2207
16222TIP3    H170157   1.356   3.696   5.815  0.1020  0.1606  0.1176
16222TIP3    H270158   1.469   3.631   5.892  0.3599  0.3682 -0.0900
16223TIP3   OH270159   5.607   2.846  14.358 -0.4272 -0.7894  0.1033
16223TIP3    H170160   5.657   2.901  14.297 -0.4191 -1.3049 -0.3601
16223TIP3    H270161   5.672   2.785  14.394  0.2427  1.3827  2.9235
16224TIP3   OH270162   1.226   0.259  12.629  0.2040 -0.0590  0.0543
16224TIP3    H170163   1.167   0.193  12.592  0.1419 -0.2921  0.5645
16224TIP3    H270164   1.255   0.310  12.553 -2.4004  1.5231  0.0254
16225TIP3   OH270165   5.953   5.484   3.109  0.0155  0.3184  0.0197
16225TIP3    H170166   5.983   5.394   3.119  1.6395  0.5478 -2.0554
16225TIP3    H270167   6.027   5.537   3.139 -0.5132  0.9734  0.2036
16226TIP3   OH270168   2.958   1.457  11.473 -0.2055 -0.6180 -0.1642
16226TIP3    H170169   2.908   1.534  11.498  1.5476  0.1833  1.0189
16226TIP3    H270170   2.973   1.468  11.379  0.4497  0.7530  0.0820
16227TIP3   OH270171   2.842   1.950   2.656 -0.3012  0.6266 -0.0701
16227TIP3    H170172   2.919   1.942   2.600 -0.1898  1.5413 -0.0732
16227TIP3    H270173   2.842   2.043   2.682 -0.9959  0.4692  0.5075
16228TIP3   OH270174   0.641   5.073  14.836 -0.0186 -0.0062  0.0998
16228TIP3    H170175   0.688   4.993  14.813 -1.0807 -0.9618  1.0874
16228TIP3    H270176   0.611   5.108  14.752 -0.0991 -1.0222 -0.3107
16229TIP3   OH270177   3.015   6.327  15.129 -0.2580  0.6640 -0.4598
16229TIP3    H170178   2.976   6.414  15.124 -4.0757 -0.7513  1.0547
16229TIP3    H270179   2.993   6.296  15.217  0.7933 -1.9294 -1.0198
16230TIP3   OH270180   4.868   3.097  14.287  0.2183 -0.7671 -0.1106
16230TIP3    H170181   4.787   3.145  14.302 -0.3482 -1.2490 -1.4951
16230TIP3    H270182   4.886   3.108  14.194  0.0301 -3.2475 -0.5157
16231TIP3   OH270183   5.267   3.620   6.062  0.0259  0.5170 -0.0346
16231TIP3    H170184   5.270   3.669   5.980  0.7208 -0.6700 -0.7510
16231TIP3    H270185   5.354   3.632   6.101  0.5690 -0.9208 -0.7205
16232TIP3   OH270186   6.669   0.069   6.658  0.2270  0.4391 -0.3752
16232TIP3    H170187   6.628   0.030   6.581 -2.2038  0.8928  0.5873
16232TIP3    H270188   6.642   0.161   6.655 -0.2337  0.3740  1.2048
16233TIP3   OH270189   0.431   3.052   5.742  0.0982  0.6412 -0.2399
16233TIP3    H170190   0.468   3.019   5.661  2.3579  0.9724  0.5745
16233TIP3    H270191   0.394   2.975   5.785 -2.6864  0.7187 -2.2550
16234TIP3   OH270192   5.870   2.356  16.747  0.0882  0.0586 -0.0345
16234TIP3    H170193   5.928   2.302  16.693 -0.5639 -0.6299 -0.0746
16234TIP3    H270194   5.825   2.293  16.803 -0.2571  0.6292  0.3369
16235TIP3   OH270195   6.416   6.165   1.387 -0.4126 -0.7963  0.2762
16235TIP3    H170196   6.486   6.143   1.449 -0.6064 -1.0790  0.3982
16235TIP3    H270197   6.356   6.091   1.392 -0.8838 -0.4065  0.4051
16236TIP3   OH270198   2.832   4.957   4.652  0.4614  0.4533 -0.7567
16236TIP3    H170199   2.864   4.879   4.607 -1.7438 -0.5325 -0.7760
16236TIP3    H270200   2.755   4.984   4.601 -0.5019  0.9269  0.8683
16237TIP3   OH270201   5.593   0.073   2.067 -0.0487 -0.6542 -0.2420
16237TIP3    H170202   5.574   0.088   2.160  0.7205 -1.8479  0.1262
16237TIP3    H270203   5.667   0.129   2.049  0.0317 -0.6910 -0.0337
16238TIP3   OH270204   3.976   1.570  14.583 -0.1397  0.0343  0.0448
16238TIP3    H170205   3.902   1.528  14.541  1.4538 -2.0865 -0.8399
16238TIP3    H270206   3.938   1.641  14.634 -2.6290 -0.2818 -1.2322
16239TIP3   OH270207   4.852   5.583  16.121  0.2587 -0.2720  0.7588
16239TIP3    H170208   4.818   5.634  16.195 -1.2820 -0.3387  0.1437
16239TIP3    H270209   4.928   5.537  16.156  0.6080  1.0517  1.8132
16240TIP3   OH270210   6.286   0.217   2.235 -0.7364  0.6431  0.0041
16240TIP3    H170211   6.338   0.154   2.285 -1.5339 -0.9598 -1.1116
16240TIP3    H270212   6.347   0.289   2.218  1.0316 -0.9494 -0.8633
16241TIP3   OH270213   6.158   6.352   0.233 -0.1209 -0.1499 -0.0565
16241TIP3    H170214   6.099   6.284   0.264  0.6645  0.2614  2.5252
16241TIP3    H270215   6.245   6.312   0.237  0.0976  0.1831 -1.0778
16242TIP3   OH270216   5.605   0.396   5.427  0.1901  0.1005 -0.0045
16242TIP3    H170217   5.590   0.302   5.419  1.7426 -0.2393  0.5826
16242TIP3    H270218   5.523   0.431   5.461 -0.6542 -0.9274 -0.9348
16243TIP3   OH270219   2.180   6.296   6.683  0.3155  0.8363 -0.2145
16243TIP3    H170220   2.124   6.367   6.654  1.6853  2.2630  0.4593
16243TIP3    H270221   2.267   6.320   6.651  0.9517 -0.1168  0.7288
16244TIP3   OH270222   0.983   3.328   3.192 -0.8732  0.2093  0.0407
16244TIP3    H170223   0.981   3.270   3.116 -2.2680  0.6683 -0.3011
16244TIP3    H270224   1.003   3.270   3.266  1.7900 -0.0382 -0.7860
16245TIP3   OH270225   0.990   6.821   4.879  0.2708  0.4959 -0.2344
16245TIP3    H170226   1.003   6.775   4.796  0.4096  1.1634 -0.5885
16245TIP3    H270227   1.050   6.778   4.940  0.9900  0.7314 -0.7626
16246TIP3   OH270228   1.036   4.717  16.303 -0.0242 -0.3042  0.0198
16246TIP3    H170229   0.956   4.665  16.296 -0.1201 -0.1338 -0.1655
16246TIP3    H270230   1.071   4.696  16.390 -0.7726  0.3485  0.4850
16247TIP3   OH270231   3.654   2.486  14.410 -0.5102  0.7155 -0.6871
16247TIP3    H170232   3.686   2.554  14.351  1.5888 -0.9704 -1.6403
16247TIP3    H270233   3.637   2.411  14.353  1.8656 -1.0730  0.7368
16248TIP3   OH270234   3.881   6.754   3.919  0.0013 -0.0732 -0.1750
16248TIP3    H170235   3.955   6.717   3.968 -1.0039 -0.1058  1.3640
16248TIP3    H270236   3.889   6.715   3.832  2.9583  1.4782 -0.7358
16249TIP3   OH270237   4.083   3.794  11.227 -0.5380  0.1182 -0.0467
16249TIP3    H170238   4.023   3.725  11.254  0.9148 -0.9735  0.5674
16249TIP3    H270239   4.083   3.857  11.299 -2.1130  0.9849 -0.7493
16250TIP3   OH270240   5.143   6.538  15.359 -0.3810 -0.1425  0.2762
16250TIP3    H170241   5.099   6.524  15.275 -1.8057 -0.3196  1.0201
16250TIP3    H270242   5.236   6.537  15.337 -0.6555 -1.8684 -1.0591
16251TIP3   OH270243   3.231   1.259   1.841 -0.5504 -0.2929 -0.3197
16251TIP3    H170244   3.322   1.243   1.818 -0.6957 -0.2680 -0.9350
16251TIP3    H270245   3.186   1.269   1.756 -1.1142 -0.2726 -0.0244
16252TIP3   OH270246   5.787   6.041  13.326 -0.3271 -0.2084  0.5259
16252TIP3    H170247   5.770   5.973  13.391  1.7592 -0.8608  0.4542
16252TIP3    H270248   5.729   6.113  13.351 -0.4651 -0.9106  2.3748
16253TIP3   OH270249   2.605   5.417  11.271 -0.0745  0.1296 -0.0602
16253TIP3    H170250   2.562   5.501  11.250  0.2063 -0.0323 -1.3971
16253TIP3    H270251   2.568   5.355  11.208  0.2290 -0.6014  0.4664
16254TIP3   OH270252   1.457   0.519  14.121  0.0541 -0.5247 -0.5388
16254TIP3    H170253   1.548   0.499  14.098  1.0054  1.8912  0.8718
16254TIP3    H270254   1.419   0.434  14.143  2.2086 -1.4808 -0.2949
16255TIP3   OH270255   3.414   1.045  13.627 -0.1908  0.5955 -0.3030
16255TIP3    H170256   3.319   1.041  13.615 -0.2309  1.6271 -0.4555
16255TIP3    H270257   3.451   1.002  13.550 -0.5302 -1.0528  0.4133
16256TIP3   OH270258   2.278   3.759   2.430 -0.3427 -0.1298 -0.3156
16256TIP3    H170259   2.289   3.751   2.335  0.9548  1.0650 -0.3068
16256TIP3    H270260   2.358   3.802   2.460 -0.1243 -1.6281  1.5072
16257TIP3   OH270261   2.520   1.494  10.626 -0.3246 -0.5202 -0.4047
16257TIP3    H170262   2.559   1.443  10.555  2.8252  2.3283 -0.9936
16257TIP3    H270263   2.548   1.450  10.706 -0.2087 -1.3575 -0.8985
16258TIP3   OH270264   0.844   1.268   5.443 -0.9109  0.2105 -0.3029
16258TIP3    H170265   0.750   1.274   5.426 -1.3579 -0.4929  1.6356
16258TIP3    H270266   0.857   1.179   5.474  0.4196  0.2905 -0.5639
16259TIP3   OH270267   1.456   3.890  14.556  0.7557 -0.0538 -0.0452
16259TIP3    H170268   1.435   3.895  14.463 -0.1197  0.7716  0.1814
16259TIP3    H270269   1.393   3.948  14.598  2.2423  0.9399  0.9013
16260TIP3   OH270270   3.993   2.122  15.115 -0.8763  0.1944  0.4730
16260TIP3    H170271   3.962   2.041  15.155  1.0619  0.0254  1.8042
16260TIP3    H270272   3.992   2.186  15.186 -1.7413  1.1852 -0.3985
16261TIP3   OH270273   6.230   4.660   4.614  0.3267  0.0944 -0.0620
16261TIP3    H170274   6.207   4.698   4.530 -1.0890  2.5968  1.3387
16261TIP3    H270275   6.188   4.574   4.614  1.3242 -0.4480 -2.3047
16262TIP3   OH270276   2.866   5.825  15.576  0.0161  0.6673  0.5217
16262TIP3    H170277   2.949   5.862  15.605 -0.1807  1.8929 -0.3749
16262TIP3    H270278   2.888   5.771  15.501 -0.0053  1.2112  0.1128
16263TIP3   OH270279   3.148   4.330   4.461 -0.2186 -0.5916  0.3745
16263TIP3    H170280   3.229   4.318   4.411 -0.5708  1.1572 -0.7180
16263TIP3    H270281   3.172   4.389   4.532 -0.9506  2.0246 -1.3958
16264TIP3   OH270282   2.741   3.368   0.188 -0.2757  0.2356 -0.0952
16264TIP3    H170283   2.742   3.283   0.144  1.6386  0.7812 -1.2502
16264TIP3    H270284   2.833   3.394   0.190 -0.7245  1.8623  1.0984
16265TIP3   OH270285   1.381   0.086  13.295  0.7249 -0.1395  0.6176
16265TIP3    H170286   1.294   0.054  13.270 -0.0886  0.3537  2.6285
16265TIP3    H270287   1.407   0.145  13.224 -1.5072  1.3169  0.9154
16266TIP3   OH270288   5.811   6.797  15.288 -0.2057  0.4753 -0.2344
16266TIP3    H170289   5.857   6.713  15.289  0.6310  0.9147  1.2327
16266TIP3    H270290   5.868   6.854  15.236 -0.4431  0.3361 -0.6598
16267TIP3   OH270291   4.090   5.414   2.866  0.0765 -0.3863 -0.1322
16267TIP3    H170292   4.139   5.400   2.785  2.0131  1.9132  0.5393
16267TIP3    H270293   4.076   5.508   2.869  0.5078 -0.3541  2.4253
16268TIP3   OH270294   6.194   6.356   0.638 -0.0799  0.1806 -0.3031
16268TIP3    H170295   6.189   6.261   0.629  0.0001  0.0407  0.9847
16268TIP3    H270296   6.246   6.370   0.718 -1.4321  1.2735  0.4274
16269TIP3   OH270297   5.870   3.708   4.448 -0.3937 -0.0108 -0.0996
16269TIP3    H170298   5.837   3.688   4.360 -3.4856 -1.1955  1.1659
16269TIP3    H270299   5.830   3.792   4.470 -1.3007 -0.6864  0.8894
16270TIP3   OH270300   0.614   2.721   2.168 -0.2301 -0.2283 -0.5353
16270TIP3    H170301   0.660   2.799   2.137  1.1685 -0.5800  0.5695
16270TIP3    H270302   0.683   2.657   2.182 -1.4419 -2.0978 -2.5025
16271TIP3   OH270303   2.192   2.667   1.068 -0.9167 -0.4338  0.0395
16271TIP3    H170304   2.166   2.716   1.146 -0.2729 -3.0989  2.0706
16271TIP3    H270305   2.149   2.582   1.077  0.4265 -1.3762 -1.7133
16272TIP3   OH270306   0.721   3.167  14.451 -0.1187  0.1622 -0.3301
16272TIP3    H170307   0.676   3.085  14.429  0.4981 -0.4722  0.6753
16272TIP3    H270308   0.683   3.232  14.392 -2.8679 -0.1718  0.9206
16273TIP3   OH270309   4.230   3.291  15.322 -0.2829  0.1339  0.0068
16273TIP3    H170310   4.177   3.308  15.244  0.4788  1.0481 -0.3391
16273TIP3    H270311   4.314   3.335  15.303  0.7092 -1.5269  0.4027
16274TIP3   OH270312   5.301   3.729  16.748  0.4814 -0.7105  0.2534
16274TIP3    H170313   5.226   3.736  16.806 -0.2258  0.2947 -0.7442
16274TIP3    H270314   5.273   3.670  16.678  0.6946 -0.5199  0.0036
16275TIP3   OH270315   3.627   5.607  15.901 -0.0837 -0.1259  0.2687
16275TIP3    H170316   3.709   5.573  15.865 -0.6383 -1.2434  0.0219
16275TIP3    H270317   3.599   5.672  15.836  0.2889 -0.1860  0.0405
16276TIP3   OH270318   0.699   6.416   4.771 -0.3762 -0.1731 -0.0461
16276TIP3    H170319   0.707   6.487   4.834 -0.6333  0.6580 -0.9325
16276TIP3    H270320   0.671   6.458   4.690 -2.0921 -1.4672 -0.1964
16277TIP3   OH270321   1.009   4.906   0.147 -0.4656 -0.0926  0.1838
16277TIP3    H170322   0.922   4.868   0.157 -0.9073  0.7530 -0.4147
16277TIP3    H270323   1.002   4.994   0.184  0.3569 -0.3106  0.8811
16278TIP3   OH270324   4.316   1.541   5.055  0.6319 -0.4243 -0.2223
16278TIP3    H170325   4.376   1.518   5.125  0.2992 -1.3883 -0.2403
16278TIP3    H270326   4.353   1.500   4.977  1.6247  1.5885 -0.8837
16279TIP3   OH270327   4.976   1.190   3.274  0.2185 -1.2709 -0.4362
16279TIP3    H170328   4.943   1.254   3.210 -1.1160 -0.4830  0.9871
16279TIP3    H270329   4.970   1.106   3.229 -1.4538 -0.8372 -1.0980
16280TIP3   OH270330   0.354   4.804  16.735  0.0451  0.1838 -0.3912
16280TIP3    H170331   0.417   4.799  16.806  0.3310 -0.1942 -0.6646
16280TIP3    H270332   0.400   4.851  16.665  0.7377 -1.7455 -1.3024
16281TIP3   OH270333   0.094   5.919  14.909  0.1976  0.2206 -0.0608
16281TIP3    H170334   0.051   5.980  14.849  1.0815  0.5332 -0.3907
16281TIP3    H270335   0.037   5.842  14.910 -1.4723  1.4198  1.1415
16282TIP3   OH270336   0.738   1.638  12.942  0.5359  0.2993 -0.3293
16282TIP3    H170337   0.807   1.633  12.876  2.0564 -0.3998  1.2355
16282TIP3    H270338   0.752   1.722  12.986 -2.6248  2.5036 -2.9983
16283TIP3   OH270339   4.665   3.573  16.560  0.3113 -0.0314  0.3944
16283TIP3    H170340   4.626   3.661  16.554 -0.8216 -0.5721 -0.6731
16283TIP3    H270341   4.688   3.551  16.470 -1.2197 -1.5836  0.3246
16284TIP3   OH270342   3.275   6.513  11.034  0.1512 -0.5892 -0.2680
16284TIP3    H170343   3.218   6.512  10.957 -2.5944 -0.8638  1.6153
16284TIP3    H270344   3.267   6.602  11.069 -0.5444 -1.1003  0.9464
16285TIP3   OH270345   3.825   4.345   1.426 -0.3706 -0.4762  0.0491
16285TIP3    H170346   3.918   4.333   1.449 -0.1872 -2.5036 -1.4989
16285TIP3    H270347   3.780   4.342   1.510  0.8821 -0.3094  0.7602
16286TIP3   OH270348   5.047   1.912  13.925  0.1137  0.4144  0.0351
16286TIP3    H170349   5.092   1.947  13.848  1.3154  0.8239  0.8833
16286TIP3    H270350   4.991   1.984  13.955 -0.5921  0.1484 -0.6172
16287TIP3   OH270351   5.395   1.784  10.323 -0.3425 -0.6590 -0.1927
16287TIP3    H170352   5.468   1.736  10.284 -0.5336 -0.0688 -1.3157
16287TIP3    H270353   5.421   1.798  10.414 -0.7888 -3.9017  0.5540
16288TIP3   OH270354   1.412   3.488   1.406 -0.2529 -0.3255  0.2162
16288TIP3    H170355   1.360   3.519   1.332 -0.2842 -1.3284 -0.1989
16288TIP3    H270356   1.439   3.567   1.451 -1.8357  0.2365  0.2303
16289TIP3   OH270357   3.525   6.396   2.220  0.1745 -0.1787 -0.4600
16289TIP3    H170358   3.451   6.336   2.230 -0.4383  0.7466  0.8169
16289TIP3    H270359   3.575   6.386   2.301 -0.5463  1.8000  0.2721
16290TIP3   OH270360   1.377   4.379   0.762 -0.3001  0.2679 -0.2246
16290TIP3    H170361   1.341   4.384   0.674 -2.0111 -0.9625  0.3639
16290TIP3    H270362   1.329   4.446   0.811 -2.3340 -1.7460  0.6969
16291TIP3   OH270363   0.358   5.833   5.240 -0.2579  0.1000  0.6535
16291TIP3    H170364   0.330   5.909   5.292 -2.0525 -0.0969  0.0433
16291TIP3    H270365   0.278   5.804   5.195  0.0378 -2.9362  1.8479
16292TIP3   OH270366   3.402   2.056  14.248  0.0824  0.1761 -0.4366
16292TIP3    H170367   3.365   2.090  14.330 -0.0119  1.1001 -0.8588
16292TIP3    H270368   3.338   2.080  14.181  0.6578  0.3321 -0.9367
16293TIP3   OH270369   5.015   3.586   4.455 -0.8969  0.1777  0.1334
16293TIP3    H170370   4.934   3.581   4.404 -0.0189 -1.6381 -1.2096
16293TIP3    H270371   5.006   3.517   4.520 -0.4232 -0.0795 -0.0686
16294TIP3   OH270372   4.092   3.060   5.459  0.6463  0.5570  0.1260
16294TIP3    H170373   4.051   3.139   5.424 -0.3838 -0.1449 -0.2907
16294TIP3    H270374   4.124   3.087   5.546 -0.6088  1.1555  0.4203
16295TIP3   OH270375   6.307   5.798   5.307 -0.0476 -0.4137  0.0213
16295TIP3    H170376   6.253   5.833   5.379 -1.2185 -0.3545 -0.8521
16295TIP3    H270377   6.316   5.705   5.327 -1.8556 -0.7631 -0.6229
16296TIP3   OH270378   1.905   1.283  14.094 -0.3400 -0.1600 -0.5048
16296TIP3    H170379   1.922   1.375  14.074 -0.8113  0.3335  1.1346
16296TIP3    H270380   1.811   1.279  14.107 -0.1852 -0.6013  0.5868
16297TIP3   OH270381   4.092   3.008  15.918  0.1074  0.3527 -0.6365
16297TIP3    H170382   4.141   3.073  15.969 -0.5974  0.6832 -0.3643
16297TIP3    H270383   4.093   3.043  15.829 -0.9308  1.1550 -0.3526
16298TIP3   OH270384   3.684   6.414  16.774  0.3517  0.8325  0.0006
16298TIP3    H170385   3.663   6.353  16.703  1.2853  0.0623  0.3835
16298TIP3    H270386   3.768   6.385  16.808  0.0515  1.3614  1.2580
16299TIP3   OH270387   2.883   0.249  16.759 -0.0769 -0.5947 -0.4512
16299TIP3    H170388   2.804   0.269  16.710  0.6889 -0.3856 -1.6294
16299TIP3    H270389   2.938   0.200  16.698  0.6428 -0.8829  0.3996
16300TIP3   OH270390   1.909   3.996   4.372 -0.7203  0.0918 -0.0211
16300TIP3    H170391   1.874   3.983   4.460 -0.7998 -1.4260 -0.2514
16300TIP3    H270392   1.835   3.982   4.313 -0.6133  0.8492 -0.3565
16301TIP3   OH270393   2.425   0.052  11.540 -1.1182 -0.1610 -0.3316
16301TIP3    H170394   2.364   0.108  11.491 -2.1357  0.0039  1.0577
16301TIP3    H270395   2.372  -0.022  11.569 -0.7641  0.1230  1.1424
16302TIP3   OH270396   2.157   4.041   2.065  0.3017  0.0895 -0.9938
16302TIP3    H170397   2.240   4.018   2.024  0.8434  3.1135 -1.8150
16302TIP3    H270398   2.097   4.055   1.992 -0.3745 -0.0950 -0.4841
16303TIP3   OH270399   2.637   3.403  11.018  0.0063  0.1749 -0.0365
16303TIP3    H170400   2.657   3.323  10.971  1.0715  0.1244  0.4773
16303TIP3    H270401   2.715   3.458  11.006 -0.8033  1.2448 -0.6002
16304TIP3   OH270402   4.746   6.076  12.359  0.2051  0.1986 -0.1814
16304TIP3    H170403   4.724   6.102  12.269  1.9592 -2.2125 -1.4443
16304TIP3    H270404   4.833   6.113  12.374  0.2776 -0.1115  0.1795
16305TIP3   OH270405   4.410   5.740   1.228 -0.0648  0.0179 -0.0043
16305TIP3    H170406   4.406   5.648   1.255  0.2128 -0.1798 -0.6210
16305TIP3    H270407   4.319   5.765   1.212  0.0256 -0.8639 -2.1692
16306TIP3   OH270408   0.004   4.745   1.982 -0.3654  0.6171  0.3292
16306TIP3    H170409   0.098   4.760   1.998 -0.1082 -1.1499  0.7549
16306TIP3    H270410  -0.002   4.730   1.888 -0.1657  0.4452  0.3425
16307TIP3   OH270411   2.684   6.400   0.922 -0.1969  0.8662 -0.2445
16307TIP3    H170412   2.703   6.491   0.945 -1.2280  1.0991 -0.2372
16307TIP3    H270413   2.661   6.404   0.829  1.6419  0.2955 -0.7682
16308TIP3   OH270414   5.010   3.729  11.198 -0.0844 -0.6463 -0.6311
16308TIP3    H170415   5.020   3.799  11.133 -2.7867  0.6749  0.2409
16308TIP3    H270416   4.947   3.669  11.159 -0.5823 -0.6431  0.1515
16309TIP3   OH270417   6.167   5.826  14.630 -0.1854 -0.2771 -0.2642
16309TIP3    H170418   6.153   5.921  14.633  1.5493  0.1296 -2.2306
16309TIP3    H270419   6.227   5.814  14.556 -1.0118 -3.0037 -0.5843
16310TIP3   OH270420   0.403   0.540   2.970  0.0754  0.3685  0.2573
16310TIP3    H170421   0.390   0.451   2.937 -1.2907  1.4940 -2.5666
16310TIP3    H270422   0.454   0.529   3.050 -1.4443 -3.0349  0.9134
16311TIP3   OH270423   1.352   6.249   1.242  0.2227  0.2601  0.1110
16311TIP3    H170424   1.350   6.154   1.229 -1.7349  0.2710  0.0307
16311TIP3    H270425   1.300   6.264   1.321  1.9822  1.1699  1.1654
16312TIP3   OH270426   1.681   4.492  11.494 -0.1495 -0.6147 -0.2507
16312TIP3    H170427   1.679   4.524  11.404  1.6458  1.1348  0.2582
16312TIP3    H270428   1.601   4.527  11.534 -0.5954 -0.8055 -0.9619
16313TIP3   OH270429   3.540   3.680  15.196 -0.3199  0.5471  0.0193
16313TIP3    H170430   3.591   3.672  15.277  0.3580  1.4710 -0.2998
16313TIP3    H270431   3.604   3.707  15.130 -1.0358  0.6724 -0.6338
16314TIP3   OH270432   6.785   4.422   3.589 -0.7908 -0.3360 -0.6672
16314TIP3    H170433   6.812   4.330   3.594  2.6602  0.5804 -0.2367
16314TIP3    H270434   6.803   4.458   3.676  2.8004  1.8219 -2.0943
16315TIP3   OH270435   6.253   3.662   5.691 -0.2081  0.2918  0.3639
16315TIP3    H170436   6.189   3.640   5.623  1.0591  0.4103 -0.9257
16315TIP3    H270437   6.256   3.586   5.748 -0.5099 -0.2722 -0.3569
16316TIP3   OH270438   4.421   0.304   3.119  0.5149 -0.1591  0.2052
16316TIP3    H170439   4.327   0.321   3.121  0.5686  0.4640 -1.0592
16316TIP3    H270440   4.428   0.209   3.113 -0.0655 -0.1771 -0.3227
16317TIP3   OH270441   0.260   0.404   1.985  0.1341  0.0085  0.3314
16317TIP3    H170442   0.332   0.383   2.044  0.3929  0.8461  0.3256
16317TIP3    H270443   0.302   0.421   1.901  0.0605  1.5996  0.5897
16318TIP3   OH270444   1.594   4.523   0.207 -0.2286  0.2046  0.4006
16318TIP3    H170445   1.681   4.558   0.227 -0.2061 -0.9662  2.6231
16318TIP3    H270446   1.599   4.431   0.231 -1.7555 -0.1831 -0.6042
16319TIP3   OH270447   5.198   3.445   3.777  0.7578  1.0751  0.3995
16319TIP3    H170448   5.237   3.364   3.809  2.2623  0.5206 -2.4682
16319TIP3    H270449   5.123   3.461   3.834 -0.7417 -3.3488 -0.0264
16320TIP3   OH270450   2.179   0.027  13.254 -0.6023 -0.2934 -0.4250
16320TIP3    H170451   2.176  -0.068  13.243 -0.5777 -0.1028 -2.4650
16320TIP3    H270452   2.131   0.062  13.179 -0.1060  1.3264 -0.0387
16321TIP3   OH270453   3.056   5.769  11.538 -0.0940  0.4634 -0.6098
16321TIP3    H170454   3.096   5.852  11.512 -1.4585  0.7344 -2.0369
16321TIP3    H270455   3.118   5.702  11.509 -0.0604  0.9103 -1.6184
16322TIP3   OH270456   1.448   6.714   4.171  0.1721 -0.2331  0.2892
16322TIP3    H170457   1.499   6.794   4.184  0.1358 -0.7004  4.7278
16322TIP3    H270458   1.509   6.652   4.130  0.4900  1.6108 -2.2530
16323TIP3   OH270459   0.103   3.498   0.302 -0.2513  0.3866 -0.3146
16323TIP3    H170460   0.018   3.511   0.344  1.2759  0.8013  2.9471
16323TIP3    H270461   0.119   3.403   0.308 -0.6162  0.2425 -1.3377
16324TIP3   OH270462   0.380   5.187   1.748  0.6945 -0.7337 -0.8526
16324TIP3    H170463   0.377   5.271   1.795 -0.2473 -1.5355  0.6081
16324TIP3    H270464   0.329   5.203   1.668 -0.2597 -0.1315 -0.1552
16325TIP3   OH270465   1.247   0.252   2.778  0.1475 -0.0024  0.6352
16325TIP3    H170466   1.200   0.205   2.709 -0.0683 -0.0059  0.7849
16325TIP3    H270467   1.273   0.184   2.840 -0.0598  0.0598  0.7906
16326TIP3   OH270468   0.494   5.223   0.900  0.2258  0.0880  0.1731
16326TIP3    H170469   0.498   5.206   0.994 -2.2690 -2.9247 -0.0963
16326TIP3    H270470   0.418   5.281   0.889  1.0870  1.2234  0.0394
16327TIP3   OH270471   1.945   2.153  14.260  0.4161 -0.1893  0.8471
16327TIP3    H170472   1.907   2.094  14.195  0.6972  1.4059 -0.8494
16327TIP3    H270473   1.870   2.178  14.316 -0.4146  0.4339 -0.4938
16328TIP3   OH270474   3.416   5.436  13.451 -0.1791 -0.3138 -0.5594
16328TIP3    H170475   3.352   5.433  13.380  1.7796  0.7117 -2.4777
16328TIP3    H270476   3.418   5.528  13.477  0.8731 -0.2330 -0.8957
16329TIP3   OH270477   0.480   5.605  14.635  0.4936 -0.4305  0.5082
16329TIP3    H170478   0.389   5.618  14.663  0.2419 -1.4125  0.1679
16329TIP3    H270479   0.530   5.665  14.691 -0.1000 -1.5644  2.3457
16330TIP3   OH270480   0.221   4.102   1.163 -0.5656  0.0724  0.4436
16330TIP3    H170481   0.249   4.190   1.187 -2.3384  0.5966  0.8026
16330TIP3    H270482   0.237   4.048   1.240 -0.3132  0.2968  0.5457
16331TIP3   OH270483   0.508   6.810   3.625 -0.1984  0.3633 -0.1647
16331TIP3    H170484   0.442   6.745   3.602 -0.5237  0.5135  0.3136
16331TIP3    H270485   0.460   6.875   3.677 -0.0390  1.3540 -1.2157
16332TIP3   OH270486   3.799   2.276   3.774  0.1614  0.4443 -0.2380
16332TIP3    H170487   3.760   2.241   3.694  1.2589 -0.4879 -0.3867
16332TIP3    H270488   3.809   2.370   3.756  0.3741  0.2537 -1.1979
16333TIP3   OH270489   1.363   2.508  12.805 -0.5504  0.4867 -0.1395
16333TIP3    H170490   1.332   2.429  12.850  1.5974 -1.9471 -2.4991
16333TIP3    H270491   1.447   2.528  12.848 -0.6247  0.8773 -0.1776
16334TIP3   OH270492   6.578   5.388  12.246  0.4645  0.0207  0.3589
16334TIP3    H170493   6.567   5.304  12.202  0.0274  2.2511 -4.3907
16334TIP3    H270494   6.672   5.391  12.268  0.5464 -1.5048  0.3352
16335TIP3   OH270495   3.447   0.753   2.342 -0.6159 -0.2816  0.7097
16335TIP3    H170496   3.454   0.842   2.378 -0.8162  0.3511 -0.7173
16335TIP3    H270497   3.519   0.747   2.279 -4.3014  1.5405 -4.4325
16336TIP3   OH270498   2.571   0.052   2.333 -0.5820  0.2714  0.0057
16336TIP3    H170499   2.550   0.029   2.424 -0.1500 -1.8921 -0.3828
16336TIP3    H270500   2.664   0.074   2.335  0.2785 -2.8315 -0.3233
16337TIP3   OH270501   2.568   0.454   5.607 -0.0898 -0.3778 -0.4561
16337TIP3    H170502   2.590   0.458   5.700  2.4856 -0.5750 -0.9799
16337TIP3    H270503   2.555   0.361   5.589 -1.2788 -0.2849 -0.2075
16338TIP3   OH270504   5.424   1.804  11.227  0.1688  0.2475  0.1457
16338TIP3    H170505   5.390   1.865  11.293 -1.1339 -1.1038  0.7840
16338TIP3    H270506   5.375   1.825  11.147 -0.2057  0.0949  0.3363
16339TIP3   OH270507   0.086   3.888   6.000  0.2356  0.5879 -0.1693
16339TIP3    H170508   0.048   3.939   6.072 -0.3005 -0.1855  0.1164
16339TIP3    H270509   0.145   3.826   6.044 -0.5792 -0.3155 -0.3289
16340TIP3   OH270510   4.069   5.528   5.249  0.0671  0.2317  0.1491
16340TIP3    H170511   4.029   5.443   5.269  0.3251  0.0738 -0.0113
16340TIP3    H270512   4.003   5.574   5.196  0.0901 -0.0224 -0.0997
16341TIP3   OH270513   5.111   0.965  13.580 -0.1519  0.2343  0.4137
16341TIP3    H170514   5.037   1.026  13.573  0.7974  1.2734 -1.4461
16341TIP3    H270515   5.154   0.988  13.662 -0.6618  1.1061  0.4471
16342TIP3   OH270516   4.348   6.204  17.088  0.0092 -0.3713  0.3044
16342TIP3    H170517   4.401   6.241  17.018 -1.0981 -0.8893 -0.8307
16342TIP3    H270518   4.339   6.111  17.065 -1.3339 -0.3084  0.4951
16343TIP3   OH270519   0.009   6.210   6.131 -0.5038 -0.1007 -0.1371
16343TIP3    H170520   0.028   6.229   6.223  0.7171 -1.5364 -0.0479
16343TIP3    H270521   0.065   6.135   6.110 -3.2506 -2.0728 -1.0660
16344TIP3   OH270522   4.986   5.069   5.851 -0.2050 -0.4726 -0.7247
16344TIP3    H170523   5.003   4.975   5.850  2.5444 -0.0643 -0.3596
16344TIP3    H270524   4.998   5.094   5.943 -1.9627  0.1169 -0.6181
16345TIP3   OH270525   0.801   2.250  12.847  0.4844 -0.0132 -0.0856
16345TIP3    H170526   0.758   2.335  12.855  0.8612  0.1557  0.1905
16345TIP3    H270527   0.785   2.222  12.757  1.7689  1.1192 -0.7091
16346TIP3   OH270528   2.287   0.291   4.641  0.1017  0.0937 -0.6817
16346TIP3    H170529   2.244   0.225   4.585 -0.4988  1.1817 -1.5428
16346TIP3    H270530   2.223   0.308   4.711  0.7929 -1.1598  0.2970
16347TIP3   OH270531   3.090   5.303  17.015 -0.0461  0.2855  0.5540
16347TIP3    H170532   3.087   5.221  17.065 -0.2564 -0.4567 -0.6221
16347TIP3    H270533   3.001   5.338  17.020  0.1406  0.6764  1.3956
16348TIP3   OH270534   2.428   2.618  13.103  0.1216  0.3843 -0.7323
16348TIP3    H170535   2.468   2.590  13.021  0.5039  2.6453 -1.3915
16348TIP3    H270536   2.335   2.623  13.084  0.2285  1.0668 -1.0937
16349TIP3   OH270537   5.372   3.011  15.754 -0.3156  0.0440  0.4298
16349TIP3    H170538   5.462   2.999  15.724 -1.1416 -2.4593 -1.3821
16349TIP3    H270539   5.368   2.963  15.836  0.0412  0.3953  0.6586
16350TIP3   OH270540   4.555   0.405  11.655  0.0529  0.1722  0.2476
16350TIP3    H170541   4.639   0.451  11.655 -0.6428  1.5026 -0.6533
16350TIP3    H270542   4.531   0.398  11.747  0.9604  0.1279  0.4840
16351TIP3   OH270543   3.340   2.972   3.988  0.1983  0.0549  0.1894
16351TIP3    H170544   3.368   2.969   4.080 -1.0060 -0.3121  0.5511
16351TIP3    H270545   3.284   3.050   3.983  1.9035  1.2887 -0.7359
16352TIP3   OH270546   1.001   1.953  13.910 -0.5386 -0.0911 -0.3033
16352TIP3    H170547   1.050   1.876  13.938  0.2400  0.5022  0.0018
16352TIP3    H270548   0.986   2.002  13.991  0.4228  0.8870 -0.6951
16353TIP3   OH270549   2.912   3.473   1.758 -0.2373  0.2871  0.3573
16353TIP3    H170550   2.856   3.550   1.764  1.1967  1.3668  0.4623
16353TIP3    H270551   2.872   3.410   1.817 -1.6796  0.7798 -0.0460
16354TIP3   OH270552   1.175   2.887   3.597 -0.2450 -0.6792  0.4698
16354TIP3    H170553   1.144   2.976   3.583  0.9635  0.2715  3.1064
16354TIP3    H270554   1.270   2.892   3.583 -0.4888 -2.4305 -2.7212
16355TIP3   OH270555   0.431   4.462  16.876 -0.1551  0.5433  0.6954
16355TIP3    H170556   0.500   4.490  16.816  0.2680 -1.6174  0.0840
16355TIP3    H270557   0.452   4.505  16.959  0.2007  2.2553 -0.2431
16356TIP3   OH270558   5.885   3.314   0.244 -0.1495  0.5052  0.7731
16356TIP3    H170559   5.914   3.272   0.163  0.6273  2.4223 -0.0086
16356TIP3    H270560   5.966   3.344   0.285 -0.6778  1.7108  0.9894
16357TIP3   OH270561   2.663   5.840  16.487 -0.4683 -0.2737  0.2989
16357TIP3    H170562   2.690   5.929  16.508  0.0226  0.1777 -1.9895
16357TIP3    H270563   2.582   5.850  16.437  0.2774 -0.9703 -1.1256
16358TIP3   OH270564   5.364   5.315   3.960  0.1084 -0.2834  0.1518
16358TIP3    H170565   5.315   5.278   4.034  1.1248 -2.1711 -0.0637
16358TIP3    H270566   5.439   5.256   3.948  0.2639  0.2588 -2.0519
16359TIP3   OH270567   2.084   6.480   1.151 -0.6356  0.3599 -0.1910
16359TIP3    H170568   2.123   6.487   1.238 -1.4022 -0.6948  0.2510
16359TIP3    H270569   2.029   6.402   1.155 -3.7411  2.3382 -0.3847
16360TIP3   OH270570   5.463   4.555  16.225 -0.2803  0.7715  0.8118
16360TIP3    H170571   5.463   4.590  16.136 -0.2721  1.3016  1.0156
16360TIP3    H270572   5.373   4.565  16.254 -0.4711 -0.1428  0.5849
16361TIP3   OH270573   4.749   4.511  14.946  0.7331  0.4804  0.3080
16361TIP3    H170574   4.838   4.517  14.912  1.1674  0.5161  1.4107
16361TIP3    H270575   4.754   4.447  15.017 -0.3555 -0.3545 -0.3320
16362TIP3   OH270576   5.496   5.245  14.639 -0.2214 -0.2074 -0.0956
16362TIP3    H170577   5.454   5.321  14.600  0.1431 -0.2328 -0.5496
16362TIP3    H270578   5.424   5.193  14.675 -0.5148  0.0871 -0.2538
16363TIP3   OH270579   3.517   1.977   4.033 -0.3924 -0.5783 -0.3167
16363TIP3    H170580   3.469   1.981   4.116 -0.5147  0.1862 -0.4170
16363TIP3    H270581   3.466   1.916   3.979  0.9654 -2.9478  0.9525
16364TIP3   OH270582   4.834   3.338   5.812 -0.3514  0.0891 -0.2879
16364TIP3    H170583   4.907   3.398   5.826 -0.2657  0.0207 -0.4463
16364TIP3    H270584   4.778   3.383   5.750 -0.4951  0.1850 -0.0906
16365TIP3   OH270585   2.117   6.063  14.719  0.2963 -0.0917  1.0905
16365TIP3    H170586   2.200   6.023  14.742  0.9097 -0.0093 -0.7708
16365TIP3    H270587   2.077   6.087  14.802  2.0205 -0.3555  2.0295
16366TIP3   OH270588   1.705   4.692  11.847 -0.5847 -0.7949  0.2847
16366TIP3    H170589   1.754   4.621  11.805  2.2617  2.1188 -1.8361
16366TIP3    H270590   1.770   4.738  11.899 -2.0397  0.9191  0.6872
16367TIP3   OH270591   6.514   0.998   0.269 -0.6406 -0.2084  0.2358
16367TIP3    H170592   6.523   1.061   0.198  0.8564  0.9659  1.4034
16367TIP3    H270593   6.463   0.926   0.231 -2.5839  1.7319 -1.0877
16368TIP3   OH270594   6.392   4.236   5.761  0.0776 -0.8869 -0.2659
16368TIP3    H170595   6.306   4.278   5.768  1.1582  1.5065 -0.1892
16368TIP3    H270596   6.438   4.262   5.841  1.8745  0.4830 -1.6556
16369TIP3   OH270597   5.267   0.144  14.381  0.3043 -0.3087 -0.9006
16369TIP3    H170598   5.303   0.062  14.415  0.7175 -0.2120 -1.0998
16369TIP3    H270599   5.327   0.211  14.413  0.7918 -0.2304 -1.9672
16370TIP3   OH270600   5.082   1.613   0.422  0.6090 -0.1419 -0.1011
16370TIP3    H170601   5.123   1.545   0.475  0.1852  0.0701  0.5072
16370TIP3    H270602   5.055   1.680   0.485 -1.4532 -0.6711 -0.3410
16371TIP3   OH270603   3.407   4.448   6.372 -0.1677 -0.1239  0.2375
16371TIP3    H170604   3.471   4.432   6.303  0.1987 -0.2318  0.5968
16371TIP3    H270605   3.457   4.493   6.441 -0.5119 -0.0817  0.4606
16372TIP3   OH270606   1.842   1.387  11.911  0.2686 -0.4394 -0.2166
16372TIP3    H170607   1.861   1.323  11.980 -2.8001 -0.2273  0.9988
16372TIP3    H270608   1.843   1.472  11.955 -1.1861 -0.2455 -0.4893
16373TIP3   OH270609   4.555   0.821   5.155  0.1212 -0.3901 -0.6801
16373TIP3    H170610   4.630   0.871   5.187 -0.9254 -0.0188  1.3778
16373TIP3    H270611   4.521   0.873   5.083 -0.3863  1.4547  0.8105
16374TIP3   OH270612   5.132   3.902  17.060 -0.0980  0.2786  0.3500
16374TIP3    H170613   5.168   3.979  17.016  1.6640 -1.4512 -1.4240
16374TIP3    H270614   5.037   3.911  17.050  0.1635  0.9888 -2.1149
16375TIP3   OH270615   0.499   1.268  12.380 -0.4906  0.0129 -0.1957
16375TIP3    H170616   0.448   1.253  12.300  0.2226 -1.0381 -0.4707
16375TIP3    H270617   0.547   1.186  12.393  0.6584  0.7607  0.3932
16376TIP3   OH270618   5.972   3.666  13.246  0.2515  0.1691 -0.7113
16376TIP3    H170619   5.931   3.605  13.306  0.0288  0.5299 -0.4908
16376TIP3    H270620   6.034   3.715  13.300 -0.3366  0.8667 -0.6386
16377TIP3   OH270621   4.065   1.144   2.645 -0.1919  0.4229  0.1847
16377TIP3    H170622   4.129   1.144   2.716 -2.5037 -0.8190  2.4477
16377TIP3    H270623   4.013   1.066   2.659 -1.5847  0.8218 -2.1699
16378TIP3   OH270624   1.395   0.152  12.086 -0.1048  0.4720 -0.4857
16378TIP3    H170625   1.466   0.095  12.057  0.5741 -0.4434  2.5923
16378TIP3    H270626   1.316   0.111  12.051  0.6088 -0.7694 -0.7058
16379TIP3   OH270627   4.779   1.669  14.905 -0.8615  0.0200  0.1136
16379TIP3    H170628   4.833   1.642  14.979 -0.6893 -1.4928 -0.5275
16379TIP3    H270629   4.703   1.611  14.908 -1.7176  1.1162  0.1102
16380TIP3   OH270630   4.398   1.427  17.040  0.4726 -0.0495 -0.3036
16380TIP3    H170631   4.344   1.506  17.038  0.3178 -0.1582 -0.4092
16380TIP3    H270632   4.369   1.380  17.118 -0.8274 -0.9797 -1.3114
16381TIP3   OH270633   6.140   0.885   0.026  0.0716 -0.1203 -0.3105
16381TIP3    H170634   6.135   0.975  -0.004 -0.6443 -0.6217 -1.7549
16381TIP3    H270635   6.069   0.877   0.090  0.6895  0.5481  0.4962
16382TIP3   OH270636   0.817   4.941   5.942  0.3207  0.3094  0.6109
16382TIP3    H170637   0.794   5.034   5.944  0.6742  0.3932  1.1330
16382TIP3    H270638   0.787   4.910   5.857  0.0361  0.8606  0.5072
16383TIP3   OH270639   4.337   4.395  15.553 -0.0612 -0.4323  0.4375
16383TIP3    H170640   4.427   4.428  15.556  0.2425 -1.1653 -0.0977
16383TIP3    H270641   4.285   4.469  15.522  0.6653 -0.5178 -1.1093
16384TIP3   OH270642   0.406   2.333  13.249  0.0456 -0.6370 -0.3208
16384TIP3    H170643   0.321   2.339  13.291  0.2560 -1.0607  0.1670
16384TIP3    H270644   0.469   2.349  13.319  0.3641  0.7472 -0.8708
16385TIP3   OH270645   6.765   0.612   0.026  0.0555  0.0460  0.0484
16385TIP3    H170646   6.728   0.621  -0.062  0.3891 -0.6914 -0.1713
16385TIP3    H270647   6.774   0.702   0.058  1.4158  0.4167 -1.2917
16386TIP3   OH270648   5.713   5.944   4.092 -0.0876 -0.2804  0.2502
16386TIP3    H170649   5.754   5.934   4.178 -0.7859  1.4087  0.8106
16386TIP3    H270650   5.749   5.872   4.040  1.8783 -0.1487  1.3571
16387TIP3   OH270651   0.626   5.068   3.787 -0.4283 -0.3106 -0.0243
16387TIP3    H170652   0.696   5.013   3.822  0.6308  0.7339 -0.4341
16387TIP3    H270653   0.570   5.007   3.739  1.0127 -0.9841 -0.9336
16388TIP3   OH270654   3.156   2.899   3.426  0.1762 -0.7682  0.2652
16388TIP3    H170655   3.102   2.827   3.394  0.0286  0.2118 -1.8035
16388TIP3    H270656   3.103   2.977   3.411  0.5007 -0.1438  2.0958
16389TIP3   OH270657   0.206   2.306  10.385  0.2861 -0.2954  0.4479
16389TIP3    H170658   0.209   2.400  10.407 -0.7183  0.0313 -0.7223
16389TIP3    H270659   0.298   2.281  10.378  0.5859  0.3669  1.7199
16390TIP3   OH270660   5.503   4.590  13.086 -0.2433  0.3512  0.2643
16390TIP3    H170661   5.485   4.562  12.996 -1.3347 -0.0648  0.5906
16390TIP3    H270662   5.486   4.685  13.085  1.4675  0.6733 -0.3644
16391TIP3   OH270663   5.735   2.155   1.319 -0.2936 -0.0868 -0.0226
16391TIP3    H170664   5.769   2.189   1.236  0.9947 -0.2242  0.4176
16391TIP3    H270665   5.731   2.061   1.307  1.9246 -0.3391  0.7170
16392TIP3   OH270666   5.519   2.995   1.286  0.2648 -0.0497  0.0489
16392TIP3    H170667   5.530   3.081   1.245 -1.3919  0.2932  0.2286
16392TIP3    H270668   5.575   2.937   1.236  0.9709  1.0351 -0.4492
16393TIP3   OH270669   5.391   6.034  15.287  0.5851  0.1255  0.0490
16393TIP3    H170670   5.346   5.987  15.216  2.0368  0.2352 -0.9762
16393TIP3    H270671   5.419   6.116  15.247  0.9636  0.4229  0.9119
16394TIP3   OH270672   4.640   4.081   2.873  0.3673  0.1766 -0.5067
16394TIP3    H170673   4.589   4.050   2.948  2.1949  0.3856  0.8845
16394TIP3    H270674   4.715   4.022   2.870  2.2802  2.4265  0.2287
16395TIP3   OH270675   2.045   0.973   4.256 -0.4011  0.0816  0.2411
16395TIP3    H170676   2.012   0.893   4.216  0.5122  0.3969 -1.2245
16395TIP3    H270677   2.099   0.943   4.330  1.6327 -0.8512 -1.5095
16396TIP3   OH270678   2.120   3.270  16.852  0.0563  0.4567  0.4643
16396TIP3    H170679   2.190   3.330  16.829  1.7437 -1.0878  1.3595
16396TIP3    H270680   2.053   3.285  16.784  1.5719  1.3928 -0.9088
16397TIP3   OH270681   5.094   3.370   2.553  0.0066  0.3521  0.2775
16397TIP3    H170682   5.074   3.370   2.647  0.7835  0.1153  0.4443
16397TIP3    H270683   5.015   3.408   2.513 -0.4737  0.1409  0.9868
16398TIP3   OH270684   6.728   2.918  13.127  0.1590 -0.4124  0.2537
16398TIP3    H170685   6.691   2.995  13.169  0.3675  0.5206 -1.2090
16398TIP3    H270686   6.785   2.952  13.059  2.0429 -1.8551  1.0207
16399TIP3   OH270687   1.121   4.137   4.750 -0.3581 -0.4741 -0.7162
16399TIP3    H170688   1.199   4.127   4.805 -0.0448  1.5097 -0.7063
16399TIP3    H270689   1.137   4.083   4.673  1.8254  1.1974 -1.5091
16400TIP3   OH270690   3.361   5.156  11.196 -0.0472 -0.1204 -0.0823
16400TIP3    H170691   3.363   5.234  11.141  2.6708  0.6348  0.9458
16400TIP3    H270692   3.407   5.090  11.144  0.2918 -0.1454  0.2446
16401TIP3   OH270693   1.330   5.138  13.103 -0.6998 -0.2377 -0.1813
16401TIP3    H170694   1.368   5.175  13.023 -1.1682 -0.9798 -0.7530
16401TIP3    H270695   1.338   5.209  13.167 -0.3115  0.3659 -0.8749
16402TIP3   OH270696   5.136   6.702   0.841  0.0520 -0.5944  0.4279
16402TIP3    H170697   5.213   6.705   0.784  0.2010  1.2654  0.6493
16402TIP3    H270698   5.062   6.698   0.781  0.2710 -0.9917  0.1784
16403TIP3   OH270699   0.138   6.477  13.408  0.6614  0.4121  0.0837
16403TIP3    H170700   0.134   6.551  13.469  1.4768  0.5337  0.0056
16403TIP3    H270701   0.230   6.450  13.409  0.6151  0.1845 -0.8204
16404TIP3   OH270702   0.557   3.309  14.753 -0.3267 -0.3334  0.5738
16404TIP3    H170703   0.553   3.276  14.842 -2.3147 -1.3107  0.1774
16404TIP3    H270704   0.467   3.305  14.721  0.2031  0.6704 -1.2487
16405TIP3   OH270705   4.147   3.301  16.634  0.5743  0.2349 -0.6969
16405TIP3    H170706   4.173   3.353  16.710  2.7059 -1.7613  0.0356
16405TIP3    H270707   4.074   3.248  16.666  1.8334 -1.0244  0.2256
16406TIP3   OH270708   2.405   5.210   0.420  0.3300 -0.2571 -0.2648
16406TIP3    H170709   2.421   5.117   0.406 -2.3328 -0.5801 -1.6473
16406TIP3    H270710   2.321   5.227   0.377  0.7953  2.8175 -0.1572
16407TIP3   OH270711   5.067   3.938   5.955 -0.2571 -0.5163  0.0428
16407TIP3    H170712   4.985   3.895   5.980  0.9308 -2.3355  1.0796
16407TIP3    H270713   5.110   3.874   5.898  0.4274  0.4315 -0.5269
16408TIP3   OH270714   4.024   6.581  15.619  0.8808  0.0014 -0.0300
16408TIP3    H170715   3.938   6.610  15.650  0.2995 -0.0605 -1.5131
16408TIP3    H270716   4.005   6.506  15.562  1.9252 -0.0503 -0.3250
16409TIP3   OH270717   5.804   1.086  10.603  0.0390 -0.2864 -0.4135
16409TIP3    H170718   5.833   1.170  10.566 -0.3066 -0.4858 -1.1690
16409TIP3    H270719   5.711   1.099  10.621  0.5222  0.3317  1.9391
16410TIP3   OH270720   1.784   1.092  12.235 -0.4964 -0.4431  0.1359
16410TIP3    H170721   1.828   1.071  12.153 -0.5993 -0.6869  0.1418
16410TIP3    H270722   1.700   1.129  12.209 -0.4110 -0.2531  0.1284
16411TIP3   OH270723   2.165   1.076   3.511 -0.1609 -0.3960 -0.9413
16411TIP3    H170724   2.259   1.064   3.496  0.2303 -0.5124  1.2396
16411TIP3    H270725   2.133   0.988   3.532 -0.4457 -0.1441 -0.2802
16412TIP3   OH270726   6.337   4.971   6.713 -0.2069  0.7699 -0.2706
16412TIP3    H170727   6.326   5.056   6.670  1.9139  1.9063  1.2530
16412TIP3    H270728   6.424   4.942   6.687 -0.6673 -0.6929 -0.2843
16413TIP3   OH270729   3.430   4.419   0.115  0.0510  0.0167  0.2896
16413TIP3    H170730   3.446   4.398   0.024 -0.4756  1.2946 -0.1206
16413TIP3    H270731   3.346   4.377   0.136 -1.2199  1.9540 -0.6501
16414TIP3   OH270732   2.844   5.012   5.479  0.2641 -0.2641 -0.1244
16414TIP3    H170733   2.780   5.022   5.408  1.2745 -1.6486 -1.2802
16414TIP3    H270734   2.835   5.093   5.531  0.8592  1.7398 -2.9249
16415TIP3   OH270735   0.119   5.072   5.561  0.0345 -0.2070  0.9643
16415TIP3    H170736   0.101   5.015   5.486  1.3037  0.5483  0.0444
16415TIP3    H270737   0.122   5.013   5.636 -0.2286 -1.1286  0.2692
16416TIP3   OH270738   6.750   5.919   0.676 -0.2603  1.0526 -0.8561
16416TIP3    H170739   6.719   5.834   0.643 -0.6412  1.5342 -1.7458
16416TIP3    H270740   6.842   5.923   0.649  0.5695 -0.1834  1.4109
16417TIP3   OH270741   5.147   0.995  13.224  0.2111 -0.2772 -0.0863
16417TIP3    H170742   5.122   1.077  13.181 -2.1795 -1.5651 -1.3791
16417TIP3    H270743   5.175   1.021  13.311 -0.7445  1.8974 -0.3608
16418TIP3   OH270744   1.075   0.260   2.268 -0.1297 -0.1100 -0.2632
16418TIP3    H170745   1.078   0.165   2.252 -0.0285 -0.0994 -0.3083
16418TIP3    H270746   1.116   0.272   2.353  1.6702  0.0893 -1.1162
16419TIP3   OH270747   1.351   1.925   0.562  0.2081 -0.1345 -0.2008
16419TIP3    H170748   1.318   1.854   0.508  3.9168 -1.1895 -1.3073
16419TIP3    H270749   1.382   1.991   0.500  0.9538  0.4158  0.7325
16420TIP3   OH270750   2.251   3.897   1.657  0.2256  0.2094 -0.0144
16420TIP3    H170751   2.157   3.915   1.656  0.2694  0.4341 -0.3387
16420TIP3    H270752   2.271   3.868   1.568  0.0971 -1.8125  0.5657
16421TIP3   OH270753   0.365   6.226  13.854  0.1511  0.0306  0.1418
16421TIP3    H170754   0.428   6.254  13.787 -0.0570 -1.2942 -0.6347
16421TIP3    H270755   0.301   6.297  13.858 -0.1211 -0.0917 -1.4439
16422TIP3   OH270756   3.061   4.220  12.858 -0.0293 -0.5344 -0.0084
16422TIP3    H170757   3.119   4.270  12.915  0.8942 -0.8203 -0.6755
16422TIP3    H270758   3.024   4.285  12.798  2.7029 -0.8071 -2.1910
16423TIP3   OH270759   0.668   5.947   3.468  0.1646  0.0677  0.2340
16423TIP3    H170760   0.594   5.894   3.496  0.1717  0.0425  0.2049
16423TIP3    H270761   0.700   5.904   3.389 -0.3767  0.6225 -0.2957
16424TIP3   OH270762   3.968   2.304   0.980  0.1279 -0.7143 -0.3096
16424TIP3    H170763   4.046   2.249   0.982 -0.3866 -1.4609  1.0580
16424TIP3    H270764   3.992   2.383   1.029  1.0525  0.6309 -2.7659
16425TIP3   OH270765   2.813   0.367   4.543  0.5713 -0.3863  0.5351
16425TIP3    H170766   2.829   0.300   4.476  1.6714 -1.9847  2.2945
16425TIP3    H270767   2.734   0.413   4.512  0.9355 -1.1492 -1.7323
16426TIP3   OH270768   1.793   5.626  14.362  0.0240 -0.8773  0.4314
16426TIP3    H170769   1.858   5.662  14.302  0.1716 -1.2532  0.3610
16426TIP3    H270770   1.777   5.537  14.330 -0.5822 -0.7628  0.4016
16427TIP3   OH270771   1.586   2.749   5.800 -0.0162 -0.0823 -0.8979
16427TIP3    H170772   1.600   2.657   5.779 -2.4540 -0.6274 -0.3319
16427TIP3    H270773   1.653   2.768   5.866  1.2968 -1.0622 -1.8812
16428TIP3   OH270774   1.877   1.304  12.449 -0.0955 -0.5228  0.1828
16428TIP3    H170775   1.933   1.305  12.527  0.0731 -1.8418  0.0974
16428TIP3    H270776   1.886   1.216  12.414 -0.3467 -0.0107 -1.2188
16429TIP3   OH270777   1.927   3.488  16.426  0.2264 -0.5300 -0.3283
16429TIP3    H170778   1.985   3.431  16.376  0.9014  1.7971 -2.3959
16429TIP3    H270779   1.975   3.570  16.435 -0.7634 -0.1450  2.4028
16430TIP3   OH270780   6.602   5.285  14.596  0.2687 -0.0748 -0.4417
16430TIP3    H170781   6.647   5.286  14.512 -0.1015 -0.2205 -0.6413
16430TIP3    H270782   6.547   5.207  14.594  0.2564 -0.0804 -0.0639
16431TIP3   OH270783   5.840   2.545   0.011 -0.1426  0.4941  0.1454
16431TIP3    H170784   5.877   2.478  -0.047  1.7365  1.3653  0.2700
16431TIP3    H270785   5.881   2.626  -0.017  0.7193  0.9836  2.5433
16432TIP3   OH270786   5.024   0.044  11.519  0.1012 -0.4880 -0.3350
16432TIP3    H170787   4.954  -0.019  11.501  0.5191 -0.9028 -0.5038
16432TIP3    H270788   5.057   0.070  11.433 -0.9638  0.9992 -0.3470
16433TIP3   OH270789   0.692   6.033   3.751 -0.1952 -0.6664  0.0044
16433TIP3    H170790   0.673   6.026   3.657 -2.9254 -1.7218  0.5274
16433TIP3    H270791   0.782   6.003   3.760  0.6220  0.7444 -2.4039
16434TIP3   OH270792   6.749   3.415   1.690  1.0284  0.2650  0.0744
16434TIP3    H170793   6.765   3.442   1.781  2.3783  0.7966 -0.3031
16434TIP3    H270794   6.725   3.323   1.696 -0.4271  0.6709  1.1014
16435TIP3   OH270795   4.832   0.229   3.741  0.3982 -0.5692 -0.3200
16435TIP3    H170796   4.764   0.216   3.675 -0.3832  0.7409  0.1754
16435TIP3    H270797   4.887   0.299   3.705  0.3504 -0.3059  0.1100
16436TIP3   OH270798   0.816   6.798  14.020 -0.5997 -0.3817 -0.8479
16436TIP3    H170799   0.886   6.836  13.967 -1.1745  0.6002 -0.9338
16436TIP3    H270800   0.743   6.787  13.959 -0.9229 -0.2147 -0.5034
16437TIP3   OH270801   1.668   3.539   1.223  0.3701 -0.4483  0.5130
16437TIP3    H170802   1.585   3.567   1.183  1.2023  0.5268 -0.5989
16437TIP3    H270803   1.672   3.588   1.305  0.4990  0.6234 -0.1084
16438TIP3   OH270804   4.576   4.311   4.001 -0.2596 -0.5325 -0.4181
16438TIP3    H170805   4.599   4.389   4.051 -1.4488 -1.3111  1.4624
16438TIP3    H270806   4.494   4.334   3.957 -0.6517 -0.7188  0.1991
16439TIP3   OH270807   1.649   6.674   5.514  0.5611 -0.2850  0.0280
16439TIP3    H170808   1.587   6.611   5.476 -0.1077  1.6731 -2.4418
16439TIP3    H270809   1.606   6.706   5.593  0.1001 -1.6048  0.3229
16440TIP3   OH270810   4.195   0.848  13.991 -0.4430 -0.1579 -0.3078
16440TIP3    H170811   4.205   0.873  13.899  0.9128 -2.3580 -0.8069
16440TIP3    H270812   4.102   0.864  14.009 -0.7465  0.2893 -2.0521
16441TIP3   OH270813   1.007   5.413  12.676  0.2491  0.3370  0.0533
16441TIP3    H170814   0.964   5.356  12.740  1.3240  0.0934  0.5668
16441TIP3    H270815   0.948   5.488  12.668 -1.6789 -1.2014 -1.3304
16442TIP3   OH270816   5.775   2.552   5.667  0.3313  0.6728 -0.1426
16442TIP3    H170817   5.775   2.623   5.731 -1.2185 -1.8294  2.8916
16442TIP3    H270818   5.827   2.483   5.707  1.4680 -0.1710 -2.8068
16443TIP3   OH270819   3.049   6.476  16.889 -0.3040  0.1865 -0.5795
16443TIP3    H170820   3.060   6.536  16.963  0.6705  0.3791 -0.8642
16443TIP3    H270821   2.994   6.405  16.923 -0.6656  0.7578  0.0418
16444TIP3   OH270822   6.411   4.375   2.000 -0.5446 -0.2595 -0.0306
16444TIP3    H170823   6.427   4.316   1.927  2.2129 -2.6458  2.2629
16444TIP3    H270824   6.323   4.352   2.031  0.2800 -3.0632  0.5348
16445TIP3   OH270825   0.467   4.871  16.168  0.0812  0.4688 -0.5663
16445TIP3    H170826   0.445   4.923  16.091 -3.4731 -0.0258 -0.0329
16445TIP3    H270827   0.512   4.795  16.133 -1.4713  0.2422 -2.2155
16446TIP3   OH270828   4.902   4.532  13.757 -0.1787 -0.0894  0.5792
16446TIP3    H170829   4.955   4.581  13.819 -1.3460  0.0916  1.4763
16446TIP3    H270830   4.949   4.538  13.674  0.5881  1.0543  1.0801
16447TIP3   OH270831   2.333   2.169  13.224 -0.6280 -0.1830  0.1064
16447TIP3    H170832   2.423   2.181  13.197 -0.1249 -1.3180  1.1467
16447TIP3    H270833   2.323   2.226  13.300 -1.3309  1.2379 -1.0121
16448TIP3   OH270834   3.626   3.281  10.874 -0.1516  0.2115 -0.0849
16448TIP3    H170835   3.712   3.238  10.868  0.0704  0.8692 -2.6485
16448TIP3    H270836   3.643   3.371  10.850 -1.5928  0.3188 -0.7996
16449TIP3   OH270837   1.810   3.911  13.536 -0.1688 -0.1384  0.1214
16449TIP3    H170838   1.851   3.940  13.455 -0.1712 -1.5124 -0.3919
16449TIP3    H270839   1.716   3.919  13.521 -0.1787 -0.7662 -0.1582
16450TIP3   OH270840   5.675   4.653  14.885 -0.2296  0.1760 -0.2481
16450TIP3    H170841   5.674   4.748  14.901 -0.1749  0.2094 -0.4375
16450TIP3    H270842   5.766   4.628  14.900 -0.6642 -0.2432  2.0656
16451TIP3   OH270843   1.473   5.186  10.304  0.5904  0.2635 -0.1223
16451TIP3    H170844   1.479   5.280  10.323  1.2711 -0.0360  1.2716
16451TIP3    H270845   1.560   5.152  10.324  0.4084 -0.6368 -0.8246
16452TIP3   OH270846   5.620   2.995  16.468  1.3521 -0.7134 -0.6271
16452TIP3    H170847   5.601   3.021  16.558 -0.7492  0.7007 -1.4205
16452TIP3    H270848   5.712   3.019  16.455  1.3672  0.0705  0.7835
16453TIP3   OH270849   6.692   0.603   5.126  0.4624 -0.0016 -0.4151
16453TIP3    H170850   6.699   0.693   5.095  0.5073  0.4873  0.9619
16453TIP3    H270851   6.645   0.558   5.056 -1.5279  1.6000 -0.2108
16454TIP3   OH270852   3.917   6.355  16.334 -0.1188 -0.8495  1.2257
16454TIP3    H170853   3.980   6.323  16.270  0.2824  2.2385 -0.1087
16454TIP3    H270854   3.884   6.437  16.297 -3.5604 -1.3667  2.7634
16455TIP3   OH270855   2.319   0.933  11.326 -0.1643 -0.1316  0.9398
16455TIP3    H170856   2.338   1.016  11.369  1.3971 -0.7866  1.6056
16455TIP3    H270857   2.368   0.937  11.244  0.2272 -0.5319  1.1487
16456TIP3   OH270858   5.782   3.418  15.027  0.0979 -0.2477 -0.3859
16456TIP3    H170859   5.730   3.490  15.062  0.0453 -1.6476  2.7954
16456TIP3    H270860   5.869   3.456  15.012 -0.4616  0.9198 -0.7591
16457TIP3   OH270861   0.120   3.063  15.909 -0.7496  0.0585  0.2090
16457TIP3    H170862   0.046   3.014  15.947 -0.1520 -0.4379  0.7454
16457TIP3    H270863   0.193   3.001  15.911 -0.0219  0.9257  0.7397
16458TIP3   OH270864   2.454   0.874  15.486  0.0535  0.5806 -0.5342
16458TIP3    H170865   2.494   0.954  15.521 -0.6732  1.4457 -1.6097
16458TIP3    H270866   2.450   0.815  15.561 -1.5770  2.3946  0.9270
16459TIP3   OH270867   1.635   1.188  16.439  0.1604  0.8361 -0.0967
16459TIP3    H170868   1.544   1.178  16.467 -0.0646  2.4900 -0.1647
16459TIP3    H270869   1.658   1.103  16.401 -1.3377  0.3938 -0.0595
16460TIP3   OH270870   6.158   1.249  15.231 -0.2137  0.0830 -0.0797
16460TIP3    H170871   6.122   1.162  15.246  0.4075 -0.2383 -0.4132
16460TIP3    H270872   6.082   1.307  15.231 -0.8461 -0.6959 -1.7121
16461TIP3   OH270873   6.750   5.522  16.172 -0.6389  0.2343 -0.1389
16461TIP3    H170874   6.844   5.508  16.188 -0.9062  0.5867  2.0988
16461TIP3    H270875   6.708   5.490  16.252 -2.2907  1.6572 -0.3987
16462TIP3   OH270876   3.733   0.745  14.998  0.3807 -0.6396  0.1339
16462TIP3    H170877   3.721   0.803  15.073  1.4680  0.3501 -0.4413
16462TIP3    H270878   3.779   0.798  14.933 -0.3176 -1.5520 -1.1507
16463TIP3   OH270879   3.010   2.040   3.156 -0.5740 -0.2550  0.0211
16463TIP3    H170880   3.066   1.974   3.117 -1.2237 -0.6401 -0.2860
16463TIP3    H270881   2.932   1.992   3.184  0.2921 -0.1918  2.7717
16464TIP3   OH270882   6.274   4.536  12.481 -0.2701 -0.3246 -0.4404
16464TIP3    H170883   6.295   4.487  12.560  2.3747  1.2151 -0.0663
16464TIP3    H270884   6.180   4.553  12.487 -0.5580 -2.2128  1.1657
16465TIP3   OH270885   3.751   4.418  13.753  0.0651 -0.2993  0.0091
16465TIP3    H170886   3.772   4.354  13.821  0.2904 -0.4860 -0.2343
16465TIP3    H270887   3.813   4.400  13.683  0.7635  0.7903  0.3106
16466TIP3   OH270888   0.573   0.273   5.261  0.5875 -0.1896 -0.1825
16466TIP3    H170889   0.580   0.178   5.257  0.8094 -0.1558 -0.9092
16466TIP3    H270890   0.526   0.297   5.181 -0.0906  0.2620  0.3374
16467TIP3   OH270891   5.825   3.152   3.392  0.2193 -0.2830  0.0976
16467TIP3    H170892   5.821   3.224   3.330  0.3779  0.5376  1.0122
16467TIP3    H270893   5.855   3.077   3.341  0.4022  0.3877 -0.7928
16468TIP3   OH270894   5.193   2.391  11.888  0.2274 -0.0578  0.0264
16468TIP3    H170895   5.287   2.407  11.880 -0.1206  1.6545 -1.4126
16468TIP3    H270896   5.168   2.356  11.803 -0.1738 -2.2853  1.0105
16469TIP3   OH270897   3.796   0.842   1.482  0.0181  0.3274  0.6053
16469TIP3    H170898   3.803   0.792   1.401 -1.0042  0.7374  0.2439
16469TIP3    H270899   3.840   0.788   1.548 -2.5279 -1.9394  0.6115
16470TIP3   OH270900   3.209   4.799   3.628 -0.1022 -0.2841  0.1462
16470TIP3    H170901   3.290   4.822   3.673  0.9597 -2.6542 -0.3902
16470TIP3    H270902   3.188   4.711   3.659 -1.6179 -0.3493 -0.9177
16471TIP3   OH270903   2.223   5.611  10.631  1.2240 -0.0798 -0.3601
16471TIP3    H170904   2.174   5.528  10.637  0.7101  0.3200  3.3044
16471TIP3    H270905   2.155   5.678  10.625  1.5316  0.2309 -0.3651
16472TIP3   OH270906   4.843   4.782  15.067 -0.1795  0.2089  0.2955
16472TIP3    H170907   4.777   4.846  15.095  0.4827  0.8026  0.5660
16472TIP3    H270908   4.797   4.699  15.063 -1.0419  0.6930  0.0380
16473TIP3   OH270909   1.779   1.044  12.782  0.0834 -0.3059  0.3961
16473TIP3    H170910   1.863   1.016  12.745 -0.1218 -1.4898  0.8048
16473TIP3    H270911   1.714   1.016  12.719  0.0158  1.2259 -0.2604
16474TIP3   OH270912   6.817   4.424   5.761  0.7940  0.0563  0.0968
16474TIP3    H170913   6.795   4.473   5.682  2.1262 -0.0186 -0.3576
16474TIP3    H270914   6.779   4.337   5.748 -0.4699  0.5508  0.3304
16475TIP3   OH270915   1.319   3.159  16.834 -0.4897 -0.3059  0.3331
16475TIP3    H170916   1.283   3.133  16.919  1.0975  0.7389  1.3686
16475TIP3    H270917   1.286   3.247  16.821 -0.4155 -0.3217  0.0425
16476TIP3   OH270918   6.809   6.297   4.252 -0.1456 -0.3387 -0.0033
16476TIP3    H170919   6.844   6.351   4.323  1.0455 -0.8208 -0.2068
16476TIP3    H270920   6.834   6.342   4.172 -3.5337  1.5183 -0.2326
16477TIP3   OH270921   2.559   0.068  14.054  0.3515 -0.5886 -0.1577
16477TIP3    H170922   2.537  -0.004  14.114 -1.8312  0.5349  0.5377
16477TIP3    H270923   2.476   0.087  14.009  0.9995  1.1163 -0.7118
16478TIP3   OH270924   5.470   4.997   4.828  0.6288  0.0804  0.1089
16478TIP3    H170925   5.514   4.947   4.760  0.9689 -1.7228  1.5899
16478TIP3    H270926   5.380   5.008   4.795  0.8837 -0.4121 -0.7822
16479TIP3   OH270927   5.381   0.944  11.848  0.4657  0.2545  0.2578
16479TIP3    H170928   5.445   0.906  11.787 -0.0727  0.4090 -0.4257
16479TIP3    H270929   5.301   0.953  11.795  0.1832  1.0429  0.8035
16480TIP3   OH270930   0.461   3.285   6.312 -0.2031 -0.1965 -0.5043
16480TIP3    H170931   0.522   3.346   6.353 -0.4346  0.5791 -1.2672
16480TIP3    H270932   0.382   3.289   6.366 -0.3406  0.4610 -0.7391
16481TIP3   OH270933   6.405   6.387  14.643 -0.2864  0.0850 -0.6634
16481TIP3    H170934   6.412   6.300  14.603  0.2712  0.1501 -0.7143
16481TIP3    H270935   6.314   6.392  14.673  0.2971 -1.5220  1.6195
16482TIP3   OH270936   2.728   3.397   5.944  0.1023  0.4388 -0.4421
16482TIP3    H170937   2.641   3.361   5.962  0.5806 -1.1928 -1.1652
16482TIP3    H270938   2.768   3.407   6.030 -0.1595 -0.5219 -0.1995
16483TIP3   OH270939   4.939   1.573   1.257 -0.5839  0.0573  0.5840
16483TIP3    H170940   4.875   1.549   1.324 -2.0646  1.5809 -0.1977
16483TIP3    H270941   4.970   1.660   1.284 -0.1207  0.0598  0.0488
16484TIP3   OH270942   5.087   5.862   6.084 -0.2803 -0.1603  0.0756
16484TIP3    H170943   5.115   5.876   6.174  0.8756 -0.6295 -0.1801
16484TIP3    H270944   5.159   5.813   6.044  0.1006  1.5904 -1.5855
16485TIP3   OH270945   4.603   5.103   1.792  0.0495  0.5719 -0.3370
16485TIP3    H170946   4.696   5.119   1.776 -0.0238  0.4743 -0.8564
16485TIP3    H270947   4.566   5.190   1.802 -0.5545  0.9377 -4.2663
16486TIP3   OH270948   2.276   3.703   2.144  0.2044 -0.0802 -0.2207
16486TIP3    H170949   2.279   3.608   2.159  0.6680 -0.2712 -1.4131
16486TIP3    H270950   2.182   3.723   2.135  0.0439 -0.2607  0.9322
16487TIP3   OH270951   6.424   0.768  17.018 -0.3496 -0.0861 -0.3919
16487TIP3    H170952   6.388   0.841  16.968  2.0668 -0.4933 -2.9374
16487TIP3    H270953   6.348   0.730  17.063 -1.9398  2.9310 -0.2798
16488TIP3   OH270954   1.685   4.939  15.296 -0.3577 -0.1389  0.0414
16488TIP3    H170955   1.592   4.915  15.298 -0.8755  1.7801  0.4330
16488TIP3    H270956   1.686   5.033  15.312  1.6258 -0.0128 -0.6102
16489TIP3   OH270957   5.589   1.391   0.370  0.7006  0.3156  0.2701
16489TIP3    H170958   5.572   1.444   0.447 -0.5239 -0.7219  0.7331
16489TIP3    H270959   5.657   1.329   0.397  0.6020  0.2547  0.3763
16490TIP3   OH270960   1.736   2.569  14.965  0.6155  0.0913 -0.3360
16490TIP3    H170961   1.642   2.557  14.975  0.6144  0.4317  0.0910
16490TIP3    H270962   1.745   2.653  14.919  0.7425  0.7198  0.8200
16491TIP3   OH270963   4.539   2.601   5.457  0.3674 -0.4317  0.6954
16491TIP3    H170964   4.478   2.616   5.385  0.6923  0.6602  0.6330
16491TIP3    H270965   4.506   2.522   5.500 -0.1740 -0.7512 -0.2833
16492TIP3   OH270966   3.747   3.399   2.001  0.5363  0.4423 -0.4245
16492TIP3    H170967   3.834   3.412   1.964 -0.3415 -0.6126 -3.1486
16492TIP3    H270968   3.688   3.402   1.926 -1.4642 -1.6904  0.8992
16493TIP3   OH270969   4.483   4.767   0.498  0.2701  0.1779  0.1573
16493TIP3    H170970   4.486   4.672   0.513  0.0686  0.1456 -0.0189
16493TIP3    H270971   4.508   4.777   0.406 -2.0288  0.1248 -0.5233
16494TIP3   OH270972   6.327   2.953  12.436  0.3745  0.0413  0.3208
16494TIP3    H170973   6.370   3.022  12.385  2.2796  0.3208  2.1318
16494TIP3    H270974   6.277   3.001  12.503 -1.8923 -0.3185 -1.0095
16495TIP3   OH270975   5.969   4.759  11.537  0.4997  0.2870  0.3804
16495TIP3    H170976   5.881   4.739  11.506  0.0967  0.4698  1.3473
16495TIP3    H270977   5.962   4.753  11.633  1.3449  1.0514  0.5056
16496TIP3   OH270978   5.499   6.077  12.852  0.5231 -0.3844  0.1362
16496TIP3    H170979   5.551   6.157  12.848 -1.4620  0.9478 -0.7022
16496TIP3    H270980   5.468   6.065  12.762  0.2555 -1.7396  0.3985
16497TIP3   OH270981   6.059   6.373  15.116  0.0149 -0.6539 -0.1143
16497TIP3    H170982   6.021   6.420  15.042  2.2827 -1.3027 -1.7800
16497TIP3    H270983   6.093   6.441  15.174 -0.5290 -0.1844 -0.3333
16498TIP3   OH270984   1.094   2.689   0.567  0.6401  0.7938 -0.1237
16498TIP3    H170985   1.052   2.664   0.649 -0.3907  1.5693 -0.3911
16498TIP3    H270986   1.185   2.707   0.590  0.3975  0.8643  0.8162
16499TIP3   OH270987   4.255   3.545  15.801  0.1710  0.1794 -0.3133
16499TIP3    H170988   4.181   3.540  15.741 -0.0028 -1.8245 -0.0042
16499TIP3    H270989   4.312   3.611  15.763 -2.0914  2.3698 -0.1326
16500TIP3   OH270990   0.582   6.619   5.515 -0.1799  0.2686 -0.2512
16500TIP3    H170991   0.500   6.591   5.557  0.1411 -0.1499  0.1074
16500TIP3    H270992   0.631   6.538   5.502 -0.2823  0.3746 -1.4843
16501TIP3   OH270993   6.590   4.947  17.016  0.0596 -0.1546  0.4212
16501TIP3    H170994   6.553   4.933  17.103  1.8105 -0.4014  1.1588
16501TIP3    H270995   6.684   4.934  17.027  0.4972  1.2435 -1.1993
16502TIP3   OH270996   4.863   0.488  14.685 -0.5085  0.6344  0.6040
16502TIP3    H170997   4.910   0.493  14.602  1.0526 -0.2409  1.3765
16502TIP3    H270998   4.775   0.520  14.666  0.0316  1.1222 -1.2061
16503TIP3   OH270999   5.701   6.184   0.492 -0.4999  0.5569  0.8232
16503TIP3    H171000   5.652   6.193   0.574  0.0507 -0.3693  1.2727
16503TIP3    H271001   5.720   6.091   0.486  1.1109  0.8684  0.6134
16504TIP3   OH271002   4.166   0.767   1.352 -0.1756 -0.4481  0.1194
16504TIP3    H171003   4.254   0.805   1.356 -0.1730 -0.1979 -1.6820
16504TIP3    H271004   4.115   0.831   1.303 -0.4541 -2.1742 -1.9828
16505TIP3   OH271005   5.296   2.863  15.464  0.5296 -0.2572  0.4814
16505TIP3    H171006   5.236   2.822  15.401 -0.3040  0.1136  1.0111
16505TIP3    H271007   5.238   2.898  15.531  1.4548 -1.8611  2.1970
16506TIP3   OH271008   2.026   5.544  13.927 -0.0773  0.2051  0.4052
16506TIP3    H171009   1.950   5.587  13.888  0.8009 -0.1166 -1.7718
16506TIP3    H271010   2.006   5.450  13.924  0.1856  0.1494  0.2822
16507TIP3   OH271011   5.703   6.615   4.210 -0.0361  0.3624  0.0969
16507TIP3    H171012   5.741   6.528   4.201 -1.6300 -0.3967  0.2722
16507TIP3    H271013   5.749   6.668   4.145 -0.5255 -1.1678 -1.5797
16508TIP3   OH271014   5.211   0.606   2.184  1.0491 -0.6502  0.2153
16508TIP3    H171015   5.155   0.541   2.142  2.0794 -0.5782 -1.3219
16508TIP3    H271016   5.300   0.582   2.158  1.5965  0.3425  1.0894
16509TIP3   OH271017   0.736   0.631  14.183 -0.2425  0.6688 -0.1122
16509TIP3    H171018   0.689   0.558  14.221  0.6164 -0.9068 -1.8851
16509TIP3    H271019   0.703   0.708  14.229 -1.6503 -0.7490  1.3726
16510TIP3   OH271020   4.248   3.307  11.941 -0.7243 -0.1204 -0.0351
16510TIP3    H171021   4.200   3.389  11.953  0.7339  0.6632  0.6636
16510TIP3    H271022   4.322   3.313  12.002 -0.1363 -1.6050 -0.5565
16511TIP3   OH271023   0.630   0.953  13.658 -0.1372  0.0752 -0.2167
16511TIP3    H171024   0.557   0.891  13.665  0.8707 -1.0882  0.3621
16511TIP3    H271025   0.651   0.976  13.749  2.3317 -2.2313 -0.0700
16512TIP3   OH271026   2.428   6.647   3.417  0.1798  0.6867 -0.4006
16512TIP3    H171027   2.478   6.618   3.341  0.4449  0.1081 -0.0121
16512TIP3    H271028   2.472   6.727   3.446  1.7332 -0.5210  0.7373
16513TIP3   OH271029   6.594   1.409  15.210  0.1755 -0.1909 -0.3166
16513TIP3    H171030   6.567   1.330  15.163  0.5868 -0.7523  0.3688
16513TIP3    H271031   6.684   1.424  15.181  0.6611 -0.9142  0.7441
16514TIP3   OH271032   2.436   4.918  11.777  0.0962 -0.3915  0.3433
16514TIP3    H171033   2.467   4.970  11.703 -1.6283  2.6634  1.5856
16514TIP3    H271034   2.516   4.897  11.826  0.8650  1.4602 -0.0222
16515TIP3   OH271035   4.179   3.419  14.318 -0.2787 -0.6015 -0.2212
16515TIP3    H171036   4.146   3.330  14.327  1.6696 -1.2864  0.5414
16515TIP3    H271037   4.273   3.409  14.304  0.2265  1.3755  1.3349
16516TIP3   OH271038   1.016   2.996  12.283 -0.3074 -0.2968  0.3370
16516TIP3    H171039   0.971   3.074  12.252  0.5945  0.1601  0.1407
16516TIP3    H271040   1.094   2.990  12.228  0.8456 -0.0046  1.8775
16517TIP3   OH271041   1.375   3.113   0.769 -0.2980 -0.7140 -0.1214
16517TIP3    H171042   1.455   3.078   0.731 -0.4579  0.5309 -1.6526
16517TIP3    H271043   1.404   3.161   0.847  0.4702 -0.0783 -0.7904
16518TIP3   OH271044   2.797   1.545   0.792  0.0118  0.4356 -0.1660
16518TIP3    H171045   2.883   1.532   0.832 -0.3032  2.6765  1.4083
16518TIP3    H271046   2.735   1.539   0.865 -1.2162 -1.0144 -1.2582
16519TIP3   OH271047   4.285   5.184   1.021  0.1784 -0.1666  0.0225
16519TIP3    H171048   4.337   5.264   1.013 -0.8465  0.3848 -1.4545
16519TIP3    H271049   4.318   5.127   0.952 -1.4244  0.3658 -1.2374
16520TIP3   OH271050   5.001   2.194   4.073  0.1183  0.3538 -0.5910
16520TIP3    H171051   4.910   2.165   4.083  0.6399 -0.5913  2.2030
16520TIP3    H271052   4.996   2.290   4.080 -0.6865  0.3441 -0.8696
16521TIP3   OH271053   2.993   6.002  12.350 -0.2731  0.4530  0.0329
16521TIP3    H171054   3.075   6.047  12.371  0.3739 -0.6359 -0.0554
16521TIP3    H271055   2.988   6.004  12.255  0.3270 -0.6087 -0.0308
16522TIP3   OH271056   3.108   2.352  10.913 -0.1414 -0.0633 -0.7919
16522TIP3    H171057   3.181   2.313  10.865  0.1454 -0.1624 -0.2867
16522TIP3    H271058   3.137   2.440  10.934 -0.1565 -0.1133 -0.5613
16523TIP3   OH271059   6.094   2.992  10.180  0.3896 -0.1086 -0.3114
16523TIP3    H171060   6.174   2.991  10.128 -0.1047  0.4534 -1.0935
16523TIP3    H271061   6.023   2.982  10.116 -0.1118 -2.4450  0.5118
16524TIP3   OH271062   2.423   6.614   1.890  0.2314 -0.1274  0.3215
16524TIP3    H171063   2.346   6.587   1.841 -0.0862 -0.2504  0.8780
16524TIP3    H271064   2.395   6.692   1.937 -0.3124 -1.4818  2.3783
16525TIP3   OH271065   2.732   5.543   5.133 -0.5334  1.4741  0.4275
16525TIP3    H171066   2.799   5.610   5.126 -0.8323  1.9654  1.9247
16525TIP3    H271067   2.696   5.553   5.221  0.8092 -1.9370  1.5477
16526TIP3   OH271068   3.503   2.983   3.758  0.3350  0.2085  0.8916
16526TIP3    H171069   3.462   2.936   3.685  0.2441  1.9965 -0.2757
16526TIP3    H271070   3.442   2.973   3.831 -0.1309 -0.6645  0.3976
16527TIP3   OH271071   1.169   0.918   0.054  0.2064  0.4294  0.2071
16527TIP3    H171072   1.083   0.879   0.037  0.4251  0.3986 -0.9014
16527TIP3    H271073   1.229   0.843   0.054  0.2726  0.4767  0.7612
16528TIP3   OH271074   4.914   1.682  14.665 -0.5831 -0.1709  0.1529
16528TIP3    H171075   4.942   1.774  14.675 -1.1981  0.1147 -0.7293
16528TIP3    H271076   4.861   1.665  14.743  0.0999 -0.0036  0.6708
16529TIP3   OH271077   1.971   5.292   4.420 -0.1135 -0.2857 -0.5977
16529TIP3    H171078   1.909   5.237   4.372  0.8417  0.1999 -2.4661
16529TIP3    H271079   1.992   5.241   4.498  0.0335 -2.1611 -1.8019
16530TIP3   OH271080   3.305   4.045   3.954 -0.1845  0.2089  0.2320
16530TIP3    H171081   3.288   4.126   3.906 -0.6919  1.0268  1.7382
16530TIP3    H271082   3.374   4.068   4.016  0.9455 -1.0117 -0.5312
16531TIP3   OH271083   0.795   5.658   4.085  0.3665 -0.6866  0.1172
16531TIP3    H171084   0.715   5.693   4.046  0.4033 -1.1630 -0.4055
16531TIP3    H271085   0.798   5.695   4.173  0.5090  0.8023 -0.4836
16532TIP3   OH271086   5.961   2.851   4.244  0.4494 -0.0531 -0.2513
16532TIP3    H171087   5.997   2.911   4.178  2.4621 -1.4820 -0.5372
16532TIP3    H271088   5.867   2.851   4.227  0.7580  0.6150 -2.2984
16533TIP3   OH271089   5.241   1.288   3.328 -0.1178 -0.0826 -0.3306
16533TIP3    H171090   5.150   1.268   3.304 -0.2541 -0.0868  0.1816
16533TIP3    H271091   5.243   1.383   3.333 -0.2658 -0.1107  0.3155
16534TIP3   OH271092   4.059   0.258   1.068  0.2043 -0.0434 -0.1793
16534TIP3    H171093   4.035   0.215   0.986 -0.6078  0.9167 -0.4746
16534TIP3    H271094   4.109   0.193   1.116 -1.3609 -1.4746 -0.4055
16535TIP3   OH271095   0.527   0.417  15.515 -0.3312  0.0069 -0.2040
16535TIP3    H171096   0.462   0.357  15.480  0.0540  0.0658 -1.0494
16535TIP3    H271097   0.611   0.374  15.498 -0.0795  0.5426 -0.3486
16536TIP3   OH271098   1.307   4.058   2.312 -0.0137  0.0066 -0.1796
16536TIP3    H171099   1.219   4.084   2.339  0.7309  1.2540  1.2020
16536TIP3    H271100   1.296   3.971   2.274 -1.9281  0.4304 -0.6667
16537TIP3   OH271101   3.164   1.405  16.311  0.0329  0.3770  0.1543
16537TIP3    H171102   3.147   1.496  16.285  1.0433  0.4773 -0.1993
16537TIP3    H271103   3.236   1.377  16.255 -0.3502 -0.6925  0.1800
16538TIP3   OH271104   4.029   5.232  12.992  0.1834  0.7843  0.1036
16538TIP3    H171105   4.078   5.310  13.019 -0.2441  1.1223 -0.0888
16538TIP3    H271106   4.096   5.164  12.984  0.6621  1.3004 -0.3737
16539TIP3   OH271107   3.022   0.974   5.057 -0.2102  0.2517  0.0567
16539TIP3    H171108   2.977   0.995   5.139  1.1342  0.9361  0.6548
16539TIP3    H271109   3.094   1.037   5.053  0.4413 -0.5454 -1.0695
16540TIP3   OH271110   2.570   2.539  14.361 -0.3899  0.1038 -0.7430
16540TIP3    H171111   2.621   2.502  14.433 -1.7742 -1.5047 -0.5258
16540TIP3    H271112   2.508   2.598  14.403  0.6602  1.3896 -0.9290
16541TIP3   OH271113   4.323   3.450   4.568  0.7026  0.2786  0.2349
16541TIP3    H171114   4.351   3.416   4.653  0.2777  1.9531  1.0964
16541TIP3    H271115   4.248   3.395   4.544  2.0804 -1.5457 -0.0991
16542TIP3   OH271116   4.615   0.466  16.309 -0.4357  0.1505 -0.0005
16542TIP3    H171117   4.561   0.545  16.304  0.3617  0.6589 -1.0225
16542TIP3    H271118   4.623   0.436  16.218 -0.5247 -0.9775  0.3444
16543TIP3   OH271119   4.804   2.205  12.553 -0.1475 -0.1873  0.1010
16543TIP3    H171120   4.770   2.116  12.545 -0.4501 -0.2581  1.8470
16543TIP3    H271121   4.781   2.247  12.470  0.9194 -2.0157 -1.1794
16544TIP3   OH271122   5.050   5.861  10.949  0.0836 -0.1738  0.1404
16544TIP3    H171123   5.096   5.876  10.866  0.4615 -0.6528  0.2625
16544TIP3    H271124   4.997   5.940  10.961  1.1265  0.5448  0.1647
16545TIP3   OH271125   6.575   4.782   4.505  0.0552 -0.5198  0.5228
16545TIP3    H171126   6.616   4.856   4.460  0.8139 -1.2793 -0.0649
16545TIP3    H271127   6.535   4.731   4.434 -1.4952 -0.0692  1.0317
16546TIP3   OH271128   5.706   1.945  12.241  0.0059  0.0973  0.2104
16546TIP3    H171129   5.790   1.991  12.237 -0.1729  0.4806  0.6722
16546TIP3    H271130   5.651   1.990  12.177  0.5117 -0.9350 -0.9788
16547TIP3   OH271131   1.762   4.818   5.501  0.3112  0.2789 -0.4452
16547TIP3    H171132   1.854   4.805   5.477  0.4495  1.7598 -0.7777
16547TIP3    H271133   1.763   4.827   5.596  0.4334 -0.1740 -0.3977
16548TIP3   OH271134   1.650   1.052   3.257  0.1963 -0.2012 -0.2529
16548TIP3    H171135   1.578   1.001   3.219  0.1999 -0.1014 -0.3940
16548TIP3    H271136   1.705   1.075   3.183 -1.0176  1.9677 -0.5478
16549TIP3   OH271137   6.305   4.458  14.596  0.1468 -0.5315  0.6186
16549TIP3    H171138   6.237   4.444  14.662  0.4661 -1.6750  0.7275
16549TIP3    H271139   6.384   4.478  14.646 -0.0973  0.8589  0.4898
16550TIP3   OH271140   2.655   5.495  11.783 -0.4775 -0.7498  0.3753
16550TIP3    H171141   2.750   5.507  11.787 -0.4094 -1.5732  1.4458
16550TIP3    H271142   2.643   5.411  11.739 -0.7733 -0.0584 -0.9341
16551TIP3   OH271143   0.588   4.957   2.677  0.4246  0.4496 -0.0594
16551TIP3    H171144   0.534   4.935   2.601 -1.3536 -0.2596  1.3304
16551TIP3    H271145   0.560   5.046   2.701 -1.2629 -0.4458  1.5150
16552TIP3   OH271146   5.424   0.031  13.459  0.3558 -0.1987 -0.1565
16552TIP3    H171147   5.433  -0.018  13.541 -2.8412 -1.2248 -0.2910
16552TIP3    H271148   5.494  -0.003  13.404  0.5612 -1.8937  1.0515
16553TIP3   OH271149   2.040   4.932   0.760  0.3105  0.3341  0.4518
16553TIP3    H171150   1.965   4.929   0.821  0.4923 -0.0992  0.6590
16553TIP3    H271151   2.007   4.981   0.685 -0.6031 -0.9297 -0.0161
16554TIP3   OH271152   4.765   3.089   5.295 -0.0498  0.1796 -0.5862
16554TIP3    H171153   4.697   3.149   5.263 -0.8849  0.0879  0.9202
16554TIP3    H271154   4.724   3.002   5.291  0.7137 -0.1613 -1.5600
16555TIP3   OH271155   3.970   3.108   0.192 -0.3654 -0.2987 -0.0588
16555TIP3    H171156   3.891   3.139   0.147  1.4299  2.0361 -1.9164
16555TIP3    H271157   3.995   3.029   0.144 -1.1435 -0.6371  0.0736
16556TIP3   OH271158   3.743   0.907  11.549 -0.0315 -0.5912  0.2105
16556TIP3    H171159   3.735   0.910  11.644  0.0157 -0.9117  0.2281
16556TIP3    H271160   3.819   0.962  11.528 -0.9950  0.7928  0.2229
16557TIP3   OH271161   4.878   4.284  11.992  0.0841 -0.3383  0.1376
16557TIP3    H171162   4.849   4.193  12.002 -1.4398  0.1504  0.3827
16557TIP3    H271163   4.962   4.287  12.038  0.4073 -1.7268 -0.2946
16558TIP3   OH271164   6.751   4.630   1.464 -0.1899 -0.0211 -0.0894
16558TIP3    H171165   6.845   4.631   1.447 -0.3514 -0.2729 -1.0415
16558TIP3    H271166   6.720   4.715   1.434 -0.5219 -0.5762 -1.3758
16559TIP3   OH271167   0.597   1.840   4.566 -0.0992 -0.1095 -0.1758
16559TIP3    H171168   0.627   1.898   4.636 -0.6123 -1.3117  1.0878
16559TIP3    H271169   0.648   1.867   4.490 -1.5422  3.1428 -0.1409
16560TIP3   OH271170   3.211   6.524   2.537 -0.1275 -0.4912  0.2158
16560TIP3    H171171   3.167   6.605   2.563  0.0929 -0.0824 -0.6412
16560TIP3    H271172   3.293   6.554   2.497 -0.9440 -1.0013 -1.9429
16561TIP3   OH271173   5.917   0.795   0.179 -0.0702 -0.0047 -0.0619
16561TIP3    H171174   5.878   0.733   0.117 -0.6926 -0.4809  0.7927
16561TIP3    H271175   5.842   0.839   0.219  0.3555  1.1355 -0.4755
16562TIP3   OH271176   5.085   0.165  15.095  0.7458 -0.7483  0.2911
16562TIP3    H171177   5.026   0.124  15.158  0.1447  0.5425  0.6036
16562TIP3    H271178   5.027   0.208  15.033  1.3478  0.3296  0.4534
16563TIP3   OH271179   3.881   5.326  14.816  0.1469  0.3650 -0.1562
16563TIP3    H171180   3.839   5.243  14.838 -0.2063 -0.2979 -2.8705
16563TIP3    H271181   3.969   5.301  14.786  0.1120  0.9628 -0.7919
16564TIP3   OH271182   2.220   6.119   1.363 -0.3915 -0.6204  0.3502
16564TIP3    H171183   2.127   6.110   1.383 -0.4750 -0.3611  0.0945
16564TIP3    H271184   2.241   6.043   1.309 -0.8416  0.1304 -0.9346
16565TIP3   OH271185   0.595   6.166   2.929  0.0503 -0.3122  0.2817
16565TIP3    H171186   0.666   6.225   2.906 -0.0346 -0.6437 -0.8968
16565TIP3    H271187   0.639   6.090   2.969  0.1638  0.4531  1.6856
16566TIP3   OH271188   2.647   0.099   1.949 -0.1171  0.3038  0.1743
16566TIP3    H171189   2.678   0.013   1.921  1.8916  0.8906  0.4388
16566TIP3    H271190   2.683   0.160   1.885 -0.7530  1.0502  0.4997
16567TIP3   OH271191   6.196   4.972   2.614 -0.9874  0.3172 -0.4392
16567TIP3    H171192   6.235   4.945   2.698  1.7719  1.9160 -1.0702
16567TIP3    H271193   6.132   5.039   2.638 -0.1537  0.8374  0.4369
16568TIP3   OH271194   3.259   2.082   4.694  0.2654 -1.1219  0.8478
16568TIP3    H171195   3.291   1.996   4.721 -0.9514 -2.3225 -1.2165
16568TIP3    H271196   3.176   2.093   4.741  0.3669 -1.1528  1.0315
16569TIP3   OH271197   4.002   0.500  16.201 -0.0850  0.0836 -0.3620
16569TIP3    H171198   4.083   0.542  16.230  0.2915 -1.1732  0.4978
16569TIP3    H271199   3.944   0.573  16.178  0.5310  1.0712  1.0842
16570TIP3   OH271200   1.104   4.889   2.826  0.3030 -0.4611 -0.0019
16570TIP3    H171201   1.053   4.932   2.895  2.0121  1.6706  0.0415
16570TIP3    H271202   1.045   4.887   2.751  0.0355  1.8680  0.0684
16571TIP3   OH271203   1.031   3.652   3.927 -0.4366  0.5268  0.0478
16571TIP3    H171204   1.077   3.668   3.845 -0.2848 -0.5590 -0.0925
16571TIP3    H271205   0.939   3.668   3.906 -0.3915  0.3201 -0.3200
16572TIP3   OH271206   5.295   3.548  16.519 -0.4098 -0.1692  0.1197
16572TIP3    H171207   5.298   3.472  16.578  2.3570  0.9216  1.5965
16572TIP3    H271208   5.339   3.519  16.440 -2.6447 -1.1391 -0.8308
16573TIP3   OH271209   4.982   0.900  14.718 -0.0979 -0.7363 -0.4718
16573TIP3    H171210   4.945   0.974  14.669 -0.1195 -0.7756 -0.5136
16573TIP3    H271211   5.066   0.933  14.750 -0.0420 -0.7416 -0.6122
16574TIP3   OH271212   2.779   1.675   0.105  0.7952  0.5367  0.1113
16574TIP3    H171213   2.692   1.659   0.140  0.4249  0.6189 -0.7515
16574TIP3    H271214   2.839   1.644   0.173  0.1263 -1.8315 -0.2868
16575TIP3   OH271215   3.590   4.537   3.135  0.6850  0.0015 -0.1575
16575TIP3    H171216   3.673   4.511   3.174  0.2614 -1.6401 -0.2805
16575TIP3    H271217   3.548   4.591   3.202  1.3740 -0.0605  0.3356
16576TIP3   OH271218   3.145   0.883   4.569  0.6526 -0.1750  0.7247
16576TIP3    H171219   3.236   0.876   4.540 -0.1796 -0.3260 -2.1400
16576TIP3    H271220   3.110   0.794   4.558 -0.5936  0.4923 -1.3049
16577TIP3   OH271221   1.700   3.000  13.111  0.0991  0.1378 -0.2663
16577TIP3    H171222   1.674   3.000  13.204 -1.6397 -1.6985 -0.6908
16577TIP3    H271223   1.643   3.065  13.071  0.6425  0.7124 -0.1309
16578TIP3   OH271224   1.313   2.726   2.631  0.5422  0.0602  0.0726
16578TIP3    H171225   1.291   2.807   2.585 -3.0657  0.2446  1.8054
16578TIP3    H271226   1.301   2.657   2.566  0.8213  0.6701 -0.6413
16579TIP3   OH271227   6.509   1.227   4.888  0.4914  0.2553  0.0434
16579TIP3    H171228   6.462   1.175   4.953 -2.0253  1.0954 -0.9679
16579TIP3    H271229   6.494   1.181   4.806  1.8699  0.3172 -0.2580
16580TIP3   OH271230   3.844   6.602  17.185  0.3928  0.2526  0.9705
16580TIP3    H171231   3.853   6.632  17.275  0.1360 -0.3730  1.2148
16580TIP3    H271232   3.754   6.625  17.161  0.8847  1.6700  0.3839
16581TIP3   OH271233   1.359   4.720   3.931  0.3224  0.4844  0.0675
16581TIP3    H171234   1.412   4.739   4.008 -0.7194  2.3181  0.4035
16581TIP3    H271235   1.414   4.664   3.876  1.6892  0.4588  1.4199
16582TIP3   OH271236   5.149   1.013   0.739 -0.0086  0.2837  0.1608
16582TIP3    H171237   5.107   1.082   0.791 -1.7599 -0.3804 -0.3075
16582TIP3    H271238   5.079   0.949   0.725  1.4901 -1.4289  0.3022
16583TIP3   OH271239   3.654   5.614  11.706  0.1407 -0.4025 -0.7040
16583TIP3    H171240   3.640   5.532  11.754 -1.4496  0.3031  0.0920
16583TIP3    H271241   3.567   5.641  11.678  0.7766  0.4270 -2.0004
16584TIP3   OH271242   4.239   0.971  13.721 -0.2208  0.6024  0.0814
16584TIP3    H171243   4.314   1.030  13.716 -0.8330  1.4258  0.3969
16584TIP3    H271244   4.174   1.009  13.661  0.0777 -0.8196 -1.2030
16585TIP3   OH271245   0.712   0.504   5.338 -0.1729  0.1868 -0.0357
16585TIP3    H171246   0.661   0.423   5.349 -0.9382  0.7636  0.7549
16585TIP3    H271247   0.800   0.481   5.367 -0.8054  0.0961  1.9081
16586TIP3   OH271248   6.181   2.569   5.129 -0.6120  0.0242  0.0511
16586TIP3    H171249   6.221   2.656   5.135 -0.1934 -0.1851  0.3474
16586TIP3    H271250   6.087   2.585   5.132 -0.5240  0.4032  0.8966
16587TIP3   OH271251   3.516   2.242  15.209 -0.5547  0.6133  0.2566
16587TIP3    H171252   3.598   2.258  15.164 -0.1724 -0.0885  0.6891
16587TIP3    H271253   3.521   2.295  15.289  0.0396 -0.3750  0.9099
16588TIP3   OH271254   3.874   3.728  15.958 -0.2874 -0.0738 -0.1727
16588TIP3    H171255   3.877   3.822  15.978  1.6183 -0.0499 -0.3903
16588TIP3    H271256   3.796   3.696  16.004 -1.0454  1.6227 -0.1994
16589TIP3   OH271257   2.239   2.945  12.535  0.0181 -0.0384  0.3973
16589TIP3    H171258   2.219   2.866  12.485 -0.9943 -0.2556  1.1109
16589TIP3    H271259   2.182   3.012  12.497 -0.4919 -0.1185  0.9939
16590TIP3   OH271260   0.616   2.892   0.014 -0.5193 -0.3829  0.3607
16590TIP3    H171261   0.575   2.809  -0.010 -0.7463 -0.0832 -0.2878
16590TIP3    H271262   0.647   2.929  -0.069 -0.9339  0.4583  0.5713
16591TIP3   OH271263   6.127   3.827  13.415  0.0463  0.2778 -0.1837
16591TIP3    H171264   6.051   3.869  13.455 -0.5776 -0.2721 -0.7861
16591TIP3    H271265   6.202   3.872  13.455 -0.5672  0.3251  0.9539
16592TIP3   OH271266   5.698   6.553  13.328  0.1959 -0.5854  0.4330
16592TIP3    H171267   5.681   6.535  13.235 -1.4242 -1.3506  0.8304
16592TIP3    H271268   5.693   6.649  13.335  0.9660 -0.4797 -0.3724
16593TIP3   OH271269   0.911   2.829  12.532 -0.5821  0.0186  0.2775
16593TIP3    H171270   0.830   2.790  12.498 -0.2011 -0.3025 -0.2985
16593TIP3    H271271   0.953   2.866  12.455 -0.5985  0.9659  0.7168
16594TIP3   OH271272   5.632   1.931   2.146  0.3748  0.2466  0.3405
16594TIP3    H171273   5.687   1.925   2.068  0.1267  0.4790  0.1430
16594TIP3    H271274   5.661   1.860   2.203 -2.1229 -2.6269 -1.6656
16595TIP3   OH271275   2.945   4.946  12.970  0.0044 -0.3482  0.4221
16595TIP3    H171276   2.873   4.894  12.933 -0.1525  1.4661 -2.0708
16595TIP3    H271277   3.000   4.882  13.016 -1.9510 -2.1402  0.4251
16596TIP3   OH271278   6.520   4.266   5.510  0.0870 -0.1579 -0.5339
16596TIP3    H171279   6.594   4.206   5.522 -0.8920 -1.4891 -0.9567
16596TIP3    H271280   6.458   4.241   5.578 -0.1729  0.6629 -0.4572
16597TIP3   OH271281   5.075   2.311   4.914 -0.0818  0.7168  0.3203
16597TIP3    H171282   5.125   2.259   4.852 -0.0790  1.2578 -0.1415
16597TIP3    H271283   5.139   2.339   4.979  0.1100  0.9386  0.0402
16598TIP3   OH271284   4.465   4.646   5.682  0.4983  0.3819  0.8633
16598TIP3    H171285   4.481   4.739   5.669 -1.1429  0.5452 -0.1856
16598TIP3    H271286   4.531   4.603   5.627 -1.2814  1.0127 -1.9522
16599TIP3   OH271287   3.978   6.655   6.272  0.7191  0.1894 -0.3642
16599TIP3    H171288   3.940   6.739   6.247 -0.4558 -0.1526  0.2323
16599TIP3    H271289   4.009   6.669   6.362  0.9011  0.0958 -0.4109
16600TIP3   OH271290   1.975   6.395   4.131 -0.1439 -0.7554  0.0518
16600TIP3    H171291   2.061   6.384   4.172 -0.7589 -0.8758  1.3895
16600TIP3    H271292   1.954   6.309   4.094  0.8418 -0.3901 -1.4120
16601TIP3   OH271293   1.931   3.659  12.058  0.7442  0.1961  0.0215
16601TIP3    H171294   2.009   3.658  12.002 -0.2500 -0.3063 -1.4219
16601TIP3    H271295   1.904   3.751  12.059  0.8336  0.2258 -0.2382
16602TIP3   OH271296   5.686   2.568   0.963  0.3946 -0.8206  0.3437
16602TIP3    H171297   5.744   2.563   0.887  0.5902  2.0353  0.1985
16602TIP3    H271298   5.693   2.481   1.004  1.3100 -1.9948 -2.1097
16603TIP3   OH271299   3.762   2.728  17.125  0.0840 -0.5660  0.5621
16603TIP3    H171300   3.804   2.768  17.049 -1.0337  1.3255  0.8664
16603TIP3    H271301   3.788   2.636  17.121  1.9127 -0.0538 -0.7997
16604TIP3   OH271302   5.813   6.654  14.435  0.0544 -0.6505  0.1375
16604TIP3    H171303   5.866   6.638  14.357 -0.5256  0.4896 -0.5084
16604TIP3    H271304   5.730   6.689  14.402 -0.6363 -1.1997  1.2002
16605TIP3   OH271305   4.586   1.326   5.071 -0.2519 -0.6449 -0.3645
16605TIP3    H171306   4.669   1.281   5.085 -0.9568 -2.2817 -1.2933
16605TIP3    H271307   4.595   1.408   5.121  1.0281 -1.8212  1.4495
16606TIP3   OH271308   2.933   4.853  17.192  0.2192  0.1314  0.5090
16606TIP3    H171309   2.982   4.790  17.245  0.8139  1.2638  1.3522
16606TIP3    H271310   2.843   4.847  17.224  0.2049 -0.5159  0.3558
16607TIP3   OH271311   1.692   6.508   3.408 -0.2498 -0.4250  0.1606
16607TIP3    H171312   1.753   6.510   3.334 -2.2551 -2.3700 -1.6951
16607TIP3    H271313   1.748   6.497   3.485  1.7891 -1.2957 -1.3528
16608TIP3   OH271314   3.422   5.469  10.598 -0.4192 -0.0403  0.0322
16608TIP3    H171315   3.348   5.530  10.609 -0.3704 -0.1188  0.8286
16608TIP3    H271316   3.499   5.525  10.599 -0.4309 -0.0170 -0.2386
16609TIP3   OH271317   1.914   6.782   4.927 -0.0130 -0.1302 -0.2784
16609TIP3    H171318   2.005   6.758   4.914  0.2571  0.2255  0.8917
16609TIP3    H271319   1.907   6.804   5.020 -1.3083 -0.2334 -0.3280
16610TIP3   OH271320   6.213   4.869  14.516 -0.2705  0.0341 -0.1739
16610TIP3    H171321   6.147   4.937  14.511  0.4925  0.7606 -0.7357
16610TIP3    H271322   6.164   4.787  14.518 -1.2206  0.3026 -4.0133
16611TIP3   OH271323   4.127   4.819  11.397 -0.0569 -0.2452 -0.1464
16611TIP3    H171324   4.202   4.778  11.442  0.5282  0.6887 -0.2341
16611TIP3    H271325   4.051   4.791  11.448  0.4029 -0.7984  0.2566
16612TIP3   OH271326   3.485   3.079  15.541  0.2624  0.2268  0.4721
16612TIP3    H171327   3.540   3.156  15.532 -1.6345  1.8928  2.0952
16612TIP3    H271328   3.498   3.050  15.631 -1.6235  0.8477  0.9975
16613TIP3   OH271329   1.612   6.001  16.177  0.0975  0.8259 -0.2208
16613TIP3    H171330   1.706   6.014  16.185 -0.0336  1.3610  0.6065
16613TIP3    H271331   1.581   6.076  16.126  0.1751  0.4045 -0.8972
16614TIP3   OH271332   1.193   1.455  15.813 -0.3971  0.5163 -0.0226
16614TIP3    H171333   1.287   1.464  15.823 -0.2254 -1.8741  1.1987
16614TIP3    H271334   1.159   1.545  15.821  1.6883  1.3524  0.0562
16615TIP3   OH271335   5.709   1.752   6.162  0.3538 -0.3589  0.3616
16615TIP3    H171336   5.739   1.668   6.128 -0.2614 -0.4208 -0.0532
16615TIP3    H271337   5.614   1.750   6.149  0.2985  0.2673  0.6432
16616TIP3   OH271338   0.574   5.442  16.893 -0.3509 -0.7538  0.2300
16616TIP3    H171339   0.663   5.476  16.906 -0.5380 -0.8828  2.2210
16616TIP3    H271340   0.517   5.516  16.913 -0.6929 -1.1902  0.9277
16617TIP3   OH271341   1.054   5.645   1.460  0.0880  0.3871 -0.1769
16617TIP3    H171342   1.112   5.582   1.417  1.9730  1.5741  0.5039
16617TIP3    H271343   1.041   5.714   1.395 -0.8305 -0.0110 -0.4288
16618TIP3   OH271344   5.211   3.440  11.865  0.5592 -0.8517  0.4871
16618TIP3    H171345   5.171   3.370  11.916 -0.5950 -1.4992 -1.2403
16618TIP3    H271346   5.192   3.418  11.774  0.7606  1.3403 -0.1409
16619TIP3   OH271347   3.336   6.383   3.243 -0.2534  0.6825  0.5073
16619TIP3    H171348   3.417   6.419   3.278  0.0947  0.9740 -0.5448
16619TIP3    H271349   3.308   6.318   3.307  1.3999 -0.2212  0.3563
16620TIP3   OH271350   2.674   0.805  13.997  0.2369 -0.1917  0.3854
16620TIP3    H171351   2.650   0.783  13.907 -0.7519 -0.1837  0.6322
16620TIP3    H271352   2.598   0.779  14.049  0.3183  0.8893  1.0755
16621TIP3   OH271353   2.284   2.337   0.782 -0.2167  0.2196 -0.4891
16621TIP3    H171354   2.348   2.407   0.777  0.8895 -0.7927 -1.0910
16621TIP3    H271355   2.202   2.376   0.753  0.0033  1.6683  0.7657
16622TIP3   OH271356   3.214   1.835  12.740  0.3055 -0.1109  0.0113
16622TIP3    H171357   3.274   1.773  12.699 -1.3028 -0.9001 -1.2414
16622TIP3    H271358   3.271   1.906  12.770  2.0139 -1.4815  0.1549
16623TIP3   OH271359   2.267   2.941  14.245 -0.4924  0.3636  0.0671
16623TIP3    H171360   2.213   2.985  14.310  0.2550  0.5280  0.5979
16623TIP3    H271361   2.357   2.961  14.271 -0.1377 -0.9945 -0.0103
16624TIP3   OH271362   5.161   5.743  16.639 -0.2683  0.1379  0.0943
16624TIP3    H171363   5.232   5.681  16.655 -0.5818 -0.4005 -0.5163
16624TIP3    H271364   5.176   5.814  16.701 -0.2046 -0.7985  1.1936
16625TIP3   OH271365   3.761   0.928  15.762 -0.1953 -0.0877  0.3586
16625TIP3    H171366   3.680   0.938  15.812 -0.8225  0.0842 -0.6439
16625TIP3    H271367   3.801   1.014  15.763 -0.7390  0.1866 -0.2815
16626TIP3   OH271368   5.565   0.634   3.164 -0.0510  0.2192  0.2892
16626TIP3    H171369   5.590   0.630   3.256  2.0653  1.5081 -0.1502
16626TIP3    H271370   5.645   0.612   3.116 -0.7827  0.6862 -1.2389
16627TIP3   OH271371   0.870   6.258   3.668  0.6589  0.0845  0.0562
16627TIP3    H171372   0.927   6.334   3.655 -2.1624  2.1778 -1.0797
16627TIP3    H271373   0.905   6.216   3.747  3.3698  1.5214 -0.2483
16628TIP3   OH271374   5.368   0.749  13.598  0.2732  0.1119 -0.3958
16628TIP3    H171375   5.307   0.743  13.525 -0.8586  0.4476  0.4810
16628TIP3    H271376   5.415   0.831  13.583 -0.2450  0.3876 -0.5444
16629TIP3   OH271377   2.516   5.570  16.217  0.0990  0.6064 -0.2044
16629TIP3    H171378   2.466   5.601  16.141  2.3662  2.0021 -1.2456
16629TIP3    H271379   2.503   5.637  16.284 -0.9872 -0.0578  0.2830
16630TIP3   OH271380   3.003   6.402   2.708 -0.6102 -0.2498  0.4984
16630TIP3    H171381   3.048   6.459   2.645 -1.9160  0.9731  0.6142
16630TIP3    H271382   3.073   6.351   2.748  0.2322 -1.7810 -2.5730
16631TIP3   OH271383   0.305   3.588  12.553 -0.2341  0.1521 -0.4400
16631TIP3    H171384   0.222   3.551  12.524 -0.2128  1.1487 -1.8641
16631TIP3    H271385   0.285   3.679  12.574 -0.2218 -0.4591  2.7166
16632TIP3   OH271386   5.608   2.335  16.892  0.1095 -0.4101 -0.2719
16632TIP3    H171387   5.611   2.429  16.877 -2.0819 -0.5277 -1.9694
16632TIP3    H271388   5.544   2.324  16.963  1.4482 -0.5698  0.9407
16633TIP3   OH271389   1.064   3.909  14.852 -0.7065 -0.5140 -0.2639
16633TIP3    H171390   1.001   3.940  14.916 -1.0933 -0.7959 -0.5085
16633TIP3    H271391   1.046   3.816  14.843  1.8201 -1.3679  2.0682
16634TIP3   OH271392   6.537   2.867  15.740 -0.3138  0.2073 -0.2233
16634TIP3    H171393   6.576   2.943  15.696  0.6928 -0.8241 -1.2127
16634TIP3    H271394   6.511   2.809  15.668 -0.5189 -0.6412  0.5163
16635TIP3   OH271395   0.007   6.268   2.341  0.3725  0.2791 -0.5448
16635TIP3    H171396  -0.009   6.285   2.248  0.8925  1.1473 -0.4898
16635TIP3    H271397   0.089   6.315   2.360 -0.1216  0.7432  0.5203
16636TIP3   OH271398   2.423   0.783  10.547 -0.1907  0.7004  0.3520
16636TIP3    H171399   2.428   0.860  10.490 -2.3709  2.8914  2.8437
16636TIP3    H271400   2.340   0.741  10.524  0.0892  0.1854  0.2747
16637TIP3   OH271401   3.313   4.346  16.007 -0.1568 -0.0825 -0.7502
16637TIP3    H171402   3.277   4.409  15.945 -1.4217  0.2250  0.2346
16637TIP3    H271403   3.350   4.277  15.952  0.8991  1.3012 -1.8458
16638TIP3   OH271404   0.288   6.001   0.253 -0.7126 -0.2728 -0.1659
16638TIP3    H171405   0.360   5.959   0.205 -1.2841 -1.1945 -0.2454
16638TIP3    H271406   0.279   6.087   0.213  1.2480  0.4168  0.7612
16639TIP3   OH271407   0.606   6.514   4.534  0.0566 -1.0909 -0.4410
16639TIP3    H171408   0.539   6.446   4.521  0.5102 -1.1833 -2.6014
16639TIP3    H271409   0.623   6.548   4.447 -0.6336  2.3497  0.6109
16640TIP3   OH271410   6.377   0.281  15.158 -0.2640 -0.0237  0.1725
16640TIP3    H171411   6.396   0.210  15.095 -1.6723 -0.1448 -0.1440
16640TIP3    H271412   6.314   0.337  15.112 -0.8848  0.1969  1.2797
16641TIP3   OH271413   5.308   3.608  10.244  0.4104 -0.3806 -0.3523
16641TIP3    H171414   5.345   3.679  10.297  1.0962 -1.3796  0.5593
16641TIP3    H271415   5.217   3.602  10.272  1.1251 -1.9299  1.9848
16642TIP3   OH271416   0.924   2.819  13.719 -0.2609 -0.2494 -0.3808
16642TIP3    H171417   0.828   2.817  13.725 -0.2640 -1.3812 -0.4974
16642TIP3    H271418   0.942   2.799  13.627  0.0850  0.2289 -0.4188
16643TIP3   OH271419   2.606   0.695  13.773 -0.0802 -0.1173 -0.6056
16643TIP3    H171420   2.640   0.756  13.707 -1.1857  0.4907 -0.6482
16643TIP3    H271421   2.577   0.619  13.722 -0.2922  0.0609 -0.7567
16644TIP3   OH271422   1.367   1.058   5.573 -0.2484  0.5986 -0.1830
16644TIP3    H171423   1.314   1.107   5.636 -0.9698 -0.1223 -0.2065
16644TIP3    H271424   1.310   1.048   5.497 -0.8401 -1.8332  0.4964
16645TIP3   OH271425   2.018   4.453   2.282  0.2037 -0.2032 -0.5067
16645TIP3    H171426   2.105   4.478   2.315 -0.5265  0.8828  0.6596
16645TIP3    H271427   1.961   4.525   2.306 -0.7151 -0.0707 -2.8571
16646TIP3   OH271428   2.198   3.148   5.119 -0.1652 -0.3951  0.7530
16646TIP3    H171429   2.165   3.235   5.098  0.9408  0.0988  0.9555
16646TIP3    H271430   2.151   3.089   5.061 -0.8349  0.3537  0.5185
16647TIP3   OH271431   2.987   6.388   2.026 -0.7368  0.0278 -0.1333
16647TIP3    H171432   3.058   6.327   2.005 -0.4286  0.7101 -1.1397
16647TIP3    H271433   2.908   6.346   1.991 -0.7195 -0.3552  0.2729
16648TIP3   OH271434   6.179   1.585  14.124  0.1097 -0.5517  0.3557
16648TIP3    H171435   6.135   1.632  14.053  0.4520 -1.0799 -0.2156
16648TIP3    H271436   6.142   1.497  14.121  0.0772 -0.5568  0.8783
16649TIP3   OH271437   5.138   5.159   5.333 -0.1120 -0.6072  0.0142
16649TIP3    H171438   5.147   5.246   5.370 -1.7745  0.5161 -2.0091
16649TIP3    H271439   5.214   5.149   5.275  0.1679 -0.5790  0.3771
16650TIP3   OH271440   1.002   6.546  15.606  0.0074 -0.4938  0.2426
16650TIP3    H171441   0.994   6.605  15.681 -0.0074 -1.7711  1.2858
16650TIP3    H271442   1.083   6.571  15.564 -1.1629  1.8374 -0.7709
16651TIP3   OH271443   3.984   2.003  14.619 -0.6233  0.4340  0.1372
16651TIP3    H171444   3.955   1.940  14.554 -0.1254 -1.5269  1.7133
16651TIP3    H271445   3.903   2.035  14.659 -0.8612  0.1618 -0.1202
16652TIP3   OH271446   5.188   0.192   3.744  0.5665  0.3739  0.1818
16652TIP3    H171447   5.223   0.164   3.660  0.3116  0.0194  0.1925
16652TIP3    H271448   5.141   0.116   3.778  0.2134  0.6802  0.3983
16653TIP3   OH271449   1.279   0.181  13.535 -0.3329  0.2045  0.2769
16653TIP3    H171450   1.280   0.086  13.550  0.0504  0.2807  0.7549
16653TIP3    H271451   1.325   0.192  13.451  1.4011  0.1087  1.1632
16654TIP3   OH271452   5.325   1.692   4.892  0.0892 -0.1797 -0.3941
16654TIP3    H171453   5.311   1.662   4.982  0.6337 -1.6832 -0.7870
16654TIP3    H271454   5.245   1.669   4.846 -0.0254  0.2133 -0.3929
16655TIP3   OH271455   5.167   4.079  14.918 -0.0049  0.0117  1.1069
16655TIP3    H171456   5.073   4.094  14.915 -0.0075 -0.0853  0.0863
16655TIP3    H271457   5.205   4.164  14.938 -0.2443  0.4449 -0.1485
16656TIP3   OH271458   3.181   2.655   4.506 -0.1661  0.0114 -0.2887
16656TIP3    H171459   3.184   2.565   4.474  0.5723 -0.2666  0.4914
16656TIP3    H271460   3.206   2.648   4.598  1.2622  1.1507 -0.5419
16657TIP3   OH271461   5.102   2.469   6.054  0.1176 -0.1929  0.1595
16657TIP3    H171462   5.037   2.535   6.076 -2.0333 -1.3456 -2.1770
16657TIP3    H271463   5.074   2.391   6.101  0.9266 -0.2166  0.6092
16658TIP3   OH271464   2.915   2.281  13.978  0.0531 -0.0418  0.2810
16658TIP3    H171465   2.821   2.277  13.996 -0.0581  0.7327 -0.1190
16658TIP3    H271466   2.925   2.356  13.920  0.6915 -1.1422 -1.0907
16659TIP3   OH271467   3.450   0.045   5.211 -0.1156 -0.2005  0.8400
16659TIP3    H171468   3.369   0.018   5.254  0.5400  0.3890  2.5196
16659TIP3    H271469   3.503  -0.034   5.210 -0.8930 -0.7378 -0.7879
16660TIP3   OH271470   4.654   0.214   4.987 -0.0148 -0.1892  0.0862
16660TIP3    H171471   4.739   0.198   5.028  0.1013 -0.3723 -0.2222
16660TIP3    H271472   4.592   0.166   5.041  0.1689 -0.6374 -0.1024
16661TIP3   OH271473   4.578   3.926  16.935  0.6438  0.6302  0.5203
16661TIP3    H171474   4.609   4.015  16.950  0.3832  0.8114  0.0212
16661TIP3    H271475   4.584   3.915  16.840  0.9251  0.0222  0.6086
16662TIP3   OH271476   0.352   1.171   0.261  0.0050  0.3232  0.3621
16662TIP3    H171477   0.324   1.224   0.186 -1.3950  0.7977  1.1828
16662TIP3    H271478   0.272   1.132   0.294  0.8983 -1.6883  0.2910
16663TIP3   OH271479   5.471   0.720   0.772  0.3359  0.3835  0.1792
16663TIP3    H171480   5.497   0.737   0.863  1.0754 -1.5483  0.3775
16663TIP3    H271481   5.540   0.760   0.719 -0.4277  2.0849  0.3958
16664TIP3   OH271482   6.747   4.523  17.145  0.7471 -0.1295  0.1770
16664TIP3    H171483   6.841   4.539  17.150  0.6721 -0.0377  2.1716
16664TIP3    H271484   6.733   4.442  17.195 -0.1383 -0.7125 -0.9504
16665TIP3   OH271485   1.677   3.754   4.400  0.2150  0.2423 -0.4122
16665TIP3    H171486   1.678   3.812   4.324  1.5310  1.7527  0.7009
16665TIP3    H271487   1.591   3.768   4.440  0.9386  2.4422  0.5246
16666TIP3   OH271488   4.553   3.328   2.200 -0.1472 -0.4937 -0.1046
16666TIP3    H171489   4.518   3.417   2.192 -0.7528 -0.8689 -2.1561
16666TIP3    H271490   4.504   3.289   2.273 -1.4581  0.1428 -0.6304
16667TIP3   OH271491   1.159   4.312  13.865  0.2223 -0.2604  0.6837
16667TIP3    H171492   1.209   4.240  13.825 -0.1676 -0.9277  1.3759
16667TIP3    H271493   1.108   4.270  13.934  0.2732  0.7501  1.3495
16668TIP3   OH271494   0.701   2.676  16.693  0.6505  0.6236  0.4670
16668TIP3    H171495   0.617   2.643  16.660  1.0956 -1.3490  1.2187
16668TIP3    H271496   0.740   2.720  16.617 -1.5360  2.6848  0.4014
16669TIP3   OH271497   6.604   5.505  14.835  0.3136 -0.4616 -0.2286
16669TIP3    H171498   6.690   5.463  14.836 -0.0835 -1.2982 -0.1420
16669TIP3    H271499   6.545   5.439  14.874 -0.8169 -0.9084 -2.5293
16670TIP3   OH271500   6.682   2.010   2.738  0.6886 -0.0656  0.3992
16670TIP3    H171501   6.612   2.064   2.774  1.3046  0.9891  0.0612
16670TIP3    H271502   6.756   2.070   2.730  0.3399  0.0624 -3.5209
16671TIP3   OH271503   0.777   3.662  17.052  0.4306 -0.1074  0.4831
16671TIP3    H171504   0.708   3.654  17.118  0.0478  0.1868  0.1240
16671TIP3    H271505   0.773   3.754  17.024  0.1101 -0.3923 -0.4540
16672TIP3   OH271506   6.303   6.703  11.917  0.0801 -0.0136 -0.0858
16672TIP3    H171507   6.325   6.796  11.925  2.3751 -0.4694 -0.3818
16672TIP3    H271508   6.313   6.684  11.824 -0.1261 -0.6162  0.0146
16673TIP3   OH271509   3.841   0.234  13.603  0.3137  0.0014  0.1761
16673TIP3    H171510   3.860   0.327  13.592  0.9170  0.0347  1.3868
16673TIP3    H271511   3.912   0.201  13.657 -0.4364 -0.9547  0.6026
16674TIP3   OH271512   2.795   1.820  12.905  0.4277 -0.2116  0.1047
16674TIP3    H171513   2.867   1.800  12.966  0.9812  0.7287 -0.2166
16674TIP3    H271514   2.733   1.748  12.917  1.4310 -1.0658  0.3690
16675TIP3   OH271515   5.539   5.045  17.122 -0.3904 -0.1251 -0.5608
16675TIP3    H171516   5.575   4.957  17.110  0.2714 -0.0862  0.9809
16675TIP3    H271517   5.541   5.083  17.034 -0.3971 -1.5280 -1.2005
16676TIP3   OH271518   0.504   0.529   0.675 -0.3919  0.1992  0.1837
16676TIP3    H171519   0.411   0.551   0.678 -0.8160 -1.5223  2.6043
16676TIP3    H271520   0.549   0.609   0.704 -1.2807  0.4479  0.9082
16677TIP3   OH271521   0.224   6.243   5.808 -0.0011 -0.3794  0.1846
16677TIP3    H171522   0.190   6.191   5.881 -2.4982  1.0747  0.1797
16677TIP3    H271523   0.287   6.302   5.849  0.4228 -1.1813  0.7288
16678TIP3   OH271524   5.462   4.157  10.727  0.2035  0.0659  0.0922
16678TIP3    H171525   5.532   4.221  10.731  1.0637 -0.8639  0.3433
16678TIP3    H271526   5.383   4.206  10.750  0.5181  1.4347 -1.5610
16679TIP3   OH271527   4.166   5.427  15.551 -0.7997  0.2603 -0.0771
16679TIP3    H171528   4.091   5.447  15.495 -1.0510  0.2393  0.2472
16679TIP3    H271529   4.186   5.335  15.533  0.9863  0.9971 -2.3143
16680TIP3   OH271530   1.498   0.197  12.733 -0.4067 -0.3586  0.1155
16680TIP3    H171531   1.497   0.156  12.819  1.5606 -0.0102  0.3459
16680TIP3    H271532   1.412   0.237  12.725 -1.3175 -1.9914  1.1047
16681TIP3   OH271533   3.013   0.001  14.163  0.2563 -0.2524 -0.2433
16681TIP3    H171534   2.941   0.059  14.189  0.3208 -0.3694  0.2159
16681TIP3    H271535   3.088   0.034  14.213  0.4578 -0.2963 -0.5186
16682TIP3   OH271536   1.702   3.621  16.729 -0.1056 -0.2886 -0.3690
16682TIP3    H171537   1.679   3.712  16.711  0.9030 -0.3067 -1.9793
16682TIP3    H271538   1.796   3.625  16.750 -0.0750 -0.9353 -0.3775
16683TIP3   OH271539   1.893   5.576   2.234  0.1030  0.2367  0.3713
16683TIP3    H171540   1.885   5.665   2.200 -1.1595 -0.1222 -0.3621
16683TIP3    H271541   1.970   5.540   2.192  0.4127  0.8618  0.3964
16684TIP3   OH271542   6.417   0.251   0.543  0.2825 -0.3575 -0.6383
16684TIP3    H171543   6.346   0.247   0.606 -0.3083  0.7930 -1.1861
16684TIP3    H271544   6.484   0.193   0.578  0.3285  0.8571  1.4929
16685TIP3   OH271545   5.063   0.886  12.044 -0.2959 -0.0687 -0.0444
16685TIP3    H171546   5.082   0.855  11.955  1.7927 -2.9715  1.2758
16685TIP3    H271547   5.096   0.976  12.044  1.5995 -0.6748 -1.6763
16686TIP3   OH271548   6.191   2.949   1.424  0.0596  0.2014  0.2794
16686TIP3    H171549   6.096   2.958   1.436  0.2361  0.3299  1.7289
16686TIP3    H271550   6.229   3.011   1.486  1.0967  0.6574 -0.7857
16687TIP3   OH271551   5.206   5.488   0.630  0.3919  0.0882  0.3846
16687TIP3    H171552   5.135   5.547   0.605  1.1570 -0.0215 -2.4487
16687TIP3    H271553   5.165   5.422   0.685 -1.0160  1.7483  1.4278
16688TIP3   OH271554   3.062   3.579   4.083  0.4342 -0.5249  0.0368
16688TIP3    H171555   3.058   3.490   4.118 -0.2586 -0.7407 -0.5792
16688TIP3    H271556   3.156   3.600   4.083  0.4631 -0.2316  2.6804
16689TIP3   OH271557   6.261   4.428  14.235  0.1597  0.8342 -0.4272
16689TIP3    H171558   6.329   4.455  14.297 -1.0974  0.5219  1.1540
16689TIP3    H271559   6.216   4.356  14.279 -1.4580  1.3029 -1.2443
16690TIP3   OH271560   3.779   3.759   4.719 -0.3420  0.1574 -0.1141
16690TIP3    H171561   3.703   3.817   4.726 -0.1488  0.4392 -0.3212
16690TIP3    H271562   3.767   3.695   4.789  0.9462  2.1751  2.0944
16691TIP3   OH271563   1.544   5.113  15.504 -0.0424 -0.4689 -0.0250
16691TIP3    H171564   1.467   5.063  15.475  0.0405 -1.8831  1.9234
16691TIP3    H271565   1.583   5.148  15.424 -0.9610 -2.3385 -1.3556
16692TIP3   OH271566   0.681   2.181  15.818 -0.9994 -0.2321  0.4855
16692TIP3    H171567   0.607   2.187  15.878 -2.1492 -1.9323 -0.6690
16692TIP3    H271568   0.652   2.121  15.750  1.2180 -0.4180 -0.3836
16693TIP3   OH271569   0.929   5.191   4.491 -0.0313  0.1931  0.1032
16693TIP3    H171570   0.975   5.272   4.514 -0.5728  0.4231  0.4088
16693TIP3    H271571   0.837   5.209   4.513 -0.2690 -0.2518 -0.5107
16694TIP3   OH271572   5.905   5.987   3.188  0.8902 -0.1574 -0.0520
16694TIP3    H171573   5.847   5.991   3.112  0.1731  1.5311  0.5266
16694TIP3    H271574   5.897   5.897   3.219 -0.1419 -0.4081 -0.9573
16695TIP3   OH271575   0.141   3.999  15.169  0.4371  0.6059  0.2950
16695TIP3    H171576   0.121   4.060  15.098  0.8186  0.7590  0.3209
16695TIP3    H271577   0.069   3.935  15.166  1.5982 -0.6918 -1.6730
16696TIP3   OH271578   2.738   1.175   3.226 -0.3915 -0.5262 -0.3155
16696TIP3    H171579   2.688   1.248   3.189 -1.5648 -1.0169  0.2169
16696TIP3    H271580   2.794   1.145   3.155  0.4803  1.1965 -0.3927
16697TIP3   OH271581   3.731   5.573  16.506 -0.1282 -0.0730  0.9874
16697TIP3    H171582   3.789   5.586  16.581  0.1183  0.6976  0.6688
16697TIP3    H271583   3.681   5.495  16.529 -0.7753  0.7205  2.4182
16698TIP3   OH271584   2.240   1.640   2.962 -0.1990  0.1748 -1.5421
16698TIP3    H171585   2.258   1.602   3.048 -2.7566  1.4177 -0.3127
16698TIP3    H271586   2.303   1.712   2.954 -0.4528  0.5698 -0.2788
16699TIP3   OH271587   6.546   0.891   4.541 -0.3968 -0.0133 -0.1791
16699TIP3    H171588   6.554   0.939   4.459 -1.4677 -1.2842 -1.0947
16699TIP3    H271589   6.631   0.849   4.554 -0.4451 -0.4158 -1.0783
16700TIP3   OH271590   0.497   3.628  16.996  0.1741  0.6270  0.0627
16700TIP3    H171591   0.526   3.573  17.068 -1.1825  0.4972  0.5341
16700TIP3    H271592   0.521   3.580  16.917  0.7976  0.3120  0.4419
16701TIP3   OH271593   2.355   5.154   1.986  0.6099  0.3092 -0.6661
16701TIP3    H171594   2.429   5.109   1.946 -0.0711 -0.1333 -1.4780
16701TIP3    H271595   2.284   5.090   1.984  0.6250  0.1662  1.5918
16702TIP3   OH271596   3.643   2.946   0.846 -0.0790 -0.4198  0.1531
16702TIP3    H171597   3.708   2.916   0.783 -0.4286 -0.4399 -0.1992
16702TIP3    H271598   3.619   3.034   0.816  1.1349  0.3538  1.3219
16703TIP3   OH271599   5.305   2.426  16.115 -0.2523 -0.2093 -0.4221
16703TIP3    H171600   5.387   2.460  16.152 -0.4961  0.1457 -0.1985
16703TIP3    H271601   5.249   2.411  16.191 -0.2524 -0.8446 -0.5421
16704TIP3   OH271602   2.400   6.178  16.404 -0.4427  0.1979  0.4169
16704TIP3    H171603   2.323   6.166  16.459 -2.1864  1.8147 -1.5213
16704TIP3    H271604   2.381   6.127  16.325  1.0245 -0.3150  0.3691
16705TIP3   OH271605   0.766   4.167   2.873 -0.6583  0.0232 -0.3611
16705TIP3    H171606   0.847   4.216   2.862 -0.2620 -0.7221 -0.8628
16705TIP3    H271607   0.757   4.155   2.967 -0.2709  0.2492 -0.2947
16706TIP3   OH271608   0.083   5.528  15.885  0.1865  0.6528 -0.9055
16706TIP3    H171609   0.004   5.481  15.910  0.2848 -0.0274 -1.8097
16706TIP3    H271610   0.088   5.601  15.946  0.1348 -0.6078  0.6738
16707TIP3   OH271611   5.439   0.600   1.356 -0.9357 -0.7059 -0.1463
16707TIP3    H171612   5.384   0.668   1.394 -1.5362 -1.0799 -0.3368
16707TIP3    H271613   5.504   0.581   1.424 -1.7550 -1.0866  0.5499
16708TIP3   OH271614   5.201   0.086  13.307  0.4540  0.4310 -0.1643
16708TIP3    H171615   5.273   0.089  13.370  1.1012 -2.0706 -0.6809
16708TIP3    H271616   5.162  -0.001  13.320  0.2872  0.0262 -2.8014
16709TIP3   OH271617   0.646   6.041  11.839 -0.1803  0.5880 -0.1789
16709TIP3    H171618   0.730   5.996  11.842  0.1836  1.2844  0.5965
16709TIP3    H271619   0.668   6.133  11.823 -0.5529  1.2710  2.6373
16710TIP3   OH271620   6.339   5.382  12.925  0.2599  0.3611 -0.2755
16710TIP3    H171621   6.269   5.333  12.969  0.0150  0.3163 -0.7134
16710TIP3    H271622   6.319   5.474  12.943  1.1404  0.3015  1.1901
16711TIP3   OH271623   4.720   5.101   1.516  0.0292 -0.4524 -0.0378
16711TIP3    H171624   4.657   5.173   1.523  1.9832  1.2851  0.5684
16711TIP3    H271625   4.677   5.028   1.561 -0.8144  1.2345  2.1058
16712TIP3   OH271626   3.796   3.071  15.912  0.1224 -0.6868  0.0077
16712TIP3    H171627   3.785   3.015  15.988  1.4926 -0.1298  0.6493
16712TIP3    H271628   3.890   3.067  15.893  0.0269  0.3350 -0.7552
16713TIP3   OH271629   4.029   0.486  14.221 -0.3405 -0.1022  0.6455
16713TIP3    H171630   4.062   0.417  14.279  0.8350  0.0215  0.1571
16713TIP3    H271631   3.989   0.440  14.148  1.6188 -0.3374 -0.3524
16714TIP3   OH271632   2.765   5.572   1.306  0.4752  0.1940  0.0795
16714TIP3    H171633   2.755   5.638   1.373 -0.2214  0.2837 -0.1111
16714TIP3    H271634   2.733   5.613   1.226 -0.8741 -0.6753  0.1385
16715TIP3   OH271635   5.666   6.179   6.574 -0.0135  0.0158 -0.0526
16715TIP3    H171636   5.751   6.192   6.615 -0.0548  1.5744 -0.3767
16715TIP3    H271637   5.629   6.102   6.617  1.2610 -0.2521  0.5857
16716TIP3   OH271638   4.284   2.086  17.040 -0.0484 -0.2622  0.5814
16716TIP3    H171639   4.202   2.036  17.031 -1.3131  1.4244  2.0058
16716TIP3    H271640   4.352   2.023  17.017 -1.6600 -2.0505  0.3471
16717TIP3   OH271641   2.433   2.688  12.547  0.3131 -0.1419  0.3053
16717TIP3    H171642   2.372   2.630  12.594  1.9412 -1.2368  1.1622
16717TIP3    H271643   2.399   2.691  12.458 -1.5381  0.0911  0.9762
16718TIP3   OH271644   6.141   6.052  11.707  0.1806 -0.0748 -0.6048
16718TIP3    H171645   6.074   5.989  11.678  1.6453 -2.3869  0.6728
16718TIP3    H271646   6.199   6.062  11.632  0.0309 -0.4372 -0.7730
16719TIP3   OH271647   4.174   3.414  13.478  0.6847 -0.5899 -0.5681
16719TIP3    H171648   4.252   3.464  13.502 -0.5364  0.2981  1.8747
16719TIP3    H271649   4.181   3.332  13.528  0.6052 -1.0195 -1.2472
16720TIP3   OH271650   5.938   2.690   4.746  0.2462 -0.0876 -0.2503
16720TIP3    H171651   5.879   2.762   4.723  0.5903 -0.1448 -1.3830
16720TIP3    H271652   5.887   2.635   4.806 -0.0238  1.0730  0.6189
16721TIP3   OH271653   0.297   2.130   5.597  0.0091 -0.0410 -0.2106
16721TIP3    H171654   0.308   2.199   5.532  1.9140 -1.5546 -1.5940
16721TIP3    H271655   0.234   2.166   5.660 -0.0106  2.4306 -1.5406
16722TIP3   OH271656   5.142   6.290  14.648  0.2741 -0.0046  0.9153
16722TIP3    H171657   5.168   6.275  14.557 -1.7029 -2.0623  0.6072
16722TIP3    H271658   5.079   6.362  14.642  1.4449  1.0708  0.9459
16723TIP3   OH271659   4.925   5.432  13.815  0.6237  0.3279 -0.1057
16723TIP3    H171660   4.934   5.480  13.733 -0.5060  0.8524  0.0552
16723TIP3    H271661   4.830   5.423  13.827  0.7068  1.7015  1.9544
16724TIP3   OH271662   0.988   0.300   0.002 -0.7595  0.3271 -0.4965
16724TIP3    H171663   1.072   0.254  -0.008  0.1489  1.8594 -0.1851
16724TIP3    H271664   1.012   0.391   0.018 -2.4144  0.4131  2.0900
16725TIP3   OH271665   5.293   2.604   0.611  0.1085  0.0757  0.1058
16725TIP3    H171666   5.352   2.555   0.667  0.0364 -0.8868 -0.6394
16725TIP3    H271667   5.350   2.647   0.547  0.0232 -0.8305 -0.5959
16726TIP3   OH271668   0.733   3.877   6.199 -0.6121  0.1608  0.0524
16726TIP3    H171669   0.638   3.873   6.207 -0.5840 -0.2898  0.1783
16726TIP3    H271670   0.751   3.967   6.172 -0.8619  1.1967  3.0440
16727TIP3   OH271671   0.635   3.516   2.587 -0.2305 -0.1524 -0.2147
16727TIP3    H171672   0.704   3.578   2.609  0.1518 -0.0486 -1.6321
16727TIP3    H271673   0.640   3.449   2.656  3.3492 -1.7983 -1.8220
16728TIP3   OH271674   6.473   1.534   3.967 -0.5674  0.2295  0.1758
16728TIP3    H171675   6.540   1.480   4.009 -0.1647  0.6476  0.0813
16728TIP3    H271676   6.462   1.496   3.880  0.2632  0.7533 -0.1660
16729TIP3   OH271677   0.856   0.740   2.787  0.3742  0.5063  0.7069
16729TIP3    H171678   0.810   0.675   2.734  1.2821  0.8240 -0.4983
16729TIP3    H271679   0.944   0.705   2.798  0.8609  1.5061  0.0858
16730TIP3   OH271680   1.425   6.474  16.104 -0.2148  0.8692  0.1829
16730TIP3    H171681   1.396   6.541  16.166  1.1710  2.0896 -0.4122
16730TIP3    H271682   1.494   6.517  16.053 -1.3543 -0.0258 -2.3005
16731TIP3   OH271683   4.508   1.076   1.398 -0.0729  0.5831  0.8789
16731TIP3    H171684   4.435   1.128   1.365 -0.6807 -0.9933 -0.3698
16731TIP3    H271685   4.532   1.118   1.481 -3.7829 -0.0671  2.4418
16732TIP3   OH271686   1.457   4.838   5.111  0.4413 -0.2515 -0.0703
16732TIP3    H171687   1.412   4.759   5.083 -3.9508  2.0439 -0.4483
16732TIP3    H271688   1.459   4.833   5.206 -0.4201 -0.5504 -0.0634
16733TIP3   OH271689   6.609   5.074  11.646  0.1062 -0.2033  0.1488
16733TIP3    H171690   6.606   4.983  11.615  1.1017 -0.0525 -0.4342
16733TIP3    H271691   6.611   5.126  11.566  0.9703  0.2726  0.4716
16734TIP3   OH271692   1.617   1.359   3.173 -0.2430  0.1102  0.2994
16734TIP3    H171693   1.658   1.393   3.094  0.4842 -1.0805  0.1366
16734TIP3    H271694   1.524   1.375   3.161 -0.1317  0.0253 -0.7717
16735TIP3   OH271695   2.437   5.761   5.548  0.3862 -0.0282 -0.3978
16735TIP3    H171696   2.413   5.677   5.587  1.8201 -0.8994 -1.3165
16735TIP3    H271697   2.483   5.807   5.618 -1.4704  0.5609  0.5123
16736TIP3   OH271698   1.326   0.732  14.521 -0.3136  0.6853 -0.0834
16736TIP3    H171699   1.270   0.654  14.516 -1.5368  1.5970 -1.7007
16736TIP3    H271700   1.309   0.778  14.439 -0.4673  3.1976  1.2768
16737TIP3   OH271701   1.929   1.397  13.025  0.1248  0.3004 -1.0596
16737TIP3    H171702   1.893   1.477  13.063  0.7840  0.3383 -0.5011
16737TIP3    H271703   1.866   1.372  12.957 -1.4696 -0.1624  0.5084
16738TIP3   OH271704   0.316   0.948   0.640  0.1325  0.1809 -0.0446
16738TIP3    H171705   0.362   0.932   0.723  1.6142 -1.0119 -1.0286
16738TIP3    H271706   0.350   1.033   0.610  0.4909  0.0655  0.0233
16739TIP3   OH271707   0.183   5.293  16.819  0.4389  0.3881  0.0069
16739TIP3    H171708   0.208   5.299  16.911 -0.4125 -0.8186  0.3440
16739TIP3    H271709   0.220   5.209  16.790 -1.9407 -0.8188  0.1726
16740TIP3   OH271710   0.732   4.424  15.995 -0.1677 -0.1098 -0.1147
16740TIP3    H171711   0.793   4.400  15.925 -1.3896  2.3067 -2.2139
16740TIP3    H271712   0.751   4.363  16.066  2.1412 -1.8073 -2.0109
16741TIP3   OH271713   1.775   3.874  12.139 -0.3620  0.2028  0.0160
16741TIP3    H171714   1.743   3.955  12.101  0.1515  0.5564  0.3222
16741TIP3    H271715   1.796   3.896  12.230 -0.6410 -0.3817  0.2319
16742TIP3   OH271716   0.284   0.279   0.545 -0.4917 -0.3940 -0.5704
16742TIP3    H171717   0.224   0.320   0.607 -0.5237 -2.3851  0.8241
16742TIP3    H271718   0.241   0.287   0.461 -1.3776  0.6835 -0.0377
16743TIP3   OH271719   2.546   0.216  12.730  0.2072  0.2761  0.0174
16743TIP3    H171720   2.497   0.221  12.648 -1.8240  1.0382  1.2058
16743TIP3    H271721   2.636   0.238  12.705 -0.6820  2.3346 -1.7331
16744TIP3   OH271722   5.118   4.249  15.693  0.3387 -0.4035  0.6699
16744TIP3    H171723   5.070   4.185  15.641 -1.8048  1.4828  0.1561
16744TIP3    H271724   5.068   4.256  15.774  0.3906  0.7646  0.6210
16745TIP3   OH271725   2.490   3.789   3.354  0.0254 -0.0968 -0.3873
16745TIP3    H171726   2.583   3.787   3.377  0.3105  1.3579 -1.3144
16745TIP3    H271727   2.484   3.738   3.273  0.6462  2.6018 -2.2403
16746TIP3   OH271728   5.951   6.584  17.113 -0.5057  0.3612  0.0181
16746TIP3    H171729   5.894   6.622  17.045 -1.5782 -1.6741 -0.2869
16746TIP3    H271730   5.901   6.593  17.194 -1.4189 -1.5718 -0.2752
16747TIP3   OH271731   3.717   2.915  16.109 -0.5114 -0.6090  0.3562
16747TIP3    H171732   3.750   2.839  16.155 -1.1013 -0.5610  0.8813
16747TIP3    H271733   3.626   2.924  16.139 -0.4872  0.2273  0.2245
16748TIP3   OH271734   3.214   0.937  14.194 -0.0183  0.0202  0.5288
16748TIP3    H171735   3.148   0.867  14.197  0.1518 -0.1321  0.6987
16748TIP3    H271736   3.162   1.017  14.200 -0.3270 -0.0333 -0.9928
16749TIP3   OH271737   6.744   0.700  11.102 -0.3790  0.4725 -0.2061
16749TIP3    H171738   6.813   0.655  11.054 -2.2305 -1.0926 -1.5482
16749TIP3    H271739   6.743   0.658  11.188 -0.5677 -0.4812 -0.6647
16750TIP3   OH271740   2.689   3.049   0.588  0.1394  0.3443 -0.0241
16750TIP3    H171741   2.603   3.039   0.548 -0.3136  0.9203  0.7790
16750TIP3    H271742   2.677   3.019   0.678  0.8064  0.3359  0.0684
16751TIP3   OH271743   2.410   4.837  15.228 -0.3428 -0.5875 -0.2605
16751TIP3    H171744   2.432   4.748  15.256  1.8888 -0.0489 -0.1044
16751TIP3    H271745   2.372   4.878  15.306 -1.7289 -1.4799 -0.4387
16752TIP3   OH271746   5.908   4.564   3.336  0.1315  0.3443 -0.4954
16752TIP3    H171747   5.886   4.607   3.253 -1.6638 -0.1153 -0.2998
16752TIP3    H271748   5.830   4.575   3.390 -0.0100 -2.2223 -0.0572
16753TIP3   OH271749   5.823   3.362  16.820  0.3821  1.0379 -0.2141
16753TIP3    H171750   5.817   3.300  16.892 -0.0841  0.2874 -0.8726
16753TIP3    H271751   5.917   3.381  16.812  0.6815 -0.5021 -0.7242
16754TIP3   OH271752   1.748   2.373   3.242 -0.0675  0.3240 -0.4367
16754TIP3    H171753   1.707   2.371   3.328 -0.0423 -1.5148 -0.4326
16754TIP3    H271754   1.676   2.357   3.181  0.5118 -3.3175 -0.4085
16755TIP3   OH271755   5.810   6.599   3.650  0.0293 -0.0946  0.1941
16755TIP3    H171756   5.850   6.686   3.648 -0.9004  0.4317 -3.5921
16755TIP3    H271757   5.873   6.542   3.606 -0.9555 -0.4361 -0.8471
16756TIP3   OH271758   1.961   4.010  15.177  0.5256 -0.1197 -0.0143
16756TIP3    H171759   1.880   4.051  15.206 -0.4369 -1.3088 -0.9269
16756TIP3    H271760   1.944   3.916  15.184  1.3984 -0.3981 -1.3281
16757TIP3   OH271761   1.661   2.147  13.262 -0.2747 -0.2194  0.3959
16757TIP3    H171762   1.568   2.156  13.243  0.0340 -0.1365 -1.3282
16757TIP3    H271763   1.692   2.236  13.275 -0.2350 -0.1262 -0.2651
16758TIP3   OH271764   0.812   0.241  14.510 -0.3489  0.3192 -0.0567
16758TIP3    H171765   0.900   0.204  14.520 -0.6264  0.2129  2.9898
16758TIP3    H271766   0.825   0.327  14.472  0.7793 -0.6843 -2.1133
16759TIP3   OH271767   0.795   5.576  16.211  0.2229  0.6660 -0.1159
16759TIP3    H171768   0.722   5.634  16.186  0.1503  1.2295  1.2884
16759TIP3    H271769   0.826   5.540  16.129 -1.9082  0.0929 -0.7520
16760TIP3   OH271770   0.344   3.603  13.562  0.0036 -0.2621 -0.1750
16760TIP3    H171771   0.319   3.566  13.646 -1.0535  0.4292 -0.1632
16760TIP3    H271772   0.412   3.668  13.583 -1.5141  1.2124  0.4051
16761TIP3   OH271773   0.000   5.184  11.737 -0.2593 -0.1488 -0.5378
16761TIP3    H171774  -0.080   5.144  11.704  0.4874 -0.2294 -2.3736
16761TIP3    H271775   0.029   5.242  11.666  0.1145  1.6515  0.9826
16762TIP3   OH271776   5.490   5.647  11.687 -0.0368 -0.2252 -0.5585
16762TIP3    H171777   5.520   5.682  11.771  0.1908  1.3242 -1.2541
16762TIP3    H271778   5.567   5.650  11.631 -0.3674 -0.5699 -1.0329
16763TIP3   OH271779   3.129   0.210   3.819  0.1701 -0.5884 -0.0505
16763TIP3    H171780   3.036   0.190   3.833  0.0360 -2.0662 -2.4804
16763TIP3    H271781   3.173   0.169   3.893 -0.9613 -1.5562  0.1209
16764TIP3   OH271782   1.041   4.658   2.367 -0.0234 -0.3617 -0.2393
16764TIP3    H171783   1.022   4.574   2.324 -0.5857  0.6540 -2.0660
16764TIP3    H271784   1.137   4.663   2.368  0.0142 -1.0013 -0.1549
16765TIP3   OH271785   4.633   5.575  13.540  0.0181 -0.1533  0.1463
16765TIP3    H171786   4.618   5.654  13.488 -1.0945 -0.0664  0.5920
16765TIP3    H271787   4.727   5.578  13.561 -0.4730  2.5661  2.5830
16766TIP3   OH271788   2.192   1.607  13.822 -0.2528 -0.3598  0.2237
16766TIP3    H171789   2.214   1.515  13.832 -1.8463 -0.6325  1.6645
16766TIP3    H271790   2.210   1.626  13.730  1.1257 -1.8039  0.1575
16767TIP3   OH271791   1.432   3.445   5.299  0.5794 -0.0005 -0.1846
16767TIP3    H171792   1.446   3.352   5.281 -1.5862 -0.4500  0.2160
16767TIP3    H271793   1.515   3.486   5.274  1.2917 -1.8993 -1.1985
16768TIP3   OH271794   0.080   3.400   5.036  0.3972 -0.1469  0.5105
16768TIP3    H171795   0.072   3.348   4.956  1.3193 -1.5002  1.2544
16768TIP3    H271796  -0.008   3.404   5.072  0.3690 -1.6404  0.6746
16769TIP3   OH271797   1.788   6.531   2.387  0.3532 -0.2821  0.5026
16769TIP3    H171798   1.850   6.487   2.446  0.3372  0.0665  0.7838
16769TIP3    H271799   1.843   6.583   2.329  0.2876  1.6006  2.0051
16770TIP3   OH271800   0.740   4.418   2.377 -0.1587  0.3501 -0.2402
16770TIP3    H171801   0.804   4.369   2.325  1.4597  1.9494  0.1717
16770TIP3    H271802   0.756   4.390   2.467  0.3476  1.1290 -0.0766
16771TIP3   OH271803   6.794   0.542  12.222  0.1168 -0.1246  0.4934
16771TIP3    H171804   6.814   0.534  12.315 -1.6440  2.0224  1.1382
16771TIP3    H271805   6.700   0.522  12.216  0.3475 -0.9500 -0.9638
16772TIP3   OH271806   4.523   6.689   2.174 -0.0618  0.3101 -0.3228
16772TIP3    H171807   4.497   6.781   2.184 -0.4822  0.1076  0.5980
16772TIP3    H271808   4.473   6.643   2.242  1.0651 -0.4264  0.0353
16773TIP3   OH271809   0.572   2.313   5.316  0.3167  0.0626  0.0703
16773TIP3    H171810   0.612   2.227   5.303 -0.1021 -0.7037  3.1087
16773TIP3    H271811   0.592   2.335   5.406 -1.6722  2.0572  0.1057
16774TIP3   OH271812   0.993   2.532   0.114  0.0542  0.4839 -0.6183
16774TIP3    H171813   0.987   2.625   0.091  0.2545  0.1438 -2.1953
16774TIP3    H271814   0.958   2.487   0.037 -2.5060 -0.7299  1.1375
16775TIP3   OH271815   3.832   4.718   1.811 -0.1934  0.0382  0.1190
16775TIP3    H171816   3.839   4.810   1.837 -1.2789  0.4404 -0.9235
16775TIP3    H271817   3.804   4.721   1.719 -3.4831 -1.2747  0.9331
16776TIP3   OH271818   4.292   1.327  12.137  0.1287 -0.3959 -0.5091
16776TIP3    H171819   4.207   1.369  12.147 -0.5288 -1.6044 -0.8020
16776TIP3    H271820   4.296   1.302  12.045  0.9830  0.0194 -0.5922
16777TIP3   OH271821   4.505   1.163  12.979  0.0876  0.3620  0.1487
16777TIP3    H171822   4.570   1.199  12.919  1.1657 -0.1556  0.9613
16777TIP3    H271823   4.421   1.179  12.937  0.7421  1.0731 -0.9199
16778TIP3   OH271824   5.579   6.186  13.721  0.1248 -0.1149 -0.2598
16778TIP3    H171825   5.614   6.206  13.634  0.4061 -0.4195 -0.2193
16778TIP3    H271826   5.516   6.116  13.706 -1.0524  0.9429 -0.4349
16779TIP3   OH271827   2.531   5.785   4.536 -0.2705  0.3702  0.3870
16779TIP3    H171828   2.472   5.713   4.513  0.3215  0.0723 -0.2559
16779TIP3    H271829   2.567   5.760   4.622 -1.4301  0.7931  1.0091
16780TIP3   OH271830   6.031   0.555  15.831 -0.1683 -0.4668 -0.1504
16780TIP3    H171831   6.044   0.475  15.781  1.4194  1.1088 -2.4625
16780TIP3    H271832   6.108   0.561  15.888  0.8960  0.4530 -1.6101
16781TIP3   OH271833   5.958   0.522   5.953 -0.0877 -0.3298  0.1409
16781TIP3    H171834   5.997   0.599   5.912  2.2199 -0.7958  1.2964
16781TIP3    H271835   5.902   0.484   5.885  1.4727  0.4230 -1.6443
16782TIP3   OH271836   6.009   2.721  10.961  0.4116 -0.1347 -0.1637
16782TIP3    H171837   6.047   2.745  10.876  0.8750  2.1844  0.6293
16782TIP3    H271838   6.074   2.750  11.025 -0.5727 -0.5343  1.0445
16783TIP3   OH271839   4.525   1.541   4.847 -0.4492 -0.4796  0.4827
16783TIP3    H171840   4.582   1.466   4.832 -1.6904 -0.8566 -3.3701
16783TIP3    H271841   4.582   1.607   4.887  1.0374 -2.8516  2.5699
16784TIP3   OH271842   4.061   5.731  11.329 -0.3986  0.1930  0.1458
16784TIP3    H171843   3.989   5.786  11.360 -0.0145  0.2076  1.0391
16784TIP3    H271844   4.109   5.707  11.408 -0.6386 -1.5459 -0.1871
16785TIP3   OH271845   2.531   2.384   2.020  0.5679  0.2434 -0.2964
16785TIP3    H171846   2.548   2.433   1.939  1.8981 -0.5001 -0.4945
16785TIP3    H271847   2.469   2.315   1.994 -0.5654  1.1953 -0.2210
16786TIP3   OH271848   4.711   2.102  11.071  0.4650 -0.5494  0.5198
16786TIP3    H171849   4.743   2.141  10.990 -0.0567 -0.9417  0.1113
16786TIP3    H271850   4.785   2.051  11.105  0.5287 -0.8093  0.0082
16787TIP3   OH271851   0.921   3.035   6.576 -0.0465  0.7193 -0.0989
16787TIP3    H171852   0.993   3.096   6.593  0.6429 -0.0821 -0.1223
16787TIP3    H271853   0.941   2.958   6.628 -2.2278  1.4312  1.9572
16788TIP3   OH271854   3.034   1.471   0.935  0.3316 -0.1538  0.3217
16788TIP3    H171855   3.110   1.484   0.878  0.4325 -0.5862  0.3501
16788TIP3    H271856   3.054   1.520   1.014  0.4124  0.0460  0.1775
16789TIP3   OH271857   4.027   3.484  17.158 -0.4846 -0.1737  0.3561
16789TIP3    H171858   4.080   3.537  17.218  0.5571  0.6605 -1.2261
16789TIP3    H271859   4.070   3.398  17.158  1.2018  0.5997 -1.1947
16790TIP3   OH271860   2.915   5.084   2.270 -0.2434  0.6733 -0.0621
16790TIP3    H171861   2.943   5.156   2.213  0.1182  1.8389  1.5138
16790TIP3    H271862   2.946   5.109   2.357 -2.0355 -0.3157  0.9242
16791TIP3   OH271863   1.970   5.784  11.752  0.0044 -0.0036 -0.2180
16791TIP3    H171864   1.885   5.751  11.779 -1.4237  2.6635 -1.0678
16791TIP3    H271865   1.997   5.844  11.822  0.5396  0.1664 -0.5580
16792TIP3   OH271866   4.326   0.569  15.376  0.2203 -1.2135  0.0654
16792TIP3    H171867   4.400   0.592  15.432  0.0923  0.5322 -0.4370
16792TIP3    H271868   4.253   0.557  15.436  0.0784  0.6733  0.3418
16793TIP3   OH271869   1.750   6.538  14.761 -0.5584  0.3443  0.6303
16793TIP3    H171870   1.685   6.596  14.722 -1.4135 -1.0672 -0.1108
16793TIP3    H271871   1.713   6.451  14.754  2.0111 -0.7371 -1.2057
16794TIP3   OH271872   0.600   6.151  15.696  0.1710 -0.0229  0.4538
16794TIP3    H171873   0.666   6.163  15.764  0.4523 -1.7301  0.5316
16794TIP3    H271874   0.534   6.094  15.736 -0.0104 -0.4834 -0.4742
16795TIP3   OH271875   4.803   2.424   1.073 -0.8347 -0.1624 -0.1785
16795TIP3    H171876   4.721   2.380   1.096 -0.2318 -2.1009 -1.4465
16795TIP3    H271877   4.850   2.359   1.021  2.1550  0.3287  1.7180
16796TIP3   OH271878   3.990   1.563  16.111 -0.0306 -0.0803 -0.0851
16796TIP3    H171879   4.079   1.548  16.141 -0.1947 -1.7404 -0.3435
16796TIP3    H271880   3.936   1.559  16.190  0.0427  0.2686 -0.0148
16797TIP3   OH271881   4.505   4.518  16.429 -0.2517  0.4564  0.2043
16797TIP3    H171882   4.552   4.524  16.346  0.1210  0.3005  0.4050
16797TIP3    H271883   4.485   4.425  16.439 -1.1916  0.6003 -0.2039
16798TIP3   OH271884   4.866   2.115  14.516 -0.3799 -0.3113 -0.3931
16798TIP3    H171885   4.860   2.191  14.458  1.8145 -0.8542 -1.4108
16798TIP3    H271886   4.812   2.048  14.474 -2.1353  0.5228  0.3891
16799TIP3   OH271887   3.093   6.003  15.609  0.3522  0.0972  0.3121
16799TIP3    H171888   3.185   5.984  15.625  0.6419  0.8111 -0.4086
16799TIP3    H271889   3.094   6.091  15.570 -0.4471 -0.7325 -1.6855
16800TIP3   OH271890   1.684   5.292  16.893  0.2609  0.1284  0.6264
16800TIP3    H171891   1.714   5.235  16.822  1.1087  1.6754 -0.2888
16800TIP3    H271892   1.761   5.304  16.948  0.2516  0.8583  0.4861
16801TIP3   OH271893   0.097   5.430  15.184  0.0371  0.3321 -0.1345
16801TIP3    H171894   0.095   5.380  15.266 -1.8383 -0.7438 -0.7747
16801TIP3    H271895   0.050   5.511  15.204 -0.2714  0.1451 -0.1064
16802TIP3   OH271896   3.851   1.587  11.936 -0.1298 -0.5943 -0.1221
16802TIP3    H171897   3.858   1.631  11.852  0.7779 -0.0129  0.2428
16802TIP3    H271898   3.759   1.597  11.961 -0.3060 -0.3810 -0.8270
16803TIP3   OH271899   5.305   6.083  12.137  0.3303 -0.3030  0.0604
16803TIP3    H171900   5.343   6.171  12.134 -2.6598  1.1171  0.6524
16803TIP3    H271901   5.274   6.068  12.047  0.8272 -0.7870 -0.0371
16804TIP3   OH271902   0.713   0.398  12.591  0.5069 -0.1768  0.0644
16804TIP3    H171903   0.622   0.428  12.582  0.3932 -0.6847 -0.6075
16804TIP3    H271904   0.706   0.302  12.586  0.7903 -0.4168  2.7350
16805TIP3   OH271905   1.524   1.359   1.487 -0.7655 -0.4062 -0.2436
16805TIP3    H171906   1.469   1.344   1.563 -2.7823 -1.1814 -1.7596
16805TIP3    H271907   1.532   1.274   1.444 -0.9924  0.2740 -1.7207
16806TIP3   OH271908   3.105   6.308   4.461  0.2563  0.4402  0.3375
16806TIP3    H171909   3.048   6.230   4.459 -1.1899  1.4634 -0.0934
16806TIP3    H271910   3.134   6.314   4.552 -0.5801  0.0541  0.6455
16807TIP3   OH271911   6.611   5.252  13.975 -0.2218  0.5200  0.5029
16807TIP3    H171912   6.524   5.249  13.935 -0.0911  0.0209  0.2462
16807TIP3    H271913   6.650   5.332  13.941 -0.6374  0.8389  0.7528
16808TIP3   OH271914   6.306   5.672   4.950  0.3217 -0.3825 -0.1280
16808TIP3    H171915   6.385   5.724   4.934  0.3266 -0.2150  0.4095
16808TIP3    H271916   6.338   5.594   4.996  0.3566 -1.0255 -1.2078
16809TIP3   OH271917   1.170   2.117   3.898  0.0255  0.4223 -0.4179
16809TIP3    H171918   1.219   2.184   3.850  0.3048  0.8892  0.5102
16809TIP3    H271919   1.236   2.072   3.951 -0.6354  1.5586  1.4352
16810TIP3   OH271920   3.636   5.123   1.151  0.7663  0.2581  0.2213
16810TIP3    H171921   3.599   5.064   1.216  2.2332  0.5670  1.3806
16810TIP3    H271922   3.605   5.209   1.175  0.4157  0.2438 -0.1613
16811TIP3   OH271923   0.895   2.246   0.522 -0.1167 -0.6167 -0.0326
16811TIP3    H171924   0.899   2.202   0.607  0.7267 -0.7368 -0.1225
16811TIP3    H271925   0.833   2.194   0.471  0.5475 -1.4708 -0.0002
16812TIP3   OH271926   5.683   6.631  12.803 -0.4841 -0.1370  0.3693
16812TIP3    H171927   5.699   6.719  12.768  0.1767 -0.6054 -0.5627
16812TIP3    H271928   5.611   6.598  12.749 -1.0179 -0.0178  1.0015
16813TIP3   OH271929   5.645   0.873   2.795  0.6770 -0.2559 -0.7413
16813TIP3    H171930   5.740   0.861   2.783  0.8329 -0.7902  0.8560
16813TIP3    H271931   5.637   0.914   2.881 -0.5833 -0.7374 -0.6135
16814TIP3   OH271932   5.347   6.640  14.697  0.4729 -0.1973 -0.8473
16814TIP3    H171933   5.276   6.682  14.745  1.4112  2.7966 -1.8575
16814TIP3    H271934   5.322   6.649  14.605  0.7076 -2.0029 -1.1246
16815TIP3   OH271935   5.911   6.229   3.333 -0.2017  0.0637  0.3086
16815TIP3    H171936   5.970   6.259   3.264  0.9283  0.5314  1.4416
16815TIP3    H271937   5.876   6.146   3.301 -0.1524  0.5398 -1.0579
16816TIP3   OH271938   3.523   1.508  14.032 -0.5172  0.4982  0.3695
16816TIP3    H171939   3.552   1.526  13.943  0.4634 -0.4123  0.4777
16816TIP3    H271940   3.553   1.418  14.049 -1.7772  0.2020  1.1747
16817TIP3   OH271941   5.720   1.616   3.527 -0.3552 -0.2852  0.2101
16817TIP3    H171942   5.809   1.582   3.524  0.4173  1.6584 -0.2357
16817TIP3    H271943   5.724   1.700   3.481 -2.1844  0.3483  1.0894
16818TIP3   OH271944   4.064   4.053   2.701  0.2595 -0.3242  0.0126
16818TIP3    H171945   4.097   4.069   2.612  1.6033 -0.1556  0.5128
16818TIP3    H271946   4.059   3.958   2.708 -1.4371 -0.3252 -0.7721
16819TIP3   OH271947   6.270   3.725  12.054 -0.0116 -0.2726 -0.8010
16819TIP3    H171948   6.241   3.798  11.999  0.7886  0.1537 -0.6857
16819TIP3    H271949   6.320   3.767  12.124  0.8002 -0.9604 -0.9521
16820TIP3   OH271950   3.376   1.268  12.441 -0.2502 -0.5600 -0.1576
16820TIP3    H171951   3.337   1.184  12.462  0.6828 -0.7809  0.7728
16820TIP3    H271952   3.359   1.323  12.518 -1.2929  0.2773 -0.9549
16821TIP3   OH271953   2.925   5.859  12.994 -0.3958  0.0723 -0.3575
16821TIP3    H171954   2.870   5.910  13.054 -1.0901 -0.5560 -0.4482
16821TIP3    H271955   2.870   5.847  12.916  0.1290  0.0203 -0.7244
16822TIP3   OH271956   5.112   2.302   4.480  0.2355  0.0040 -0.0721
16822TIP3    H171957   5.189   2.314   4.424  1.0002  0.5973  1.0571
16822TIP3    H271958   5.070   2.387   4.481  0.0359 -0.0963 -0.0100
16823TIP3   OH271959   2.161   1.483  12.481 -0.1561 -0.2491 -0.0636
16823TIP3    H171960   2.126   1.572  12.488 -0.8004 -0.3680 -1.5687
16823TIP3    H271961   2.117   1.435  12.551 -2.0549 -0.0655 -1.0680
16824TIP3   OH271962   5.724   5.731  11.558  0.2369 -0.4365  0.2168
16824TIP3    H171963   5.764   5.703  11.640 -1.1867 -0.4411  0.9340
16824TIP3    H271964   5.718   5.826  11.565  0.3215 -0.4169  0.0223
16825TIP3   OH271965   1.871   3.155  11.599  0.0895 -0.2903 -0.1943
16825TIP3    H171966   1.901   3.201  11.521  1.5439 -0.5409  0.1813
16825TIP3    H271967   1.911   3.068  11.592 -1.8775 -1.2339 -0.4490
16826TIP3   OH271968   0.802   1.117  10.688 -0.1837  0.3481 -0.1499
16826TIP3    H171969   0.743   1.193  10.693  0.2402  0.6191  1.5589
16826TIP3    H271970   0.799   1.090  10.596 -2.1958  0.9525 -0.3114
16827TIP3   OH271971   5.923   3.198   5.214 -0.5157 -0.5803  0.1067
16827TIP3    H171972   5.957   3.208   5.303  0.4969  3.9398 -0.5351
16827TIP3    H271973   5.992   3.152   5.167 -0.3934 -1.6362  1.2657
16828TIP3   OH271974   0.009   5.755   3.124 -0.1940 -0.0475  0.0813
16828TIP3    H171975  -0.068   5.723   3.076 -0.9684  0.8229  0.6994
16828TIP3    H271976   0.067   5.790   3.057 -0.3183 -0.7474 -0.3981
16829TIP3   OH271977   1.488   2.103   3.354 -0.3157 -0.2942 -0.0202
16829TIP3    H171978   1.534   2.187   3.361  1.6776 -1.1069 -1.9707
16829TIP3    H271979   1.416   2.121   3.294 -2.0339  0.7488  2.2322
16830TIP3   OH271980   3.073   0.534  15.284  0.0821  0.1585  0.3396
16830TIP3    H171981   3.110   0.611  15.327  1.0803 -0.4814  0.6564
16830TIP3    H271982   3.018   0.569  15.215  2.0616  1.1460 -0.8153
16831TIP3   OH271983   1.233   4.613  16.785  0.1461 -0.2034  0.0264
16831TIP3    H171984   1.227   4.708  16.777  1.7010 -0.0726  0.1769
16831TIP3    H271985   1.189   4.593  16.867  2.4399  0.7475  1.5607
16832TIP3   OH271986   6.734   4.259  14.294  0.6598 -0.2819 -0.3877
16832TIP3    H171987   6.782   4.177  14.304  1.3001  0.3117  2.1447
16832TIP3    H271988   6.761   4.312  14.369 -0.4791  1.8856 -1.4139
16833TIP3   OH271989   6.339   1.138  14.494 -0.2730  0.3777  0.4891
16833TIP3    H171990   6.303   1.220  14.527 -2.2952 -0.3476  0.2325
16833TIP3    H271991   6.271   1.104  14.437  1.5978 -0.2245 -1.5083
16834TIP3   OH271992   0.818   2.432   5.813 -0.0119  0.2736 -0.1396
16834TIP3    H171993   0.732   2.439   5.771 -0.6975 -0.8622  1.0158
16834TIP3    H271994   0.802   2.449   5.906  1.0762  0.3790  0.0493
16835TIP3   OH271995   5.187   4.766   5.200 -0.0473 -0.0025 -0.3028
16835TIP3    H171996   5.257   4.790   5.261 -2.6865  0.5554  2.7216
16835TIP3    H271997   5.191   4.834   5.132  1.0584  1.1905  0.8921
16836TIP3   OH271998   6.291   4.317  12.657  0.6262 -0.7956 -0.4862
16836TIP3    H171999   6.200   4.287  12.647  0.1779  0.0314  0.8117
16836TIP3    H272000   6.318   4.279  12.741  2.0865 -2.4322 -1.6365
16837TIP3   OH272001   3.335   1.813   1.313  0.3582 -0.2329  0.1442
16837TIP3    H172002   3.384   1.744   1.267  0.8758 -1.5298  2.5068
16837TIP3    H272003   3.400   1.882   1.329  0.1946  0.1923 -0.9032
16838TIP3   OH272004   6.216   3.021  13.129  0.2296  0.1524 -0.1809
16838TIP3    H172005   6.268   3.013  13.049 -0.8051  0.8652 -0.9420
16838TIP3    H272006   6.140   3.074  13.104 -0.3921 -0.0692  1.1397
16839TIP3   OH272007   5.515   3.482   3.576 -0.0194  0.2917 -0.3255
16839TIP3    H172008   5.539   3.390   3.574 -2.6627 -0.5035  0.7277
16839TIP3    H272009   5.574   3.523   3.512  0.8465 -2.1888 -1.2436
16840TIP3   OH272010   5.584   2.384  15.027  0.2769  0.4596 -0.2944
16840TIP3    H172011   5.600   2.329  15.104  1.2105 -0.7943 -1.3406
16840TIP3    H272012   5.493   2.412  15.036 -0.7182 -2.3897 -0.3724
16841TIP3   OH272013   4.934   1.824   4.870  0.0548  0.0732  0.7088
16841TIP3    H172014   4.893   1.901   4.908 -0.5344 -0.0764  0.3925
16841TIP3    H272015   4.938   1.842   4.776 -1.2630 -0.7753  0.4445
16842TIP3   OH272016   0.572   2.926   4.898  0.1620  0.1378 -0.3615
16842TIP3    H172017   0.484   2.956   4.875  0.2977  0.5742 -0.3122
16842TIP3    H272018   0.560   2.834   4.924 -0.6867  0.8191  1.9655
16843TIP3   OH272019   4.800   4.204  15.990 -0.3042 -0.5031 -0.3601
16843TIP3    H172020   4.884   4.237  15.959 -0.3515 -1.2350 -1.3254
16843TIP3    H272021   4.821   4.122  16.035 -0.3638 -0.0171  0.5666
16844TIP3   OH272022   3.352   4.291   4.743 -0.1170  0.4569 -0.1760
16844TIP3    H172023   3.347   4.352   4.816 -0.9917 -0.0503  0.2064
16844TIP3    H272024   3.261   4.277   4.717  0.1807  0.5817 -1.3278
16845TIP3   OH272025   5.505   5.306   5.370  0.2508 -0.1272 -0.9281
16845TIP3    H172026   5.449   5.315   5.447  0.8633  0.4383 -0.5406
16845TIP3    H272027   5.491   5.216   5.340 -0.1974 -0.2628 -0.3202
16846TIP3   OH272028   1.725   1.915  13.409  0.6346  0.1727 -0.1690
16846TIP3    H172029   1.713   1.990  13.351  1.8113  0.5415  0.0414
16846TIP3    H272030   1.644   1.865  13.400  0.7381  0.2661 -2.0479
16847TIP3   OH272031   3.174   1.904   6.073  0.2299  0.1448  0.4030
16847TIP3    H172032   3.082   1.891   6.051  0.6858 -1.1112 -0.9683
16847TIP3    H272033   3.173   1.942   6.161 -1.5631 -0.5977  0.7465
16848TIP3   OH272034   0.470   3.999  15.600 -0.8275  0.1951  0.7033
16848TIP3    H172035   0.494   3.991  15.693  1.6260  0.4927  0.1658
16848TIP3    H272036   0.482   4.091  15.580  0.1460 -0.1220 -0.2518
16849TIP3   OH272037   6.271   5.014  16.430  0.0271  0.1662 -0.5597
16849TIP3    H172038   6.330   5.066  16.485  0.1927 -0.8594  0.2505
16849TIP3    H272039   6.243   4.942  16.486 -0.4356 -0.4643 -1.5740
16850TIP3   OH272040   1.964   5.955   5.975 -0.4418  0.5932 -0.0320
16850TIP3    H172041   1.930   6.043   5.957 -2.0691  0.4179  1.9117
16850TIP3    H272042   1.891   5.897   5.954  0.3935 -0.2697 -0.6292
16851TIP3   OH272043   2.100   0.922  11.068  0.2715 -0.0474 -0.2896
16851TIP3    H172044   2.117   0.936  10.975  1.0565 -1.9790 -0.4841
16851TIP3    H272045   2.184   0.890  11.103 -0.0420  0.5358  1.0680
16852TIP3   OH272046   2.701   6.449   0.086  0.2258  0.1929 -0.0949
16852TIP3    H172047   2.721   6.356   0.087 -1.7847 -0.3193  1.8004
16852TIP3    H272048   2.608   6.453   0.063 -0.1948  1.5517  1.6329
16853TIP3   OH272049   5.827   4.567   0.191 -0.5602  0.0810  0.3219
16853TIP3    H172050   5.748   4.513   0.196 -1.8179  1.8367  0.2839
16853TIP3    H272051   5.826   4.602   0.102 -0.6394  1.3816  0.8101
16854TIP3   OH272052   2.333   3.099   6.488 -0.1155  0.4654  0.0360
16854TIP3    H172053   2.426   3.081   6.471  0.0522  0.3198  1.0353
16854TIP3    H272054   2.296   3.013   6.507  0.0422  0.7712  1.8676
16855TIP3   OH272055   6.067   2.878  11.245  0.3311 -0.5668 -0.8348
16855TIP3    H172056   6.147   2.930  11.250  0.8528 -1.4438  0.4978
16855TIP3    H272057   6.002   2.929  11.292  0.5103 -0.5386 -0.6150
16856TIP3   OH272058   4.969   3.920   3.944  0.5370  0.3640 -0.4258
16856TIP3    H172059   4.899   3.862   3.918 -1.2973  2.1187  0.3106
16856TIP3    H272060   4.972   3.987   3.876  0.6581  0.9598  0.1469
16857TIP3   OH272061   6.122   3.311   2.510  0.2002  0.3718 -0.3419
16857TIP3    H172062   6.121   3.376   2.580  2.5284  2.7025 -2.2852
16857TIP3    H272063   6.036   3.317   2.469 -0.4018  0.5651  0.9084
16858TIP3   OH272064   4.155   4.725  12.339  0.1870 -0.1106  0.4822
16858TIP3    H172065   4.124   4.781  12.267  0.7541  1.7592  1.6029
16858TIP3    H272066   4.145   4.779  12.417  1.8210 -1.1731  1.5018
16859TIP3   OH272067   2.394   4.339  15.932 -0.1625  0.3173 -0.5702
16859TIP3    H172068   2.451   4.321  16.006 -1.5534 -0.1480  0.4181
16859TIP3    H272069   2.452   4.376  15.865  1.1863  0.3402  0.5833
16860TIP3   OH272070   4.961   4.550   1.757  0.1261  0.2665 -0.1276
16860TIP3    H172071   4.941   4.583   1.845  0.4120 -1.5248  0.6598
16860TIP3    H272072   4.882   4.503   1.730 -0.0964  1.1183 -1.0061
16861TIP3   OH272073   5.062   3.840  15.857  0.2208 -0.2856 -0.0650
16861TIP3    H172074   5.105   3.851  15.941  0.9560 -0.5080 -0.3992
16861TIP3    H272075   5.124   3.876  15.793  1.1705 -2.9999 -0.8374
16862TIP3   OH272076   6.442   6.767  14.738 -0.3726  0.1403  0.0191
16862TIP3    H172077   6.421   6.858  14.759 -1.8838  0.0523 -0.9476
16862TIP3    H272078   6.496   6.737  14.811 -0.2794  1.6515  0.6023
16863TIP3   OH272079   2.548   1.080  14.826 -0.1968  0.3961  0.3401
16863TIP3    H172080   2.596   1.142  14.882 -0.7006 -0.3222  1.6190
16863TIP3    H272081   2.590   0.995  14.844  0.1634  0.2666 -1.0147
16864TIP3   OH272082   1.172   3.490   3.684  0.3368 -0.1100 -0.3499
16864TIP3    H172083   1.167   3.401   3.650 -1.0758 -0.2470  0.1632
16864TIP3    H272084   1.083   3.525   3.675  1.0065  1.5304 -1.2430
16865TIP3   OH272085   3.208   4.971   3.935 -0.4129  0.4414 -0.4412
16865TIP3    H172086   3.236   4.883   3.909  2.2889  0.4795  1.8579
16865TIP3    H272087   3.253   5.030   3.874  0.3085  0.2984 -0.0586
16866TIP3   OH272088   1.335   3.246  13.952  0.0623  0.0000  0.3256
16866TIP3    H172089   1.280   3.314  13.989  0.6529 -0.1426  1.5055
16866TIP3    H272090   1.275   3.175  13.931 -0.3755  0.3590  0.3529
16867TIP3   OH272091   6.376   5.691  16.804 -0.1023  0.2824 -0.6575
16867TIP3    H172092   6.471   5.698  16.807  0.0886 -1.8600  1.0887
16867TIP3    H272093   6.356   5.666  16.714  1.2478 -1.4700 -0.5225
16868TIP3   OH272094   6.743   6.275   1.644  0.3920 -0.0670 -0.2047
16868TIP3    H172095   6.707   6.196   1.605 -0.6106  0.4681 -0.4166
16868TIP3    H272096   6.670   6.338   1.641  1.1032  0.7938  0.1383
16869TIP3   OH272097   2.856   2.658   0.657  0.2467  0.4269 -0.9137
16869TIP3    H172098   2.821   2.578   0.697  0.4148 -0.2216 -2.0230
16869TIP3    H272099   2.949   2.639   0.643  0.5333  1.2499 -0.1489
16870TIP3   OH272100   3.969   3.533  12.977  0.1285  0.6164 -0.2206
16870TIP3    H172101   3.926   3.545  12.893  0.0274  0.1936 -0.2273
16870TIP3    H272102   3.904   3.490  13.032  0.8625 -0.9740 -0.5361
16871TIP3   OH272103   2.639   1.827  13.924  0.1938 -0.3028 -0.5516
16871TIP3    H172104   2.545   1.822  13.939  0.3367 -1.7555  0.0677
16871TIP3    H272105   2.649   1.836  13.830 -0.5540 -1.7820 -0.8002
16872TIP3   OH272106   3.056   0.768  14.550  0.1295  0.0546  0.5230
16872TIP3    H172107   3.087   0.839  14.605  1.8606 -1.0532  1.0697
16872TIP3    H272108   3.062   0.690  14.605 -1.5563 -0.5708 -0.1113
16873TIP3   OH272109   1.699   3.345  12.143 -0.0933 -0.2080  0.1007
16873TIP3    H172110   1.720   3.423  12.092 -1.1333 -1.2310 -1.9933
16873TIP3    H272111   1.777   3.290  12.136 -0.0828 -0.1755 -0.0428
16874TIP3   OH272112   1.521   2.820  17.140 -0.6005 -0.0420  0.3177
16874TIP3    H172113   1.468   2.781  17.070  0.6571  0.4126 -0.9533
16874TIP3    H272114   1.585   2.752  17.162 -0.3192  0.1951  0.2476
16875TIP3   OH272115   3.458   6.317  11.082 -0.0590 -0.0573 -0.1444
16875TIP3    H172116   3.406   6.394  11.103  0.0220  0.5546 -2.0349
16875TIP3    H272117   3.430   6.251  11.146 -0.9165  1.1884  0.8038
16876TIP3   OH272118   0.222   3.575   5.769 -0.2100 -0.3464 -0.5950
16876TIP3    H172119   0.302   3.581   5.717  0.2526  1.4203  0.2845
16876TIP3    H272120   0.151   3.584   5.705  0.2879 -1.1218 -1.2709
16877TIP3   OH272121   6.109   3.566   3.738 -0.2965  0.2143 -0.2928
16877TIP3    H172122   6.127   3.639   3.798 -0.8286 -0.2378  0.4216
16877TIP3    H272123   6.016   3.547   3.749 -0.0800 -0.8466 -0.1606
16878TIP3   OH272124   5.084   3.091  11.554 -0.5982 -0.1891  0.4006
16878TIP3    H172125   5.132   3.164  11.514  0.0669 -1.5240 -1.3558
16878TIP3    H272126   5.012   3.133  11.601  0.2581  1.6475  0.1718
16879TIP3   OH272127   2.054   4.252  15.094 -0.4568 -0.4926 -0.0137
16879TIP3    H172128   2.042   4.158  15.104 -1.1341 -0.9100 -3.3061
16879TIP3    H272129   2.147   4.267  15.110 -0.1128 -1.9403 -0.5259
16880TIP3   OH272130   4.849   5.815   2.205  0.0429  0.0558 -0.0139
16880TIP3    H172131   4.897   5.896   2.220 -0.1758  0.1701  0.0707
16880TIP3    H272132   4.911   5.759   2.158  0.4175  0.0270  0.5090
16881TIP3   OH272133   3.956   0.037  12.806 -0.7107 -0.8363 -0.2548
16881TIP3    H172134   4.046   0.003  12.806  0.8278  2.7187  0.9633
16881TIP3    H272135   3.940   0.063  12.715 -0.0395 -0.5214 -0.2924
16882TIP3   OH272136   5.125   3.993   1.490  0.5760 -0.1526 -0.1159
16882TIP3    H172137   5.142   3.974   1.398  0.3972  0.9157 -0.3851
16882TIP3    H272138   5.122   3.908   1.533  2.1665 -0.5951 -0.8246
16883TIP3   OH272139   5.399   1.830  12.139  0.7710 -0.4811  0.5137
16883TIP3    H172140   5.420   1.921  12.118  0.0737 -0.1941  1.0112
16883TIP3    H272141   5.363   1.834  12.228  1.3957 -1.3387  0.8225
16884TIP3   OH272142   2.575   6.379  12.059  0.5722 -0.0874  0.1107
16884TIP3    H172143   2.665   6.351  12.041  0.6204 -1.1079  1.7336
16884TIP3    H272144   2.561   6.454  12.001  1.7477 -1.1852 -1.7000
16885TIP3   OH272145   5.810   2.938   2.266 -0.0425  0.1990 -0.0615
16885TIP3    H172146   5.841   2.929   2.176  1.8604 -0.7196  0.6500
16885TIP3    H272147   5.735   2.878   2.272  0.5253 -0.5894 -0.7210
16886TIP3   OH272148   2.333   2.857  11.497  0.0861  0.7171 -0.0809
16886TIP3    H172149   2.379   2.822  11.420  1.1698 -1.1104  1.2961
16886TIP3    H272150   2.401   2.900  11.548 -0.5551  1.5961  0.0608
16887TIP3   OH272151   4.995   0.859   6.747  0.9933 -0.1430  0.0589
16887TIP3    H172152   4.940   0.799   6.696  1.3693  0.3440 -0.9455
16887TIP3    H272153   4.976   0.837   6.838 -2.1688  1.1164 -0.1565
16888TIP3   OH272154   2.992   1.742   5.161 -0.5880 -1.2341  0.2066
16888TIP3    H172155   3.025   1.736   5.072 -0.8419 -0.7831  0.0765
16888TIP3    H272156   2.898   1.728   5.152 -0.6538 -0.9064  0.3637
16889TIP3   OH272157   2.153   6.369  14.739  0.4220  0.1313  0.7231
16889TIP3    H172158   2.176   6.447  14.689 -0.8026  0.1086  0.1077
16889TIP3    H272159   2.225   6.360  14.803  1.7932  0.3997 -0.7192
16890TIP3   OH272160   1.220   1.777  15.305 -0.3111  0.0469 -0.2561
16890TIP3    H172161   1.223   1.873  15.314 -1.9398  0.3011 -1.8050
16890TIP3    H272162   1.141   1.751  15.353  0.9748 -0.7826  1.5425
16891TIP3   OH272163   3.115   0.067   3.173 -0.4742  0.0621  0.3715
16891TIP3    H172164   3.080   0.128   3.238 -0.8595 -1.3189  1.4972
16891TIP3    H272165   3.145  -0.008   3.224  0.7862 -0.3464 -0.9042
16892TIP3   OH272166   3.266   3.150   0.607  0.2228 -0.3546  0.4644
16892TIP3    H172167   3.223   3.131   0.524 -0.2098 -0.5557  0.7273
16892TIP3    H272168   3.326   3.077   0.621  0.7761  0.0149  0.0114
16893TIP3   OH272169   2.718   5.539   6.327  0.6649 -0.0053 -0.1731
16893TIP3    H172170   2.757   5.487   6.257  1.3685 -0.5987  0.6430
16893TIP3    H272171   2.635   5.570   6.291  0.7999 -0.6952 -1.0944
16894TIP3   OH272172   2.500   3.973  14.954  0.1228  0.3592 -0.1808
16894TIP3    H172173   2.451   4.011  15.026 -1.4569  2.0781 -2.0314
16894TIP3    H272174   2.583   4.021  14.954  0.9638 -0.9995  1.5970
16895TIP3   OH272175   0.216   4.553  12.250 -0.5640  0.0762  0.0826
16895TIP3    H172176   0.272   4.604  12.192 -0.2194  0.3187  0.6211
16895TIP3    H272177   0.254   4.565  12.337 -0.8078 -0.6514  0.2922
16896TIP3   OH272178   5.471   4.731   3.679  0.0230  0.3441  0.5870
16896TIP3    H172179   5.484   4.657   3.739 -1.1752  0.2404  0.7299
16896TIP3    H272180   5.425   4.693   3.605  1.6072  0.4445 -0.4958
16897TIP3   OH272181   0.018   4.151   0.713  0.2641  0.6544  0.1360
16897TIP3    H172182   0.092   4.153   0.651  0.7439  4.0142  0.5969
16897TIP3    H272183   0.051   4.100   0.787  1.8908  1.3743 -0.0261
16898TIP3   OH272184   4.063   6.734   1.301  0.1606  0.2196  0.8748
16898TIP3    H172185   4.128   6.798   1.330 -0.1972  0.7985  0.4267
16898TIP3    H272186   4.109   6.682   1.235  0.2019  0.5699  0.6240
16899TIP3   OH272187   1.248   1.593  11.838 -0.0122 -0.3813  0.5304
16899TIP3    H172188   1.275   1.514  11.791  1.3728 -0.9529  2.1747
16899TIP3    H272189   1.188   1.638  11.778  0.0754 -2.0876 -0.9042
16900TIP3   OH272190   5.041   4.213   0.524 -0.7885 -0.6683 -0.0012
16900TIP3    H172191   4.998   4.245   0.445 -1.9817 -2.0679  0.0470
16900TIP3    H272192   4.987   4.248   0.596 -0.1816 -0.0822  0.1809
16901TIP3   OH272193   2.144   0.294   3.828 -0.1819 -0.3242  0.2872
16901TIP3    H172194   2.235   0.300   3.798 -0.7612  0.6506 -1.4002
16901TIP3    H272195   2.101   0.371   3.791 -1.7265 -0.8170  0.9679
16902TIP3   OH272196   1.965   2.356   5.755 -0.2819  0.0731  0.4177
16902TIP3    H172197   2.059   2.373   5.754 -0.2047 -0.3435 -0.6239
16902TIP3    H272198   1.956   2.265   5.783 -0.2140 -0.5771 -1.4788
16903TIP3   OH272199   5.618   1.544   5.271 -0.3424  0.0446 -0.7030
16903TIP3    H172200   5.688   1.525   5.208 -1.1630 -0.0158 -1.6197
16903TIP3    H272201   5.605   1.463   5.319 -0.8727 -0.4309 -1.6329
16904TIP3   OH272202   6.590   3.624   6.588  0.4057 -0.1447 -0.0746
16904TIP3    H172203   6.510   3.590   6.548  1.0303 -2.6097  0.5917
16904TIP3    H272204   6.559   3.690   6.649 -1.1887 -1.2378  0.3801
16905TIP3   OH272205   2.168   5.743  16.277 -0.2548 -0.0433  0.6823
16905TIP3    H172206   2.102   5.805  16.307  1.0931  1.4243  0.7639
16905TIP3    H272207   2.168   5.751  16.182 -1.6233 -1.6245  0.4988
16906TIP3   OH272208   2.839   5.789   2.745  0.2451  0.6835 -0.2079
16906TIP3    H172209   2.803   5.752   2.826 -1.4049  2.6412  0.0302
16906TIP3    H272210   2.898   5.858   2.775  2.7113 -1.1142 -0.6562
16907TIP3   OH272211   4.843   6.322   4.586  0.0458 -0.3640  0.1396
16907TIP3    H172212   4.778   6.331   4.516 -0.2038  2.0716  0.5903
16907TIP3    H272213   4.804   6.367   4.661  2.6352  2.2660  0.0878
16908TIP3   OH272214   5.430   3.457  11.019  0.2646 -0.7455 -0.4259
16908TIP3    H172215   5.463   3.368  11.003  0.5772 -0.7936  0.4337
16908TIP3    H272216   5.443   3.471  11.113 -1.7103 -0.5675 -0.1433
16909TIP3   OH272217   6.585   4.918   3.425  0.1560  0.3269  0.2851
16909TIP3    H172218   6.526   4.854   3.388  0.4332  0.6560 -0.7655
16909TIP3    H272219   6.535   4.999   3.427  0.5198  0.5880 -0.5324
16910TIP3   OH272220   5.389   1.285  12.554 -0.2519  0.2911 -0.0371
16910TIP3    H172221   5.463   1.284  12.493 -0.5124  0.5771 -0.3607
16910TIP3    H272222   5.318   1.327  12.505 -0.8321 -0.5750  0.0364
16911TIP3   OH272223   1.402   0.824  15.392  0.2187  0.1866 -0.3628
16911TIP3    H172224   1.477   0.884  15.389 -0.9841  1.7241 -0.9809
16911TIP3    H272225   1.373   0.818  15.302  0.4331 -1.5568 -0.3521
16912TIP3   OH272226   4.061   0.478   0.344  0.0888  0.8501 -0.3918
16912TIP3    H172227   4.110   0.502   0.423  1.3924  0.9622 -1.2012
16912TIP3    H272228   4.108   0.403   0.309 -1.0781  0.1672 -0.5410
16913TIP3   OH272229   1.906   0.141  15.849  0.3041 -0.1212  0.0275
16913TIP3    H172230   1.991   0.095  15.847 -0.0053 -0.6923 -1.1982
16913TIP3    H272231   1.842   0.071  15.835 -0.3926  0.2916  1.0637
16914TIP3   OH272232   3.721   0.192   3.586 -0.1462 -0.1254  0.9807
16914TIP3    H172233   3.625   0.191   3.580 -0.0660  0.0411 -1.2267
16914TIP3    H272234   3.747   0.106   3.554  0.4467 -0.0407  1.2391
16915TIP3   OH272235   5.299   4.758   1.236 -0.2472 -0.2466 -0.4248
16915TIP3    H172236   5.235   4.689   1.216  0.2282 -1.0439  0.7303
16915TIP3    H272237   5.379   4.728   1.193  0.0370 -0.5733  0.3196
16916TIP3   OH272238   0.596   2.383   0.097 -0.1871 -0.0252  0.6880
16916TIP3    H172239   0.643   2.459   0.062  2.4158 -0.7205  2.3830
16916TIP3    H272240   0.584   2.403   0.189 -3.0814 -0.0463  0.3881
16917TIP3   OH272241   3.260   3.782   1.582  0.3947  0.2371  0.0133
16917TIP3    H172242   3.270   3.717   1.513 -0.0789 -0.8037  0.9057
16917TIP3    H272243   3.235   3.732   1.660 -2.8376  1.6885  0.0859
16918TIP3   OH272244   3.094   6.048   3.905  0.2255 -0.2006 -0.0304
16918TIP3    H172245   3.061   6.115   3.966 -0.5800  0.8457 -1.5583
16918TIP3    H272246   3.148   6.096   3.843 -1.7284 -0.6312 -2.1729
16919TIP3   OH272247   5.289   4.913   3.851 -0.3707  1.0197  0.3377
16919TIP3    H172248   5.302   4.956   3.767  1.2156 -0.2756 -0.1301
16919TIP3    H272249   5.348   4.838   3.849 -0.6525  0.6811  2.4241
16920TIP3   OH272250   2.821   6.824  16.575 -0.0285  0.1228 -0.1411
16920TIP3    H172251   2.731   6.852  16.586  0.4448  1.5738  0.3369
16920TIP3    H272252   2.824   6.735  16.612 -1.2343  0.0655 -0.1507
16921TIP3   OH272253   1.509   3.780  16.943 -0.3528 -0.3638  0.3017
16921TIP3    H172254   1.553   3.698  16.918 -0.4072 -0.7298  1.3733
16921TIP3    H272255   1.434   3.786  16.884  0.4004 -0.3874 -0.6917
16922TIP3   OH272256   4.034   3.000   1.734 -0.2090  0.0299 -0.0840
16922TIP3    H172257   3.981   2.995   1.655 -1.9964 -2.1921  1.1420
16922TIP3    H272258   4.123   2.979   1.705 -0.3697  1.4724 -1.7966
16923TIP3   OH272259   1.846   6.373   2.107  0.6353 -0.8255 -0.1108
16923TIP3    H172260   1.901   6.379   2.029 -1.1959  1.3914 -1.3438
16923TIP3    H272261   1.853   6.459   2.148 -1.6561 -0.5567 -0.1777
16924TIP3   OH272262   6.721   3.455  17.145  0.0548  0.3976  0.7271
16924TIP3    H172263   6.738   3.367  17.177  0.6830  0.2599  0.0479
16924TIP3    H272264   6.677   3.499  17.217  2.1429  0.3551  2.1229
16925TIP3   OH272265   0.988   5.186   2.781  0.3877 -0.0522 -0.4218
16925TIP3    H172266   0.941   5.129   2.721 -0.1647  0.5196 -0.5316
16925TIP3    H272267   0.965   5.275   2.754  0.6967  0.2177  0.1817
16926TIP3   OH272268   1.450   3.216  15.954  0.3759 -0.2372 -0.4534
16926TIP3    H172269   1.362   3.240  15.925 -0.9391 -1.5895  2.1329
16926TIP3    H272270   1.470   3.278  16.024  1.0285 -0.6273 -0.2903
16927TIP3   OH272271   0.227   1.596  14.413  0.5206 -0.3049  0.5882
16927TIP3    H172272   0.227   1.620  14.321 -2.0431  1.7894  1.0099
16927TIP3    H272273   0.159   1.529  14.420  1.4401 -1.2460  0.8467
16928TIP3   OH272274   6.241   1.099   0.442 -0.8443 -0.0971  0.0226
16928TIP3    H172275   6.159   1.108   0.394 -0.9310 -2.8282 -0.4924
16928TIP3    H272276   6.263   1.006   0.436 -0.0423 -0.3455  3.9550
16929TIP3   OH272277   3.833   1.568  14.010 -0.4946 -0.4491 -0.0693
16929TIP3    H172278   3.901   1.542  13.948  0.4748  0.9059  0.3752
16929TIP3    H272279   3.758   1.589  13.955 -0.3705 -1.3742 -0.6105
16930TIP3   OH272280   3.077   3.614  15.835  0.1344 -0.3922  0.2520
16930TIP3    H172281   3.141   3.578  15.896 -0.1616  0.0788  0.8550
16930TIP3    H272282   3.036   3.537  15.795 -0.5144 -0.7397  1.5465
16931TIP3   OH272283   0.445   2.289  17.086 -0.0789 -0.7079  0.1937
16931TIP3    H172284   0.484   2.344  17.154 -1.4003 -0.8329  1.0749
16931TIP3    H272285   0.352   2.308  17.090 -0.1353 -0.3633 -1.9296
16932TIP3   OH272286   5.179   5.083  12.220  0.4705 -0.0760  0.0634
16932TIP3    H172287   5.156   4.990  12.218  0.5402 -0.1233  1.0663
16932TIP3    H272288   5.196   5.105  12.128  0.1786 -0.9790 -0.2210
16933TIP3   OH272289   5.039   1.905  15.604  0.3620  0.5865  0.3233
16933TIP3    H172290   5.080   1.843  15.543 -3.5000  0.8689 -2.9590
16933TIP3    H272291   5.055   1.990  15.564 -0.5698  0.9815  0.7842
16934TIP3   OH272292   5.083   5.172   0.533 -0.1501 -0.0399  0.1133
16934TIP3    H172293   4.992   5.201   0.532 -0.2128 -0.2253  0.4331
16934TIP3    H272294   5.085   5.099   0.595  0.3260  0.3234  0.5346
16935TIP3   OH272295   5.647   6.072  15.850 -0.2163  0.1921  0.4788
16935TIP3    H172296   5.687   6.159  15.857 -1.6882  1.1061 -1.6924
16935TIP3    H272297   5.691   6.031  15.775 -0.4238 -0.4563  0.7018
16936TIP3   OH272298   5.321   1.517  15.436 -0.7780  0.0220  0.1681
16936TIP3    H172299   5.301   1.500  15.344  0.3091 -0.5248  0.0068
16936TIP3    H272300   5.412   1.546  15.435 -1.1680  1.3547  0.9507
16937TIP3   OH272301   5.261   6.795   4.281 -0.4877  0.0189  0.1340
16937TIP3    H172302   5.344   6.749   4.296 -0.1165  0.4887 -0.4131
16937TIP3    H272303   5.287   6.876   4.237 -1.3671 -0.6869 -1.8084
16938TIP3   OH272304   4.695   4.757   1.001  0.9075 -0.1556  0.5507
16938TIP3    H172305   4.703   4.668   0.968  2.3953  0.1728 -0.0344
16938TIP3    H272306   4.733   4.754   1.089  0.6996 -0.1487  0.6427
16939TIP3   OH272307   4.032   0.089   0.824  0.1969 -0.2220 -0.0509
16939TIP3    H172308   4.086   0.143   0.766  0.7554 -0.0140  0.6546
16939TIP3    H272309   4.035   0.002   0.784 -1.7379  0.4702 -1.9019
16940TIP3   OH272310   3.949   1.127  15.924  0.0336  0.1941  0.5276
16940TIP3    H172311   4.017   1.160  15.982  1.5542 -1.3126 -0.3144
16940TIP3    H272312   3.914   1.050  15.969 -1.5338  1.2360  1.1901
16941TIP3   OH272313   6.541   5.886  16.624 -0.6023 -0.0172 -0.1816
16941TIP3    H172314   6.584   5.843  16.698 -0.6113 -0.1959 -0.2810
16941TIP3    H272315   6.606   5.948  16.590 -0.8379  0.5671  0.4070
16942TIP3   OH272316   0.147   0.165  16.283  0.1517 -0.3999 -0.4559
16942TIP3    H172317   0.148   0.074  16.254  0.7832 -0.8417  0.8949
16942TIP3    H272318   0.151   0.160  16.378  1.5245  1.0490 -0.3969
16943TIP3   OH272319   3.159   3.321  10.753 -0.1738 -0.2673 -0.7100
16943TIP3    H172320   3.226   3.275  10.803  1.3298  0.8909 -1.5699
16943TIP3    H272321   3.187   3.312  10.661 -1.7261 -0.5516 -1.1919
16944TIP3   OH272322   4.969   0.135  16.996  0.4079  0.2055  0.6745
16944TIP3    H172323   4.881   0.097  16.985 -0.3869  1.8042  1.2042
16944TIP3    H272324   5.024   0.084  16.937 -1.2677  0.4374 -1.2127
16945TIP3   OH272325   3.381   0.128  16.541 -0.2586  0.0726  0.2031
16945TIP3    H172326   3.374   0.187  16.466 -0.6705  0.0795  0.2450
16945TIP3    H272327   3.439   0.058  16.511  0.8760  0.8866  0.4066
16946TIP3   OH272328   1.448   5.799  15.493 -0.0168 -0.5628 -0.4422
16946TIP3    H172329   1.427   5.753  15.412 -0.8713  0.7903 -1.0086
16946TIP3    H272330   1.404   5.748  15.561  0.8966 -1.8402 -0.7532
16947TIP3   OH272331   0.799   2.767   2.818  0.2582 -0.1830 -0.7085
16947TIP3    H172332   0.835   2.794   2.902 -0.7486  1.4080 -0.7477
16947TIP3    H272333   0.874   2.735   2.768  0.9939 -0.3441  0.4878
16948TIP3   OH272334   4.920   2.900   1.388 -0.5666  0.4381 -0.3053
16948TIP3    H172335   4.982   2.949   1.334 -0.3829  1.3992  0.7627
16948TIP3    H272336   4.880   2.838   1.327  0.5597  0.6276 -1.2712
16949TIP3   OH272337   6.122   3.808  15.655 -0.3619 -0.8256  0.2525
16949TIP3    H172338   6.217   3.813  15.660 -0.3168 -2.1144  1.0441
16949TIP3    H272339   6.091   3.829  15.743 -0.6117 -3.6347  0.9085
16950TIP3   OH272340   4.837   3.384  16.627 -0.3624  0.0578  0.4946
16950TIP3    H172341   4.785   3.463  16.614  1.4364  1.1892 -0.3845
16950TIP3    H272342   4.922   3.417  16.658  0.8454 -1.3895 -1.0849
16951TIP3   OH272343   0.555   3.163   3.496  0.2755 -0.0000  0.8382
16951TIP3    H172344   0.527   3.245   3.454 -0.5009  0.3302  1.9541
16951TIP3    H272345   0.491   3.149   3.566 -0.4680 -2.3060 -0.1788
16952TIP3   OH272346   6.057   5.940  16.565  0.0997  0.3808 -0.2387
16952TIP3    H172347   6.130   5.995  16.539 -0.2792  1.3458  0.6555
16952TIP3    H272348   5.979   5.995  16.554 -0.2391  0.2386  1.1571
16953TIP3   OH272349   1.974   2.397  16.415 -0.3833 -0.5691  0.3080
16953TIP3    H172350   2.059   2.361  16.387  0.9624  1.7903  1.0524
16953TIP3    H272351   1.996   2.452  16.490 -2.7998 -0.8531  1.2773
16954TIP3   OH272352   4.806   3.975   0.658 -0.1737 -0.0406 -0.1106
16954TIP3    H172353   4.898   3.994   0.677  0.9400 -1.5878 -3.2205
16954TIP3    H272354   4.783   3.906   0.720  0.2402  1.3280  1.6552
16955TIP3   OH272355   0.414   3.374   6.579 -0.5320 -0.4909 -0.0926
16955TIP3    H172356   0.367   3.367   6.662  0.6517 -4.5854  0.4877
16955TIP3    H272357   0.506   3.384   6.604 -0.4498  1.5724 -1.0597
16956TIP3   OH272358   1.943   6.663  14.912 -0.6176 -0.2035  0.3706
16956TIP3    H172359   1.870   6.614  14.875  0.3657 -0.8053 -0.8405
16956TIP3    H272360   2.001   6.596  14.949 -0.1664  0.1800  0.3685
16957TIP3   OH272361   5.210   2.148   4.733  0.0266 -0.5606 -0.0442
16957TIP3    H172362   5.181   2.213   4.669 -1.2269 -0.7181  0.3263
16957TIP3    H272363   5.219   2.067   4.683 -2.1628 -0.9862  0.1312
16958TIP3   OH272364   0.072   4.948  14.966  0.4996  0.1703  0.5450
16958TIP3    H172365   0.128   4.952  14.889  0.3582  3.1867  0.4652
16958TIP3    H272366   0.056   5.040  14.989  1.1775 -0.5286  4.6512
16959TIP3   OH272367   6.134   3.019   2.026 -0.2090  0.1468  0.2338
16959TIP3    H172368   6.152   2.994   2.117  0.5338  1.5012  0.4871
16959TIP3    H272369   6.054   3.071   2.031 -1.4716 -1.6290 -0.2282
16960TIP3   OH272370   4.194   5.628  15.726 -0.0101 -0.3049 -0.3096
16960TIP3    H172371   4.132   5.700  15.713 -0.5618 -0.3385  1.7175
16960TIP3    H272372   4.168   5.562  15.663 -1.1217  0.2693 -0.4779
16961TIP3   OH272373   4.136   6.192  15.787 -0.4348 -0.0069  0.6963
16961TIP3    H172374   4.191   6.114  15.783 -0.1747  0.0656  2.2175
16961TIP3    H272375   4.188   6.260  15.745 -0.0689 -0.3353  0.6074
16962TIP3   OH272376   3.047   4.530  14.815  0.1048 -0.4322  0.2025
16962TIP3    H172377   2.959   4.496  14.831  0.1540 -1.3011 -1.2241
16962TIP3    H272378   3.035   4.594  14.745  0.8422 -2.1125 -1.5611
16963TIP3   OH272379   0.939   0.039   3.954  0.0170 -0.4121 -0.3927
16963TIP3    H172380   0.971   0.115   3.907  1.3038 -1.3624 -1.1274
16963TIP3    H272381   0.998  -0.032   3.928  1.6455 -0.7824  3.6083
16964TIP3   OH272382   0.727   5.681  13.306  0.3054 -0.6035 -0.3864
16964TIP3    H172383   0.689   5.637  13.231  1.0292  0.4841 -1.4385
16964TIP3    H272384   0.780   5.614  13.349  1.1382 -0.8738 -1.7671
16965TIP3   OH272385   0.065   3.812   4.278 -1.0324  0.0047  0.3290
16965TIP3    H172386  -0.008   3.782   4.225 -1.8348  0.2074  1.3008
16965TIP3    H272387   0.025   3.857   4.352  0.0743  0.0629  0.9173
16966TIP3   OH272388   5.076   2.306  11.659 -0.0288  0.0985 -0.2743
16966TIP3    H172389   5.066   2.367  11.585 -1.7112 -0.7850 -0.8244
16966TIP3    H272390   5.118   2.229  11.621 -0.1835 -0.0545 -0.1345
16967TIP3   OH272391   1.784   2.568  11.036 -0.1130 -0.3610 -0.0559
16967TIP3    H172392   1.854   2.529  10.984 -1.0907  0.0205 -1.7457
16967TIP3    H272393   1.794   2.662  11.023 -1.4193 -0.3309 -1.0080
16968TIP3   OH272394   5.264   1.003  10.770 -0.2226  0.5234 -0.1752
16968TIP3    H172395   5.276   1.071  10.704  0.0339  0.3529 -0.3082
16968TIP3    H272396   5.318   0.930  10.739  0.0968  0.5343  0.3563
16969TIP3   OH272397   5.289   3.320   5.466  0.1614 -0.1487 -0.5154
16969TIP3    H172398   5.298   3.258   5.538 -0.6739  0.0030 -0.2585
16969TIP3    H272399   5.309   3.405   5.505 -1.3431  0.0756 -0.1601
16970TIP3   OH272400   6.209   6.087   4.689  0.3814 -0.3418  0.0777
16970TIP3    H172401   6.207   6.118   4.779 -1.0095 -1.5852  0.5195
16970TIP3    H272402   6.160   6.153   4.639 -0.7923 -0.7520  0.6462
16971TIP3   OH272403   4.290   5.249  14.992 -0.1709  0.1597  0.0336
16971TIP3    H172404   4.363   5.202  15.031 -0.5708  1.2980  2.3211
16971TIP3    H272405   4.225   5.255  15.062 -2.7467 -1.2473 -2.0306
16972TIP3   OH272406   4.731   4.214   2.166  0.0792  0.5020 -0.0909
16972TIP3    H172407   4.728   4.282   2.233 -2.4101 -0.7621  1.2142
16972TIP3    H272408   4.640   4.203   2.138  0.7866 -0.3628 -2.3206
16973TIP3   OH272409   5.025   4.592  11.584  0.3233 -0.2742 -0.1286
16973TIP3    H172410   4.967   4.615  11.512 -1.6477 -2.3851  0.6512
16973TIP3    H272411   4.966   4.571  11.657  2.1701 -0.1126  1.5057
16974TIP3   OH272412   0.240   3.132  12.035  0.4378 -0.3154  0.6490
16974TIP3    H172413   0.242   3.110  11.941 -0.1178  0.4957  0.4414
16974TIP3    H272414   0.300   3.205  12.044  1.0090 -0.8252  1.0531
16975TIP3   OH272415   2.459   0.680  14.555 -0.2022 -0.6677  0.1438
16975TIP3    H172416   2.535   0.736  14.571  0.1084 -0.2483 -2.4742
16975TIP3    H272417   2.493   0.591  14.562  0.1322 -0.5034  0.6673
16976TIP3   OH272418   4.886   2.351   3.427  0.3266 -0.5269  0.0893
16976TIP3    H172419   4.969   2.313   3.400 -0.1376 -0.9386 -0.8044
16976TIP3    H272420   4.829   2.342   3.350 -0.6876 -0.6780  0.8403
16977TIP3   OH272421   6.590   1.905  12.112  0.0149  0.2459  0.1757
16977TIP3    H172422   6.582   1.861  12.027 -1.0603  1.4265 -0.3746
16977TIP3    H272423   6.501   1.903  12.148 -0.0196  1.7056  0.2358
16978TIP3   OH272424   3.029   1.397  13.005  0.1379 -0.0238  0.1152
16978TIP3    H172425   2.951   1.394  13.061  1.3055  0.5401  1.8619
16978TIP3    H272426   3.097   1.352  13.056  1.3440  0.7824 -0.7081
16979TIP3   OH272427   2.129   3.977   0.918 -0.0496 -0.0789  0.0115
16979TIP3    H172428   2.059   3.941   0.863  1.1584 -1.2975 -0.7986
16979TIP3    H272429   2.145   4.064   0.882  1.3558 -1.1910 -2.2885
16980TIP3   OH272430   1.786   0.778  12.971 -0.4368  0.0169  0.1858
16980TIP3    H172431   1.818   0.864  12.945  1.5855 -1.0127 -0.9963
16980TIP3    H272432   1.762   0.736  12.889  1.1782 -1.4716  0.4191
16981TIP3   OH272433   4.243   1.919   0.585  0.1126  0.7372  0.1651
16981TIP3    H172434   4.323   1.949   0.543  0.0442  2.4249  1.1674
16981TIP3    H272435   4.204   1.859   0.521  1.7156  0.5587 -0.6961
16982TIP3   OH272436   1.680   1.346  11.397 -0.4985  0.0060 -0.5566
16982TIP3    H172437   1.701   1.323  11.488 -1.1790  1.2935 -0.0463
16982TIP3    H272438   1.759   1.392  11.366 -1.1164  1.6463  0.1828
16983TIP3   OH272439   5.019   2.604   0.543 -0.8996 -0.0745  0.4252
16983TIP3    H172440   5.008   2.674   0.479 -0.7224 -1.7301 -1.5120
16983TIP3    H272441   5.112   2.607   0.567 -0.4941 -0.6846 -0.9713
16984TIP3   OH272442   3.560   5.462   5.392  0.1387  0.0888  0.2196
16984TIP3    H172443   3.566   5.514   5.312  0.4904  0.4155  0.4543
16984TIP3    H272444   3.566   5.371   5.363 -2.3036  0.0648 -0.3896
16985TIP3   OH272445   6.203   0.227   3.091  0.0657  0.0831 -0.2294
16985TIP3    H172446   6.132   0.206   3.152  1.3853 -0.0014  1.3456
16985TIP3    H272447   6.282   0.228   3.145  1.6805 -2.3208 -2.3045
16986TIP3   OH272448   1.684   1.614  14.751 -0.2998  1.1166  0.1798
16986TIP3    H172449   1.606   1.669  14.749  1.0165  3.0643 -0.0094
16986TIP3    H272450   1.757   1.675  14.763  1.1877 -0.6668  0.7809
16987TIP3   OH272451   1.694   3.812  16.180 -0.0330 -0.2321  0.2708
16987TIP3    H172452   1.621   3.754  16.155 -2.1754  1.4429  2.2200
16987TIP3    H272453   1.681   3.891  16.127  0.8900 -0.2112  0.0540
16988TIP3   OH272454   6.164   2.268   5.994 -0.0342 -0.2263  0.5391
16988TIP3    H172455   6.143   2.187   6.041 -2.0876  0.2320  0.5083
16988TIP3    H272456   6.189   2.330   6.063  0.1548 -0.4830  0.7025
16989TIP3   OH272457   1.264   2.103   1.363 -0.3070 -0.1725  0.2262
16989TIP3    H172458   1.327   2.035   1.387 -0.5954 -0.3097  0.6024
16989TIP3    H272459   1.266   2.164   1.436  1.1133  1.0726 -0.8012
16990TIP3   OH272460   4.847   5.155   0.917 -0.4600  0.0463  0.4810
16990TIP3    H172461   4.762   5.199   0.922 -1.0119 -0.8645 -0.5579
16990TIP3    H272462   4.903   5.205   0.977 -1.3277  1.5389  0.1130
16991TIP3   OH272463   2.762   0.790  11.229  0.6354 -0.1647 -0.1777
16991TIP3    H172464   2.683   0.764  11.180 -0.5935  1.5656  0.7666
16991TIP3    H272465   2.770   0.723  11.297 -0.9252  0.3905  0.6091
16992TIP3   OH272466   5.868   0.235  10.309  0.3402  0.0851 -0.1126
16992TIP3    H172467   5.784   0.213  10.351 -0.3854 -0.3227 -1.7014
16992TIP3    H272468   5.853   0.321  10.270  0.4797 -0.2265 -0.8646
16993TIP3   OH272469   2.832   4.586   0.323  0.4209  0.2046  0.3148
16993TIP3    H172470   2.823   4.575   0.229  0.9731 -0.5645  0.3406
16993TIP3    H272471   2.904   4.528   0.347 -1.1244 -1.3168  1.5250
16994TIP3   OH272472   2.258   6.296  13.790  0.6659 -0.1752  0.3611
16994TIP3    H172473   2.259   6.392  13.788 -0.1902 -0.1662 -0.2585
16994TIP3    H272474   2.347   6.272  13.814  0.9694  0.7729  0.2456
16995TIP3   OH272475   0.193   5.965  14.494 -0.0274 -0.3721 -0.2809
16995TIP3    H172476   0.097   5.970  14.485 -0.0765 -0.5116  0.1384
16995TIP3    H272477   0.226   6.001  14.412 -0.4117  1.6233  0.3850
16996TIP3   OH272478   5.876   0.331   1.431 -0.1453  0.7072 -0.3154
16996TIP3    H172479   5.842   0.244   1.409  0.9595  0.0435  0.4436
16996TIP3    H272480   5.960   0.313   1.473 -0.0751  2.1387  0.2070
16997TIP3   OH272481   6.737   0.470  14.470  0.1194 -0.8944  0.2434
16997TIP3    H172482   6.662   0.529  14.476  0.2794 -0.2595 -2.6285
16997TIP3    H272483   6.727   0.427  14.385  1.1240 -3.5225  1.3475
16998TIP3   OH272484   0.566   2.449   0.773 -0.3321  0.3887  1.0201
16998TIP3    H172485   0.519   2.405   0.703  1.2687 -1.1506  0.8574
16998TIP3    H272486   0.598   2.530   0.734 -1.6791  0.8203  0.7684
16999TIP3   OH272487   6.106   3.993   2.651  0.3405  0.3305 -0.1072
16999TIP3    H172488   6.084   4.085   2.634  4.2659  1.0395 -2.7286
16999TIP3    H272489   6.163   3.995   2.727 -1.4303 -0.3708  1.3182
17000TIP3   OH272490   4.521   4.368   4.992  0.3865 -0.7023 -0.0626
17000TIP3    H172491   4.533   4.335   5.081 -0.1404 -0.9017 -0.0620
17000TIP3    H272492   4.609   4.391   4.963  0.7603 -1.9854 -0.0132
17001TIP3   OH272493   1.042   3.790  10.841  0.3110 -0.3258 -0.8984
17001TIP3    H172494   1.087   3.761  10.920 -0.2455 -0.6554 -0.6959
17001TIP3    H272495   1.100   3.855  10.802  0.2697  0.3536  0.1578
17002TIP3   OH272496   1.919   3.583  15.384  0.2470 -0.1400  0.6157
17002TIP3    H172497   1.898   3.657  15.440 -0.3842  1.2878 -1.3800
17002TIP3    H272498   2.002   3.607  15.342 -1.4303  0.9503 -2.3352
17003TIP3   OH272499   0.606   2.314   4.533  0.1737 -0.1298 -0.3464
17003TIP3    H172500   0.533   2.262   4.501  1.1390 -2.7055  1.3288
17003TIP3    H272501   0.647   2.350   4.454 -1.4180 -0.6868 -1.4656
17004TIP3   OH272502   4.129   2.849  11.753  0.1969 -0.9603 -0.1267
17004TIP3    H172503   4.166   2.930  11.787  0.0963 -1.3939  1.0588
17004TIP3    H272504   4.202   2.787  11.755  0.1997 -0.9825 -0.7639
17005TIP3   OH272505   0.210   5.127   6.238 -0.1876 -0.2747 -0.0881
17005TIP3    H172506   0.168   5.141   6.323 -0.4241  0.0519 -0.2588
17005TIP3    H272507   0.138   5.111   6.177  0.0550 -3.0290  0.2131
17006TIP3   OH272508   0.319   3.908  16.242  0.3015 -0.2394  0.1239
17006TIP3    H172509   0.277   3.906  16.328 -0.0496  1.4935  0.0257
17006TIP3    H272510   0.393   3.846  16.250 -0.7951 -1.4864  1.0564
17007TIP3   OH272511   1.948   2.981   3.222 -0.2462  0.1116 -0.5115
17007TIP3    H172512   1.955   2.931   3.303 -1.5887  0.7088  0.0035
17007TIP3    H272513   1.921   3.069   3.250 -2.1596 -0.0468 -1.6603
17008TIP3   OH272514   4.148   1.444   3.844 -0.1881 -1.1189 -0.0892
17008TIP3    H172515   4.157   1.511   3.775  0.5507 -0.7042  0.3901
17008TIP3    H272516   4.201   1.478   3.916  0.7113 -2.5130 -0.0543
17009TIP3   OH272517   1.767   3.143  16.397  0.3046  0.4158  0.2208
17009TIP3    H172518   1.796   3.140  16.306 -0.5237 -2.2348 -0.0505
17009TIP3    H272519   1.846   3.124  16.448  0.2415 -1.0897 -0.1784
17010TIP3   OH272520   5.836   2.817  13.869 -0.5191  0.2659 -0.5887
17010TIP3    H172521   5.748   2.855  13.872  0.8656  3.7848  1.9784
17010TIP3    H272522   5.879   2.861  13.795  0.2994  1.9472  0.8146
17011TIP3   OH272523   3.021   0.447  16.948  0.3248  0.3514  0.3658
17011TIP3    H172524   2.972   0.423  16.870  1.7709 -0.0336 -0.4489
17011TIP3    H272525   3.007   0.542  16.957  0.2119  0.4108 -0.3992
17012TIP3   OH272526   5.274   4.594  13.260  0.3052  0.1743  0.1068
17012TIP3    H172527   5.204   4.634  13.209 -0.8000 -2.6225 -0.7801
17012TIP3    H272528   5.318   4.535  13.199  1.9459  0.1442  1.2518
17013TIP3   OH272529   2.534   1.031   4.076 -0.2736  0.4193 -0.5686
17013TIP3    H172530   2.494   1.118   4.074 -0.9385  0.1127 -2.7732
17013TIP3    H272531   2.462   0.971   4.056  0.2173 -0.6702  0.7115
17014TIP3   OH272532   0.317   4.940   4.405  0.3088 -0.0472 -0.4394
17014TIP3    H172533   0.301   4.978   4.319 -0.2642 -0.0311 -0.3245
17014TIP3    H272534   0.320   5.014   4.465 -1.0578 -0.1807 -0.1768
17015TIP3   OH272535   1.358   1.789  13.393  0.1839  0.4014  0.4858
17015TIP3    H172536   1.272   1.830  13.393  0.3440  0.8643 -1.5151
17015TIP3    H272537   1.391   1.803  13.304  2.2985  0.1799  1.1747
17016TIP3   OH272538   6.647   1.158  13.772  0.0321 -0.3017 -1.0236
17016TIP3    H172539   6.660   1.222  13.702 -0.4836  0.3036 -0.5799
17016TIP3    H272540   6.586   1.200  13.832  2.2726  0.2527  1.0677
17017TIP3   OH272541   6.789   6.289   3.814 -0.6664 -0.0137 -0.0538
17017TIP3    H172542   6.824   6.228   3.749 -0.6272  0.9819 -0.9942
17017TIP3    H272543   6.694   6.287   3.800 -0.6589  0.1972 -0.1400
17018TIP3   OH272544   3.939   2.254  16.021  0.9725  0.2211  0.2941
17018TIP3    H172545   3.975   2.173  16.056  0.3646 -0.1523  0.0824
17018TIP3    H272546   3.871   2.279  16.083 -0.3825 -0.6593 -0.7607
17019TIP3   OH272547   0.579   3.972  14.393  0.2012  0.6333  0.1972
17019TIP3    H172548   0.581   4.005  14.304  0.3857 -1.3979 -0.6056
17019TIP3    H272549   0.560   4.049  14.447  0.0653  1.8970 -1.5715
17020TIP3   OH272550   5.982   2.172  16.593  0.3195 -0.5055 -0.4236
17020TIP3    H172551   5.968   2.240  16.527 -1.0581  0.1077  0.4463
17020TIP3    H272552   6.077   2.165  16.602  0.7082 -2.4391 -4.2808
17021TIP3   OH272553   6.706   1.440   4.781  0.1634 -0.4015  0.2789
17021TIP3    H172554   6.786   1.406   4.742  0.0266 -2.5916  1.7179
17021TIP3    H272555   6.646   1.365   4.782 -2.3043  1.3407 -1.5591
17022TIP3   OH272556   4.853   3.843  16.963  0.2910  0.2480  0.0161
17022TIP3    H172557   4.777   3.900  16.947 -0.0143 -0.4674 -1.2479
17022TIP3    H272558   4.815   3.758  16.985  0.7448  0.3044  1.0706
17023TIP3   OH272559   3.875   4.717  12.735  0.1612  0.1730 -0.0087
17023TIP3    H172560   3.823   4.766  12.671  0.0536  0.1287  0.0446
17023TIP3    H272561   3.810   4.677  12.793  0.0959 -2.1317 -1.5417
17024TIP3   OH272562   4.341   6.671  11.147  0.4110 -0.0608 -0.2337
17024TIP3    H172563   4.293   6.698  11.068 -0.5330 -2.4321 -0.5554
17024TIP3    H272564   4.381   6.752  11.179 -0.9123  1.3736 -1.9490
17025TIP3   OH272565   1.838   6.025   0.361  0.5949 -0.2107 -0.4367
17025TIP3    H172566   1.896   5.990   0.294  1.5027  2.6654 -1.2832
17025TIP3    H272567   1.896   6.048   0.434  0.5669  2.2349 -1.0981
17026TIP3   OH272568   2.566   1.235  13.124  0.1918  0.7620 -0.8212
17026TIP3    H172569   2.536   1.214  13.035 -0.8487 -0.1036 -0.2952
17026TIP3    H272570   2.495   1.286  13.162 -0.2935 -0.5973  0.1674
17027TIP3   OH272571   5.271   1.972   4.948  0.2871  0.1502 -0.6823
17027TIP3    H172572   5.292   1.886   4.911  0.8413 -0.2710  0.5786
17027TIP3    H272573   5.202   2.006   4.890 -2.2560 -2.4577  0.5374
17028TIP3   OH272574   1.394   1.575  14.747 -0.2376 -0.5635  0.4982
17028TIP3    H172575   1.398   1.485  14.779  0.4282 -0.3063  1.1679
17028TIP3    H272576   1.301   1.598  14.750 -0.3567 -1.0816  0.7391
17029TIP3   OH272577   6.050   0.864   5.090 -0.5730 -0.8864  0.1983
17029TIP3    H172578   5.973   0.883   5.145  1.0049 -0.3009  2.3264
17029TIP3    H272579   6.091   0.789   5.133  1.8373  0.8655  1.1574
17030TIP3   OH272580   6.304   1.759  16.048 -0.2335  0.4607  0.1463
17030TIP3    H172581   6.250   1.812  15.989  0.1266  2.4530  1.5249
17030TIP3    H272582   6.254   1.754  16.129  0.0323 -0.8100  0.2497
17031TIP3   OH272583   6.240   3.850  10.682 -0.3022  0.3542  0.8964
17031TIP3    H172584   6.213   3.940  10.701 -0.5898  0.3465  0.5263
17031TIP3    H272585   6.159   3.801  10.678 -0.1356  0.0547  1.2098
17032TIP3   OH272586   4.295   3.058  16.482  0.1135  0.2420 -0.0077
17032TIP3    H172587   4.312   3.147  16.452 -1.1436  0.2452 -0.7540
17032TIP3    H272588   4.263   3.012  16.405  0.7611 -0.8775  0.3667
17033TIP3   OH272589   6.356   3.035   5.829  0.0220 -0.2507  0.4872
17033TIP3    H172590   6.418   2.970   5.797  0.3269  0.4068 -0.2991
17033TIP3    H272591   6.328   3.002   5.914  1.8473 -0.3034  1.1113
17034TIP3   OH272592   4.438   6.240   5.797  0.0588 -0.1678 -0.2353
17034TIP3    H172593   4.439   6.325   5.841  0.5491  0.5355 -1.5360
17034TIP3    H272594   4.526   6.231   5.761 -0.9851  0.4944 -3.2103
17035TIP3   OH272595   0.818   2.185  12.576 -0.0732  0.0227  0.3422
17035TIP3    H172596   0.833   2.091  12.571  0.1104  0.1257 -1.6795
17035TIP3    H272597   0.779   2.208  12.492 -2.2030  1.4162  1.6148
17036TIP3   OH272598   5.342   6.431  11.694 -0.2129  0.4526  0.8594
17036TIP3    H172599   5.372   6.518  11.668 -0.0448 -0.0925 -0.9022
17036TIP3    H272600   5.361   6.427  11.788 -0.0903  2.2464  0.9511
17037TIP3   OH272601   3.029   0.169  11.518 -0.6931 -0.1975  0.2184
17037TIP3    H172602   3.101   0.198  11.461 -2.3322  1.9013 -0.9056
17037TIP3    H272603   3.023   0.075  11.503  1.2728 -0.3038 -0.2494
17038TIP3   OH272604   6.727   1.066  16.984  0.2370  0.2424 -0.1200
17038TIP3    H172605   6.676   1.144  16.964  1.0683  0.6601 -0.6416
17038TIP3    H272606   6.793   1.062  16.915  1.5573  0.2644  1.0900
17039TIP3   OH272607   5.100   3.205   5.046 -0.0635 -0.5478 -0.6790
17039TIP3    H172608   5.159   3.260   5.097 -0.5867 -1.8508  1.4800
17039TIP3    H272609   5.156   3.165   4.979  0.3786  2.2400 -2.1113
17040TIP3   OH272610   6.671   3.432   0.438  0.7261 -0.2080  0.8327
17040TIP3    H172611   6.586   3.427   0.481  0.7894  0.7020  1.0887
17040TIP3    H272612   6.732   3.396   0.502  0.5172 -1.0993  0.5513
17041TIP3   OH272613   6.117   5.482  16.030  0.3768 -0.5566  0.2570
17041TIP3    H172614   6.133   5.400  16.077 -0.6229 -1.0681 -0.2597
17041TIP3    H272615   6.124   5.458  15.937  2.3394  0.4459  0.0896
17042TIP3   OH272616   5.951   4.443   4.019 -0.9806  0.2775  0.0737
17042TIP3    H172617   6.042   4.441   4.049 -1.4855 -0.8401  1.6895
17042TIP3    H272618   5.933   4.353   3.992 -1.7076  0.3979  0.1372
17043TIP3   OH272619   5.129   6.311  14.284  0.4735  0.0159  0.2731
17043TIP3    H172620   5.202   6.372  14.278  0.5929 -0.1659 -0.1618
17043TIP3    H272621   5.153   6.239  14.226 -0.7661  0.6973 -1.1512
17044TIP3   OH272622   3.385   1.921  15.901 -0.1931  0.1129 -0.3712
17044TIP3    H172623   3.371   1.996  15.843  0.6403  1.3238  0.9362
17044TIP3    H272624   3.479   1.903  15.896 -0.0698  0.3775  0.7444
17045TIP3   OH272625   0.208   3.675   1.865  0.1050  0.2827 -0.2168
17045TIP3    H172626   0.278   3.713   1.812  0.0415  0.0757 -0.4511
17045TIP3    H272627   0.127   3.702   1.820  0.0658 -0.3079 -0.5092
17046TIP3   OH272628   0.356   6.745  11.769 -0.1597  0.6592  0.2352
17046TIP3    H172629   0.281   6.700  11.807 -0.0651  0.7577  0.5423
17046TIP3    H272630   0.328   6.768  11.681 -1.0619  2.0627  0.8586
17047TIP3   OH272631   1.168   1.945   1.167  0.2191 -0.0842 -0.3420
17047TIP3    H172632   1.179   1.859   1.209 -1.1999  0.1980  0.6796
17047TIP3    H272633   1.212   2.006   1.225 -2.0305  0.3523  1.0099
17048TIP3   OH272634   1.577   0.763  16.391  0.4229 -0.4120 -0.1680
17048TIP3    H172635   1.535   0.833  16.439 -0.4108 -0.8175 -0.2830
17048TIP3    H272636   1.671   0.774  16.408  0.3511  1.0169 -0.5939
17049TIP3   OH272637   2.735   1.979   4.984  0.2123 -0.1525  0.2592
17049TIP3    H172638   2.763   1.888   4.982  1.2067  0.1393 -0.0710
17049TIP3    H272639   2.688   1.991   4.901 -1.0409 -0.6780  0.8685
17050TIP3   OH272640   1.224   6.401  14.973  0.2713  0.6295 -0.0308
17050TIP3    H172641   1.186   6.485  14.947  1.1723  1.4204  1.1245
17050TIP3    H272642   1.281   6.421  15.047  0.8265 -0.9436  0.0245
17051TIP3   OH272643   5.722   0.645   2.082 -0.3179  0.2637  0.0384
17051TIP3    H172644   5.805   0.662   2.126 -0.6029  1.5591  0.1011
17051TIP3    H272645   5.670   0.723   2.097 -1.5315 -0.5006 -0.0751
17052TIP3   OH272646   6.100   6.569  16.777  0.0156  0.0587 -0.7267
17052TIP3    H172647   6.185   6.579  16.734  0.3620  1.5745  0.2454
17052TIP3    H272648   6.116   6.504  16.846  0.7204  1.2109  0.2256
17053TIP3   OH272649   2.867   5.137   1.373 -0.4924 -0.2880  0.2323
17053TIP3    H172650   2.814   5.191   1.315 -0.1934 -0.3185 -0.0727
17053TIP3    H272651   2.819   5.054   1.380 -0.2710 -0.4827 -0.4061
17054TIP3   OH272652   5.577   4.447  14.648  0.5167  0.2220  0.2654
17054TIP3    H172653   5.548   4.479  14.734  0.8831  1.4700 -0.0578
17054TIP3    H272654   5.577   4.352  14.657 -0.3305  0.2999  1.3603
17055TIP3   OH272655   1.762   4.327  12.345  0.0315  0.7092 -0.2414
17055TIP3    H172656   1.829   4.343  12.279 -0.4236 -1.4298 -1.2951
17055TIP3    H272657   1.690   4.286  12.297 -0.5110 -0.4586  1.4860
17056TIP3   OH272658   1.865   1.346  13.765 -0.4899 -0.0536  0.9156
17056TIP3    H172659   1.912   1.265  13.783 -0.2197 -0.1839 -0.3283
17056TIP3    H272660   1.817   1.330  13.684 -1.4550  0.6064  1.3220
17057TIP3   OH272661   0.435   6.811  12.622 -0.3229  0.3815 -0.3418
17057TIP3    H172662   0.365   6.826  12.559  1.6529  0.5508 -2.6420
17057TIP3    H272663   0.463   6.720  12.606  1.4278  1.0112 -1.0853
17058TIP3   OH272664   1.839   4.881  14.845 -0.1916 -0.3497 -0.3668
17058TIP3    H172665   1.866   4.883  14.753  1.2662  0.8978  0.0413
17058TIP3    H272666   1.829   4.973  14.869  1.6402 -0.4971  1.2890
17059TIP3   OH272667   2.135   6.006   5.716 -0.6437  0.1966  0.0931
17059TIP3    H172668   2.205   6.044   5.663 -0.7438  0.3191  0.0476
17059TIP3    H272669   2.062   6.067   5.706 -0.7329  0.1074  0.1993
17060TIP3   OH272670   0.995   2.491   5.417 -0.1992 -0.1814  0.0802
17060TIP3    H172671   0.931   2.426   5.448 -0.1956 -0.6939 -0.9688
17060TIP3    H272672   0.988   2.488   5.322  0.5612  0.6050 -0.0065
17061TIP3   OH272673   1.811   4.718  15.424  0.3311  0.1703 -0.0904
17061TIP3    H172674   1.799   4.804  15.384  1.0820  0.2934 -0.0629
17061TIP3    H272675   1.757   4.721  15.503  0.2531  0.5682 -0.1536
17062TIP3   OH272676   4.542   4.783  15.567 -0.5807  0.1874  0.3194
17062TIP3    H172677   4.636   4.777  15.585 -0.5647  0.7703  0.4261
17062TIP3    H272678   4.501   4.748  15.646 -0.4533 -0.7072  0.0104
17063TIP3   OH272679   4.119   5.700  12.275  0.5599  0.6328 -0.5322
17063TIP3    H172680   4.125   5.731  12.185  1.0077 -0.1525 -0.7846
17063TIP3    H272681   4.145   5.775  12.329 -1.8437  1.8232 -0.9165
17064TIP3   OH272682   2.512   1.946  16.759 -0.9839 -0.4133  0.0261
17064TIP3    H172683   2.552   1.929  16.674  0.4682 -0.9320  0.7838
17064TIP3    H272684   2.529   1.866  16.810 -0.2416  0.5768  1.3807
17065TIP3   OH272685   6.242   4.130  10.432  0.3446  0.0407 -0.3469
17065TIP3    H172686   6.148   4.137  10.447  0.5033 -0.0858  0.7886
17065TIP3    H272687   6.279   4.205  10.479  0.9694 -1.0276  0.9148
17066TIP3   OH272688   4.963   6.438   5.365  0.1286  0.5936  0.7174
17066TIP3    H172689   4.885   6.384   5.379 -0.2841  1.0056  0.0617
17066TIP3    H272690   5.036   6.383   5.394 -0.3345 -0.1023  0.5842
17067TIP3   OH272691   1.131   1.716  15.850  0.1449 -0.6066 -0.7010
17067TIP3    H172692   1.092   1.800  15.873 -0.1134 -1.0696  0.6908
17067TIP3    H272693   1.222   1.723  15.880  0.6619 -0.1826 -2.2755
17068TIP3   OH272694   2.472   4.984   4.989  0.3147  0.0989  0.4610
17068TIP3    H172695   2.548   4.973   5.047 -0.0650  0.4140  1.0298
17068TIP3    H272696   2.405   4.927   5.026 -0.0872  0.6695  0.6219
17069TIP3   OH272697   3.820   1.973   1.084 -0.7651  0.1265 -0.4047
17069TIP3    H172698   3.914   1.990   1.082 -0.6095 -0.7602 -1.6113
17069TIP3    H272699   3.783   2.036   1.022 -0.8704 -0.0243 -0.4968
17070TIP3   OH272700   1.535   1.042  13.193  0.3517 -0.0362 -0.4602
17070TIP3    H172701   1.531   1.117  13.253 -1.5461 -0.9678  0.6890
17070TIP3    H272702   1.623   1.044  13.157  0.3010  2.8801 -0.6691
17071TIP3   OH272703   6.346   5.472   1.162 -0.5551  0.1137  0.2006
17071TIP3    H172704   6.404   5.457   1.236  1.7743 -1.0593 -1.7215
17071TIP3    H272705   6.284   5.538   1.192  1.8123  1.4932  2.3653
17072TIP3   OH272706   5.010   4.057  15.533 -0.5153  0.2496 -0.6182
17072TIP3    H172707   5.026   4.021  15.446  0.2635 -1.4081  0.1576
17072TIP3    H272708   4.954   3.993  15.576  0.8396 -0.0794  0.7819
17073TIP3   OH272709   6.750   6.745   1.343  0.2221 -0.4166  0.6966
17073TIP3    H172710   6.665   6.701   1.346  0.6647 -1.2491  3.0460
17073TIP3    H272711   6.757   6.789   1.428  2.5032 -1.1196  0.9495
17074TIP3   OH272712   1.797   1.084  14.630 -0.4084 -0.6318  0.3584
17074TIP3    H172713   1.724   1.122  14.680 -1.1301 -0.5713 -0.7049
17074TIP3    H272714   1.853   1.159  14.610 -1.4809 -0.1650 -1.1478
17075TIP3   OH272715   4.361   0.846   2.113  0.3340 -0.5224  0.3494
17075TIP3    H172716   4.305   0.890   2.049  3.3090  0.8374 -1.5690
17075TIP3    H272717   4.308   0.840   2.192 -2.3932  0.7679 -1.2502
17076TIP3   OH272718   1.265   1.145  11.143  0.5764  0.2057  0.5928
17076TIP3    H172719   1.309   1.229  11.155  1.2776 -0.1200  0.3649
17076TIP3    H272720   1.178   1.158  11.180  0.2938  1.3689 -0.3903
17077TIP3   OH272721   6.317   4.525   1.794 -0.4637 -0.5839  0.1646
17077TIP3    H172722   6.394   4.518   1.738 -1.0857 -0.2528 -0.7391
17077TIP3    H272723   6.345   4.485   1.877  0.8513  0.0146  0.0397
17078TIP3   OH272724   1.025   0.931  16.409 -0.3831  0.3331  0.2182
17078TIP3    H172725   1.041   0.842  16.376  2.4828  0.8742 -0.0379
17078TIP3    H272726   0.991   0.918  16.497 -0.5415 -1.0228 -0.0216
17079TIP3   OH272727   2.865   0.006  12.559  0.4958  0.2570 -0.1542
17079TIP3    H172728   2.872   0.065  12.634 -0.5190  2.4314 -1.6358
17079TIP3    H272729   2.829  -0.075  12.594  1.4748  0.6533  1.9027
17080TIP3   OH272730   4.741   5.646   5.202 -0.2224  0.0163 -1.3027
17080TIP3    H172731   4.712   5.607   5.284  1.3797 -0.7635 -1.0772
17080TIP3    H272732   4.701   5.733   5.202 -0.4318 -0.0533  0.1932
17081TIP3   OH272733   3.030   4.220   5.308  0.0749 -0.6570  0.1335
17081TIP3    H172734   3.116   4.258   5.290 -0.1617 -0.8892 -1.7023
17081TIP3    H272735   3.047   4.154   5.375  1.2925 -0.5546 -0.0465
17082TIP3   OH272736   4.571   5.665   3.835 -0.1744 -0.0795 -0.2905
17082TIP3    H172737   4.502   5.732   3.832 -0.2428 -0.1699 -1.0254
17082TIP3    H272738   4.609   5.666   3.746  0.3771 -0.4386 -0.0648
17083TIP3   OH272739   1.032   3.291  11.365 -0.0645  0.0524  0.8429
17083TIP3    H172740   0.947   3.289  11.322  0.7415 -1.1586 -0.8543
17083TIP3    H272741   1.064   3.380  11.352 -0.7115  0.2654  0.7190
17084TIP3   OH272742   2.981   0.410  15.683  0.6398  0.0211 -0.0278
17084TIP3    H172743   2.941   0.435  15.767  2.0189 -0.3621  0.7671
17084TIP3    H272744   2.970   0.316  15.679  3.3178 -0.4583  1.2884
17085TIP3   OH272745   5.899   2.512  12.616  0.6365  0.1795  0.2459
17085TIP3    H172746   5.952   2.433  12.613  0.0698 -0.3541  2.4603
17085TIP3    H272747   5.960   2.580  12.646  0.7970  0.3119 -0.3521
17086TIP3   OH272748   2.377   1.860   0.011 -0.6214  0.5610 -0.2025
17086TIP3    H172749   2.300   1.817   0.048 -0.7809  0.3517 -0.7672
17086TIP3    H272750   2.356   1.872  -0.081  1.2348 -2.3468 -1.1226
17087TIP3   OH272751   4.277   6.062  12.851 -0.0693  0.2857 -0.2768
17087TIP3    H172752   4.217   6.081  12.923  1.2706  1.2365  0.6339
17087TIP3    H272753   4.243   5.981  12.813 -0.8662 -0.2157  1.3757
17088TIP3   OH272754   6.543   4.845  11.529 -0.1741 -0.0956 -0.2270
17088TIP3    H172755   6.555   4.877  11.439 -0.6564 -1.1896 -0.7036
17088TIP3    H272756   6.472   4.781  11.522  0.5694 -1.0472  0.7363
17089TIP3   OH272757   5.775   0.952  14.316  0.2546  0.1724 -0.1998
17089TIP3    H172758   5.705   0.901  14.275  1.6975 -1.6453 -0.5151
17089TIP3    H272759   5.786   1.028  14.258 -0.2954 -0.3916 -1.0674
17090TIP3   OH272760   1.597   2.839   0.939  0.1334  0.7589 -0.8199
17090TIP3    H172761   1.665   2.897   0.973 -0.3538  1.6974 -1.3993
17090TIP3    H272762   1.515   2.873   0.975 -0.2267  0.8487 -1.6985
17091TIP3   OH272763   5.586   3.093  11.863  0.2379 -0.0251  0.2453
17091TIP3    H172764   5.507   3.098  11.810  1.5938  3.9115 -1.7586
17091TIP3    H272765   5.654   3.064  11.802  0.7609 -1.6364  1.5105
17092TIP3   OH272766   6.450   3.843  12.588 -0.1257  0.1347  0.1512
17092TIP3    H172767   6.481   3.899  12.659 -0.2746  1.1395 -0.5671
17092TIP3    H272768   6.530   3.818  12.540 -0.0016 -0.7176  0.7798
17093TIP3   OH272769   6.772   4.288  15.434  0.1484 -0.0933 -0.3753
17093TIP3    H172770   6.824   4.367  15.418  0.8608 -0.8705 -2.1755
17093TIP3    H272771   6.807   4.224  15.373 -0.3639 -1.8551  1.0961
17094TIP3   OH272772   4.171   0.484   5.860 -0.1847 -0.0820  0.5146
17094TIP3    H172773   4.142   0.501   5.771 -0.6150 -0.6337  0.5398
17094TIP3    H272774   4.222   0.403   5.854  0.9910  0.6349  0.5477
17095TIP3   OH272775   3.106   3.380   3.648  0.1654  0.1277 -0.4064
17095TIP3    H172776   3.083   3.473   3.658  0.6636  0.2364 -0.2162
17095TIP3    H272777   3.064   3.353   3.567  1.9486  1.1495 -1.7275
17096TIP3   OH272778   1.526   1.541  15.886  0.2985 -0.2454  0.1168
17096TIP3    H172779   1.519   1.480  15.960  1.2623 -1.2274 -0.5593
17096TIP3    H272780   1.555   1.623  15.925  1.7961 -1.0204  0.7491
17097TIP3   OH272781   2.499   2.849  15.594  0.9550  0.1183 -0.4334
17097TIP3    H172782   2.587   2.868  15.626  0.5747  0.5236  0.3953
17097TIP3    H272783   2.512   2.819  15.504  2.0272 -0.7714 -0.0123
17098TIP3   OH272784   2.178   6.670   1.406 -0.6056 -0.2788 -0.3211
17098TIP3    H172785   2.115   6.702   1.340 -0.7620  0.5311  0.2109
17098TIP3    H272786   2.262   6.673   1.361 -0.6941  0.3826 -0.4553
17099TIP3   OH272787   4.132   3.987  12.621  0.1640  0.2738 -0.2394
17099TIP3    H172788   4.095   4.052  12.562  0.9934  1.2287  0.2593
17099TIP3    H272789   4.219   4.021  12.643  0.5043 -0.8710  0.2457
17100TIP3   OH272790   3.408   2.838   3.516 -0.0622 -0.6177 -0.1249
17100TIP3    H172791   3.454   2.903   3.465  2.6293 -4.4495 -3.1858
17100TIP3    H272792   3.316   2.847   3.491  0.6034  0.3749 -2.3904
17101TIP3   OH272793   3.844   1.079   0.644  0.4425 -0.6332  0.3980
17101TIP3    H172794   3.785   1.006   0.660 -0.9283  0.8535  2.6659
17101TIP3    H272795   3.817   1.113   0.558 -1.3074 -0.6751  0.8952
17102TIP3   OH272796   6.391   0.967  10.998  0.0282  0.4331 -0.3321
17102TIP3    H172797   6.299   0.967  11.023  0.2594  1.1083  0.5918
17102TIP3    H272798   6.424   0.882  11.027 -0.1045  0.5451  0.1667
17103TIP3   OH272799   5.244   5.932  12.371  0.0281 -0.5359 -0.5700
17103TIP3    H172800   5.253   6.003  12.435 -0.3563 -0.1400 -0.9478
17103TIP3    H272801   5.299   5.959  12.298  0.0391 -0.7236 -0.6311
17104TIP3   OH272802   5.690   2.976  11.169  0.2570 -0.0082  0.8231
17104TIP3    H172803   5.722   2.965  11.079 -0.3733  0.8809  0.4701
17104TIP3    H272804   5.618   2.914  11.177  1.4915 -1.4079  1.3397
17105TIP3   OH272805   6.013   4.650  16.944 -0.2701 -0.5965  0.0735
17105TIP3    H172806   5.950   4.624  17.010 -2.3150  2.2540 -0.5671
17105TIP3    H272807   5.993   4.594  16.868 -0.2519 -1.4749  0.7055
17106TIP3   OH272808   1.093   5.262  17.048 -0.4593  0.4811  0.2116
17106TIP3    H172809   1.091   5.257  16.953 -0.3833  2.1064  0.0854
17106TIP3    H272810   1.180   5.232  17.072  0.4401  2.3586 -0.4691
17107TIP3   OH272811   6.052   0.710   4.856 -0.1185 -0.2980 -0.0072
17107TIP3    H172812   6.089   0.780   4.910  0.1414 -1.1282  0.9230
17107TIP3    H272813   5.965   0.696   4.892  0.9930 -2.6606  2.0258
17108TIP3   OH272814   4.688   5.100   5.237 -0.3472  0.2513 -0.4181
17108TIP3    H172815   4.630   5.136   5.304 -0.3520 -0.5365  0.0171
17108TIP3    H272816   4.764   5.066   5.286 -1.5669 -2.8516 -0.4101
17109TIP3   OH272817   3.122   0.159  10.722 -0.0272 -0.2340 -0.2519
17109TIP3    H172818   3.036   0.188  10.691 -0.3445  0.6015  1.2693
17109TIP3    H272819   3.180   0.170  10.647 -0.8715  1.0466 -0.7634
17110TIP3   OH272820   6.036   5.429   5.317 -0.2284 -0.0046  0.4526
17110TIP3    H172821   6.060   5.395   5.232  0.2928  2.2947 -0.3989
17110TIP3    H272822   5.942   5.446   5.311 -0.5611 -1.4777  0.9965
17111TIP3   OH272823   5.411   6.247   5.397  0.2714  0.6371 -0.6766
17111TIP3    H172824   5.412   6.161   5.438 -0.4900  1.2024  0.5708
17111TIP3    H272825   5.498   6.256   5.358  1.0800  0.1079  0.9050
17112TIP3   OH272826   4.818   2.237  15.950  0.3021 -0.3993 -0.0599
17112TIP3    H172827   4.906   2.276  15.948 -0.1124  0.5264 -1.4241
17112TIP3    H272828   4.798   2.230  16.043  2.3182 -1.8075  0.3277
17113TIP3   OH272829   4.424   0.654   0.549 -0.0110  0.3715 -0.2050
17113TIP3    H172830   4.511   0.665   0.510  1.0517 -1.4271  1.4889
17113TIP3    H272831   4.383   0.740   0.541  2.6240  1.8065  0.5873
17114TIP3   OH272832   3.435   2.919  12.425  0.0902 -0.1592 -0.2521
17114TIP3    H172833   3.376   2.845  12.414 -0.1861  0.2446 -1.8378
17114TIP3    H272834   3.379   2.992  12.451 -0.0308  0.0435 -1.0333
17115TIP3   OH272835   2.594   5.291   5.183  0.3850 -0.1747  0.3649
17115TIP3    H172836   2.626   5.344   5.110  0.3656 -0.3932  0.1962
17115TIP3    H272837   2.618   5.341   5.261 -2.3370  1.6401  0.1605
17116TIP3   OH272838   3.771   2.793   2.923 -0.5632 -0.1711 -0.2626
17116TIP3    H172839   3.833   2.757   2.987  0.7581  0.5540 -1.0846
17116TIP3    H272840   3.751   2.881   2.955 -0.5791 -0.1254 -0.3957
17117TIP3   OH272841   2.535   2.035  12.513  0.2195 -0.3090 -0.3754
17117TIP3    H172842   2.603   2.006  12.453  1.3438  1.1425  0.1485
17117TIP3    H272843   2.580   2.051  12.596 -0.9486 -0.3335  0.2952
17118TIP3   OH272844   0.950   1.088  12.009  0.5542  0.2723 -0.0592
17118TIP3    H172845   0.910   1.073  12.095  2.5222  0.8603  1.0282
17118TIP3    H272846   1.033   1.131  12.029  0.5183  1.5656 -2.3461
17119TIP3   OH272847   2.200   0.330  13.630  0.4042  0.8653  0.3134
17119TIP3    H172848   2.185   0.243  13.592  2.6109 -0.1537  1.5582
17119TIP3    H272849   2.114   0.358  13.661 -0.1766 -1.4344  0.9771
17120TIP3   OH272850   3.935   5.833   5.950 -0.5094  0.1355 -0.2340
17120TIP3    H172851   3.950   5.799   6.039 -1.8325  1.5514  0.5953
17120TIP3    H272852   3.934   5.928   5.961  1.2226  0.4349 -2.1404
17121TIP3   OH272853   0.608   6.595   3.441  0.1437  0.7266  0.0059
17121TIP3    H172854   0.628   6.541   3.364 -1.4911  1.3678 -0.9179
17121TIP3    H272855   0.676   6.662   3.442  0.5379  0.3429 -0.5233
17122TIP3   OH272856   4.617   0.083  12.912 -0.4361  0.6192  0.0465
17122TIP3    H172857   4.612   0.074  12.817  0.1113  0.9751 -0.0217
17122TIP3    H272858   4.617  -0.007  12.944  2.6972  0.2782 -0.4990
17123TIP3   OH272859   0.670   3.402  10.317  0.1388 -0.0895 -0.0361
17123TIP3    H172860   0.764   3.388  10.332  0.4876  1.0052 -1.0979
17123TIP3    H272861   0.633   3.314  10.320  1.3284 -0.6369 -0.4130
17124TIP3   OH272862   1.596   3.028   1.914 -0.6506  0.1126 -0.3448
17124TIP3    H172863   1.634   3.116   1.914 -1.4976  0.4864  0.0701
17124TIP3    H272864   1.585   3.006   1.821 -0.5519  0.4960 -0.4461
17125TIP3   OH272865   2.671   4.107   0.321 -0.2625  0.3731  0.1022
17125TIP3    H172866   2.735   4.087   0.253  0.1876  1.4712  0.1814
17125TIP3    H272867   2.586   4.086   0.282  0.0880 -0.4002 -0.2630
17126TIP3   OH272868   0.486   1.129  15.194 -0.1372  0.5722 -0.1220
17126TIP3    H172869   0.507   1.109  15.103  1.3069  3.0991 -0.4289
17126TIP3    H272870   0.401   1.087  15.208  1.4272 -3.3886 -1.2903
17127TIP3   OH272871   4.255   5.142   4.750  0.4394 -0.8457  0.0168
17127TIP3    H172872   4.224   5.229   4.726  0.7549 -0.7892 -0.1929
17127TIP3    H272873   4.301   5.154   4.833  4.0604 -0.0215 -1.8921
17128TIP3   OH272874   2.345   4.353  11.120 -0.1499  0.0223  0.0437
17128TIP3    H172875   2.254   4.332  11.101 -0.0659 -1.3007  0.9169
17128TIP3    H272876   2.368   4.296  11.194  1.6941 -0.4882 -0.8514
17129TIP3   OH272877   5.945   5.451  16.337  0.2739 -0.1997  0.5202
17129TIP3    H172878   5.975   5.367  16.301 -0.5091 -0.9531  1.5246
17129TIP3    H272879   6.023   5.491  16.373  0.4670 -1.0932  1.1373
17130TIP3   OH272880   3.702   4.949   3.441 -0.2408  0.2455  0.2542
17130TIP3    H172881   3.645   4.994   3.379  0.4465 -1.1033 -1.4263
17130TIP3    H272882   3.659   4.959   3.526 -1.3645  1.8760 -0.4804
17131TIP3   OH272883   4.226   5.758   1.469  0.7409  0.6288  0.0687
17131TIP3    H172884   4.150   5.712   1.434  0.3765  0.6395  0.8514
17131TIP3    H272885   4.231   5.838   1.416  1.1839 -0.1210 -1.0791
17132TIP3   OH272886   3.461   2.557  16.257 -0.0508 -0.4814 -0.5958
17132TIP3    H172887   3.464   2.608  16.176  0.8591 -0.4474 -0.5498
17132TIP3    H272888   3.370   2.527  16.263 -0.4349  0.5528 -0.9779
17133TIP3   OH272889   3.583   0.022  16.859  0.1393  0.1269 -0.3321
17133TIP3    H172890   3.678   0.014  16.854  0.0537 -4.2498  1.0205
17133TIP3    H272891   3.566   0.051  16.948  0.1998 -0.7294 -0.0363
17134TIP3   OH272892   1.136   3.735  16.953  0.1536  0.0738 -0.0786
17134TIP3    H172893   1.110   3.646  16.979 -1.6728  0.6208  0.1202
17134TIP3    H272894   1.104   3.791  17.023  0.5373  0.9796 -0.6134
17135TIP3   OH272895   4.735   3.712   4.398  0.3806  0.0171  0.4856
17135TIP3    H172896   4.740   3.723   4.493 -0.7965  0.2975  0.5265
17135TIP3    H272897   4.751   3.800   4.363 -1.2709  0.3648  0.5235
17136TIP3   OH272898   4.069   1.562  11.234  0.0981  0.3161  0.0577
17136TIP3    H172899   4.157   1.526  11.226 -0.0210  0.1280 -0.5059
17136TIP3    H272900   4.051   1.600  11.148 -0.8154 -0.7234 -0.2476
17137TIP3   OH272901   1.357   3.182  14.918  0.0749 -0.1123 -0.2268
17137TIP3    H172902   1.397   3.244  14.979 -2.2906  0.0641  1.2590
17137TIP3    H272903   1.396   3.098  14.941  1.2480  0.3688 -0.3880
17138TIP3   OH272904   1.054   4.142   3.701 -0.0815  0.4193  0.0544
17138TIP3    H172905   1.080   4.173   3.614  0.2245 -0.3228 -0.1299
17138TIP3    H272906   1.041   4.047   3.689 -0.1994  0.3413  0.7787
17139TIP3   OH272907   3.018   5.253  13.670 -0.0606 -0.2511 -0.0169
17139TIP3    H172908   2.979   5.337  13.693 -0.9661 -0.8293  0.6322
17139TIP3    H272909   2.979   5.231  13.585  0.5590  0.1992 -0.4328
17140TIP3   OH272910   0.840   3.252  17.122 -0.2748  0.2984  0.3628
17140TIP3    H172911   0.887   3.335  17.130  1.1692 -0.3495 -0.9353
17140TIP3    H272912   0.748   3.276  17.127  0.0675  2.1688 -1.3043
17141TIP3   OH272913   6.156   0.556   1.372  0.1621  0.0463  0.3065
17141TIP3    H172914   6.157   0.620   1.300  0.7246 -0.8041 -0.4716
17141TIP3    H272915   6.089   0.492   1.346  2.1375 -1.7088 -0.8296
17142TIP3   OH272916   0.064   6.767   3.644 -0.1300  0.1317 -0.2724
17142TIP3    H172917   0.025   6.688   3.682 -0.7238  0.2607 -0.6029
17142TIP3    H272918   0.146   6.779   3.692 -0.4738 -0.1744  0.3953
17143TIP3   OH272919   0.616   1.947   2.334  0.5446 -0.4539  0.2162
17143TIP3    H172920   0.530   1.986   2.317  1.0845  1.1726  0.9957
17143TIP3    H272921   0.614   1.926   2.427  1.4678  0.9541  0.5879
17144TIP3   OH272922   4.546   2.901   0.712  0.1412  0.4281 -0.0807
17144TIP3    H172923   4.562   2.952   0.632 -1.5881 -0.0893 -0.8059
17144TIP3    H272924   4.600   2.822   0.701  0.4761  0.6940 -0.3910
17145TIP3   OH272925   4.365   6.510   5.110 -0.2270 -0.6913 -0.3434
17145TIP3    H172926   4.402   6.435   5.156  2.0819 -1.3970 -3.0333
17145TIP3    H272927   4.355   6.480   5.019 -0.8205  1.7285 -1.1729
17146TIP3   OH272928   4.024   6.363  13.410  0.4462 -0.3330  0.4110
17146TIP3    H172929   3.959   6.432  13.428  0.6708 -0.8988  4.2277
17146TIP3    H272930   4.091   6.407  13.357 -0.5799  1.7039  0.6980
17147TIP3   OH272931   2.528   5.965   6.569 -0.0963 -0.4921  0.2167
17147TIP3    H172932   2.504   5.874   6.555  0.6572 -0.4991 -1.2882
17147TIP3    H272933   2.456   6.015   6.531 -0.8028 -0.4286  1.5876
17148TIP3   OH272934   5.434   3.851   2.497  0.2793  0.1705  0.4553
17148TIP3    H172935   5.505   3.804   2.540  0.3967 -0.6553 -0.6070
17148TIP3    H272936   5.463   3.861   2.407  0.2998  2.4048  0.6393
17149TIP3   OH272937   4.478   5.965   3.057  0.4415 -0.1201  0.2241
17149TIP3    H172938   4.553   5.975   2.999 -0.6765  0.9946 -1.1011
17149TIP3    H272939   4.498   6.022   3.132  1.7998 -1.4146  0.8847
17150TIP3   OH272940   4.809   6.801  14.225  0.1965  0.0619 -0.3020
17150TIP3    H172941   4.742   6.767  14.166 -0.3685 -1.4316  1.1468
17150TIP3    H272942   4.862   6.725  14.247  1.0862  0.8211  0.2543
17151TIP3   OH272943   6.195   2.026  15.001  0.1045  0.1675  0.1808
17151TIP3    H172944   6.162   1.976  14.927 -0.3157  3.1243 -1.7934
17151TIP3    H272945   6.121   2.082  15.027  1.3485  1.7606  0.4241
17152TIP3   OH272946   2.022   6.436   5.552 -0.5452  0.3777 -0.0420
17152TIP3    H172947   1.989   6.504   5.610  1.0231  0.3387  0.9428
17152TIP3    H272948   2.117   6.449   5.549 -0.3831 -0.7423 -1.1610
17153TIP3   OH272949   1.788   4.324  13.397 -0.0703  0.4379 -0.2443
17153TIP3    H172950   1.706   4.276  13.382 -0.4919  1.3766 -1.0547
17153TIP3    H272951   1.783   4.350  13.489  0.0494 -0.8333  0.1407
17154TIP3   OH272952   1.362   6.086   3.986  0.1678 -0.5766 -0.2316
17154TIP3    H172953   1.416   6.011   3.962  1.9880  0.7996 -0.6787
17154TIP3    H272954   1.357   6.082   4.082  0.0948 -1.3546 -0.2624
17155TIP3   OH272955   0.669   2.554  13.667  0.2737 -0.4540  0.4219
17155TIP3    H172956   0.717   2.630  13.700 -0.8717  0.3789  0.2237
17155TIP3    H272957   0.662   2.496  13.743 -1.5308  1.0358  1.4782
17156TIP3   OH272958   1.579   6.061   5.909 -0.2484 -0.0895 -0.7829
17156TIP3    H172959   1.670   6.087   5.927 -0.2602 -1.0158  0.8453
17156TIP3    H272960   1.575   5.969   5.935 -1.1011 -0.7508 -3.0183
17157TIP3   OH272961   2.276   0.336  14.352 -0.1487 -0.6977 -0.7444
17157TIP3    H172962   2.277   0.350  14.257 -0.5141  1.1259 -0.5045
17157TIP3    H272963   2.354   0.381  14.384 -0.9882  0.2823  0.0005
17158TIP3   OH272964   2.897   1.143   1.277 -0.4061  0.1611  0.3919
17158TIP3    H172965   2.953   1.127   1.353  1.2644 -0.1168 -0.8550
17158TIP3    H272966   2.814   1.102   1.300  1.2985 -3.6513  0.4961
17159TIP3   OH272967   5.032   6.244   2.965 -0.0577 -0.6121  0.0294
17159TIP3    H172968   4.990   6.249   3.051 -0.6527  0.1111 -0.2944
17159TIP3    H272969   5.004   6.324   2.920  1.8762  0.0458 -0.1035
17160TIP3   OH272970   5.791   0.706   4.964  0.0930 -0.0416 -1.1440
17160TIP3    H172971   5.708   0.666   4.988  0.7464 -1.3896 -1.0109
17160TIP3    H272972   5.767   0.782   4.911 -1.2391  0.2526 -0.1735
17161TIP3   OH272973   5.840   2.314  12.275  0.6357  0.3269  0.0146
17161TIP3    H172974   5.935   2.312  12.287  0.9341  2.1012 -1.4183
17161TIP3    H272975   5.822   2.242  12.215  1.0340 -0.1809  0.4962
17162TIP3   OH272976   0.465   2.712  15.276 -0.3401  0.2304  0.3835
17162TIP3    H172977   0.521   2.745  15.206  1.1836 -1.3123  0.8216
17162TIP3    H272978   0.406   2.651  15.233  0.3708 -0.4577  0.3508
17163TIP3   OH272979   4.114   6.301  16.181 -0.4690  0.3432  0.2731
17163TIP3    H172980   4.092   6.352  16.103  1.4351  0.9203  0.0527
17163TIP3    H272981   4.196   6.339  16.212 -0.2175 -1.0860  1.4900
17164TIP3   OH272982   5.803   2.874  10.918 -1.0743 -0.4869  0.0681
17164TIP3    H172983   5.769   2.855  10.831 -0.5696 -1.2417  0.0185
17164TIP3    H272984   5.864   2.801  10.936 -0.5521  0.0903  0.7049
17165TIP3   OH272985   3.448   6.225  13.116  0.6692  0.0166  0.0983
17165TIP3    H172986   3.483   6.257  13.034  2.7555  0.3983  1.0814
17165TIP3    H272987   3.379   6.288  13.139  0.7867  0.4950 -0.8253
17166TIP3   OH272988   1.538   4.702  14.446  0.3802 -0.3760  0.3238
17166TIP3    H172989   1.450   4.672  14.469 -0.6503  0.8422 -1.7131
17166TIP3    H272990   1.536   4.711  14.350  2.3572  0.7486  0.3319
17167TIP3   OH272991   3.761   1.981  16.438  0.5408 -0.8250  0.7687
17167TIP3    H172992   3.807   1.936  16.367 -0.0215  0.2794 -0.3623
17167TIP3    H272993   3.738   1.912  16.500 -0.9439 -2.2747 -1.2287
17168TIP3   OH272994   5.656   5.767  11.288  0.3037 -0.7715 -0.2766
17168TIP3    H172995   5.696   5.751  11.373 -0.0918  0.0910  0.0753
17168TIP3    H272996   5.581   5.708  11.285 -1.2329  1.0211  1.0772
17169TIP3   OH272997   0.979   2.280  16.280  0.0643  0.3637  0.4022
17169TIP3    H172998   0.985   2.329  16.198  0.3528 -0.1716  0.1020
17169TIP3    H272999   1.008   2.342  16.347  1.6862  0.2368 -0.1222
17170TIP3   OH273000   5.341   0.193   1.443  0.3736 -0.1598 -0.4806
17170TIP3    H173001   5.279   0.133   1.484 -1.7781 -0.4261 -3.7524
17170TIP3    H273002   5.417   0.139   1.423  0.2461 -0.7041  0.4633
17171TIP3   OH273003   4.153   5.945  15.454  0.4560  0.0006  0.2970
17171TIP3    H173004   4.167   6.003  15.528  2.3867  1.8458 -1.3796
17171TIP3    H273005   4.240   5.929  15.418 -0.3659 -1.0785 -1.3940
17172TIP3   OH273006   0.998   2.339   4.566 -0.5599 -0.0044 -0.1537
17172TIP3    H173007   1.004   2.245   4.552  0.3633  0.1159 -0.6744
17172TIP3    H273008   0.971   2.374   4.481 -3.1672  0.0335  0.6000
17173TIP3   OH273009   4.495   5.758   1.781  0.1803 -0.0007 -0.2947
17173TIP3    H173010   4.577   5.764   1.831  1.1163 -2.2597 -1.4132
17173TIP3    H273011   4.485   5.844   1.741 -0.3102  1.7255  3.1995
17174TIP3   OH273012   4.304   2.041  13.257  0.1005 -0.0100 -0.0586
17174TIP3    H173013   4.209   2.042  13.250 -0.0349 -0.3582  1.4926
17174TIP3    H273014   4.334   2.070  13.171 -1.3999  0.3241 -0.5016
17175TIP3   OH273015   6.688   3.746  12.504  0.0565 -0.4935 -0.6469
17175TIP3    H173016   6.690   3.652  12.522 -0.5473 -0.4261 -0.1811
17175TIP3    H273017   6.708   3.753  12.411 -0.0832 -1.0924 -0.7282
17176TIP3   OH273018   1.748   0.371  11.551 -0.4649 -0.0779  1.0485
17176TIP3    H173019   1.812   0.308  11.519 -2.1241 -1.4531  0.3220
17176TIP3    H273020   1.687   0.383  11.478 -0.5922  1.8574  1.4167
17177TIP3   OH273021   5.989   5.557  16.733 -0.1821  0.1253  0.5464
17177TIP3    H173022   5.936   5.481  16.758  0.2100 -0.1061  0.6790
17177TIP3    H273023   5.941   5.597  16.661 -0.1493 -0.5142  0.1698
17178TIP3   OH273024   5.450   5.634   0.674  0.2578 -0.1067  0.4109
17178TIP3    H173025   5.388   5.574   0.632 -1.4932  2.1609 -0.4917
17178TIP3    H273026   5.413   5.651   0.760  0.0676  0.5997  0.1955
17179TIP3   OH273027   6.325   3.722  11.721 -0.2554 -0.0590  0.1598
17179TIP3    H173028   6.246   3.713  11.775 -0.2422  0.0036  0.1901
17179TIP3    H273029   6.334   3.816  11.707  0.5001  0.0319  1.1863
17180TIP3   OH273030   6.349   5.729  14.446  0.2644 -0.3311 -0.2258
17180TIP3    H173031   6.374   5.819  14.467  3.4881 -0.4824 -2.7196
17180TIP3    H273032   6.384   5.677  14.519 -2.0351  0.3473  1.4736
17181TIP3   OH273033   3.399   3.089  11.318  0.0703  0.6157  0.0639
17181TIP3    H173034   3.449   3.024  11.269 -0.4639 -0.0600  0.3935
17181TIP3    H273035   3.410   3.170  11.269  0.2481  0.1421 -0.6982
17182TIP3   OH273036   2.377   1.144  14.117  0.2181  0.6435  0.2800
17182TIP3    H173037   2.303   1.166  14.174  1.1420 -0.3552  1.9429
17182TIP3    H273038   2.452   1.184  14.160  0.9335 -0.1037 -0.2536
17183TIP3   OH273039   3.257   1.134  16.381 -0.1904 -0.3421  0.3570
17183TIP3    H173040   3.235   1.054  16.428 -1.6388 -0.2003 -0.0201
17183TIP3    H273041   3.173   1.178  16.369  0.3130  0.2325 -1.2572
17184TIP3   OH273042   2.109   2.246  15.647 -0.1322 -0.4601 -0.0479
17184TIP3    H173043   2.146   2.324  15.688 -0.3152  0.6161 -1.8421
17184TIP3    H273044   2.039   2.218  15.706  1.3738 -0.6261  1.7488
17185TIP3   OH273045   6.726   3.880   6.356 -0.1166 -0.4408  0.4377
17185TIP3    H173046   6.778   3.961   6.352 -1.3618  0.5845  2.7866
17185TIP3    H273047   6.718   3.862   6.450 -0.9791 -2.5977  0.0018
17186TIP3   OH273048   2.246   3.209  15.757  0.2068  0.0768  0.2888
17186TIP3    H173049   2.285   3.208  15.670  0.3516 -3.8525  0.2090
17186TIP3    H273050   2.153   3.188  15.742  0.0661  0.1091  1.0510
17187TIP3   OH273051   0.796   6.093  15.893 -0.4825 -0.3251  0.3747
17187TIP3    H173052   0.809   5.998  15.892  0.7735 -0.2431  2.6434
17187TIP3    H273053   0.885   6.129  15.884 -0.9955  0.6811 -0.9680
17188TIP3   OH273054   0.807   4.711   6.714 -0.0527 -0.1623 -0.6234
17188TIP3    H173055   0.790   4.646   6.646 -1.4033  1.6530 -2.1157
17188TIP3    H273056   0.836   4.660   6.790  0.4962 -2.3346 -2.2111
17189TIP3   OH273057   3.029   4.532   0.633  0.4201 -0.0701  0.2647
17189TIP3    H173058   3.030   4.487   0.549  2.2826 -0.1919  0.3231
17189TIP3    H273059   2.985   4.470   0.692 -1.0097  0.0694 -0.6040
17190TIP3   OH273060   2.752   5.695   1.550  0.0262  0.4359  0.0668
17190TIP3    H173061   2.707   5.698   1.634  0.0042  2.0047  0.0202
17190TIP3    H273062   2.845   5.702   1.572  0.2596 -1.9592  0.1079
17191TIP3   OH273063   3.199   4.215   1.970  0.4897  0.1998  0.1418
17191TIP3    H173064   3.293   4.204   1.955 -0.0030 -2.8191 -1.6512
17191TIP3    H273065   3.174   4.287   1.913  1.4040 -0.4421 -1.1327
17192TIP3   OH273066   6.176   2.022   0.051  0.7140  0.0812 -0.2286
17192TIP3    H173067   6.221   1.939   0.037  0.8955 -0.0853  1.2187
17192TIP3    H273068   6.247   2.086   0.061  0.6932 -0.1690  1.9770
17193TIP3   OH273069   0.123   3.308  14.442  0.0325  0.4852  0.1159
17193TIP3    H173070   0.069   3.386  14.453  0.5890  0.8982 -0.0126
17193TIP3    H273071   0.070   3.249  14.389  0.1918  1.3817 -1.0730
17194TIP3   OH273072   0.977   5.734   2.445  0.3711 -0.0785 -0.6875
17194TIP3    H173073   1.066   5.742   2.413  0.3532  0.7980 -0.5351
17194TIP3    H273074   0.951   5.644   2.423  1.8311 -0.8774  0.6424
17195TIP3   OH273075   4.213   5.576  10.866  0.3962 -0.2559  0.2304
17195TIP3    H173076   4.201   5.623  10.783 -0.5680 -1.0945 -0.1339
17195TIP3    H273077   4.262   5.636  10.921 -1.0910  1.3385 -0.0828
17196TIP3   OH273078   3.913   0.322  14.011  0.3117 -0.5899  0.4880
17196TIP3    H173079   3.858   0.395  13.985 -1.0546 -3.0655 -4.8537
17196TIP3    H273080   3.852   0.261  14.054  0.3425 -0.6813  0.4007
17197TIP3   OH273081   2.735   2.517  15.966  0.0615  0.0821 -0.2210
17197TIP3    H173082   2.786   2.445  16.004  2.1941  1.1150 -1.0040
17197TIP3    H273083   2.659   2.474  15.927  0.0897 -1.4716  1.3054
17198TIP3   OH273084   1.745   2.481  15.856 -0.0162  0.0580  0.0341
17198TIP3    H173085   1.651   2.468  15.853  0.2119 -1.6028 -2.0202
17198TIP3    H273086   1.759   2.542  15.929 -2.6084  0.0443  0.6163
17199TIP3   OH273087   4.955   5.937  16.685 -0.6947  0.3306  0.3916
17199TIP3    H173088   4.929   5.879  16.757 -1.6053 -0.0061 -0.1854
17199TIP3    H273089   5.012   5.884  16.629  1.5652  1.1416  1.7834
17200TIP3   OH273090   1.334   2.175   1.849  0.3687  0.2385  0.0472
17200TIP3    H173091   1.397   2.161   1.920  1.2766  1.2330 -0.5330
17200TIP3    H273092   1.367   2.252   1.802 -0.3286 -0.2593 -1.3199
17201TIP3   OH273093   1.533   0.051   2.410  0.4858 -0.0747 -0.0351
17201TIP3    H173094   1.521   0.125   2.351  3.4119 -0.9399 -1.9184
17201TIP3    H273095   1.579   0.087   2.486 -0.5642  0.5058  0.3298
17202TIP3   OH273096   3.480   1.049  15.054  0.5701 -0.0820 -0.1058
17202TIP3    H173097   3.448   0.979  15.111  1.0988 -0.3984 -0.1875
17202TIP3    H273098   3.401   1.094  15.025  0.1619 -1.0574 -0.5754
17203TIP3   OH273099   3.199   4.440  15.020  1.0280 -0.2425 -0.4071
17203TIP3    H173100   3.126   4.473  14.967  0.1526  0.4261  1.1616
17203TIP3    H273101   3.262   4.512  15.023  1.2616 -0.4214 -0.8283
17204TIP3   OH273102   1.796   6.526   0.468  0.2871 -0.1838  0.1182
17204TIP3    H173103   1.840   6.441   0.464 -0.9950 -0.9900  1.8809
17204TIP3    H273104   1.745   6.523   0.549 -0.1414  2.1149  0.0031
17205TIP3   OH273105   4.839   2.585  15.799 -0.3260 -0.4723  0.1991
17205TIP3    H173106   4.749   2.563  15.776 -0.2314 -0.2679 -0.3847
17205TIP3    H273107   4.848   2.560  15.891 -1.2089  0.2200  0.4826
17206TIP3   OH273108   3.500   2.287  13.105  0.1075  0.0481  0.9216
17206TIP3    H173109   3.552   2.275  13.184  2.2182 -0.0225 -0.4020
17206TIP3    H273110   3.522   2.212  13.050 -0.6293  0.5621 -0.0990
17207TIP3   OH273111   2.076   4.980  12.477  0.3288 -0.1162 -0.0580
17207TIP3    H173112   2.109   4.907  12.530  2.2741  1.2275  0.6920
17207TIP3    H273113   2.153   5.036  12.463 -1.1462  1.9209 -0.4111
17208TIP3   OH273114   6.123   3.796   0.781  0.3664  0.2517  0.0567
17208TIP3    H173115   6.108   3.860   0.711 -1.9751 -0.6516 -0.3584
17208TIP3    H273116   6.209   3.819   0.816  1.1601  1.4046 -2.3944
17209TIP3   OH273117   3.131   6.110   1.716  0.1411  0.1135 -0.1022
17209TIP3    H173118   3.197   6.174   1.689 -0.1111  1.0282  1.3383
17209TIP3    H273119   3.078   6.097   1.637  1.8726 -0.4878 -1.2343
17210TIP3   OH273120   4.322   1.721  12.964  0.3024 -0.3177 -0.7126
17210TIP3    H173121   4.327   1.627  12.950  0.1219 -0.3820 -0.3663
17210TIP3    H273122   4.401   1.756  12.924  0.3850 -0.6199 -0.8153
17211TIP3   OH273123   0.979   3.275  14.035 -0.0060 -0.0197 -0.6244
17211TIP3    H173124   0.918   3.205  14.057  1.3570 -0.8333  0.7642
17211TIP3    H273125   0.998   3.262  13.942 -0.5429 -0.8691 -0.6267
17212TIP3   OH273126   1.328   6.320   2.557  0.4038 -0.0487  0.5455
17212TIP3    H173127   1.261   6.368   2.509  0.9327 -0.6224 -0.8303
17212TIP3    H273128   1.367   6.385   2.615 -0.7233  0.5005  0.7172
17213TIP3   OH273129   1.345   0.347   5.332  0.1338  0.1530  0.2399
17213TIP3    H173130   1.363   0.378   5.421  0.3537 -0.9293  0.5941
17213TIP3    H273131   1.425   0.303   5.305 -1.0523 -2.7031  0.9475
17214TIP3   OH273132   2.912   0.154   1.276 -0.6296 -0.0780 -0.3678
17214TIP3    H173133   2.926   0.159   1.181 -0.9703  0.5585 -0.3833
17214TIP3    H273134   2.918   0.244   1.306 -2.0486 -0.0953  0.0067
17215TIP3   OH273135   6.427   6.260  15.598  0.4098  0.4131  0.5901
17215TIP3    H173136   6.416   6.168  15.621 -1.0919  1.1224  3.2179
17215TIP3    H273137   6.340   6.287  15.567  1.0318  0.8052 -0.8971
17216TIP3   OH273138   0.231   1.804   1.746  0.5469  0.2722 -0.2277
17216TIP3    H173139   0.194   1.742   1.808 -0.3605  1.3652  0.3691
17216TIP3    H273140   0.313   1.764   1.717  0.3902 -0.8055  0.7692
17217TIP3   OH273141   0.268   4.358   0.331  0.1137  0.0848 -0.1902
17217TIP3    H173142   0.253   4.448   0.301  1.1958  0.5668  0.6447
17217TIP3    H273143   0.227   4.355   0.417 -1.7167 -0.8651 -1.0340
17218TIP3   OH273144   4.885   5.602   0.067 -0.0438  0.2340 -0.3886
17218TIP3    H173145   4.907   5.695   0.079  0.3617  0.0638  0.2104
17218TIP3    H273146   4.910   5.584  -0.023 -0.5084  0.8079 -0.6476
17219TIP3   OH273147   1.353   6.189  14.042 -0.1316  0.0543  0.6048
17219TIP3    H173148   1.311   6.106  14.064 -2.2071  1.0035  0.4165
17219TIP3    H273149   1.327   6.207  13.952 -1.0522  1.6728  1.1688
17220TIP3   OH273150   1.943   0.804   2.978  0.0775  0.3534 -0.1369
17220TIP3    H173151   1.950   0.725   2.923 -1.8541  0.5355 -0.7076
17220TIP3    H273152   1.853   0.833   2.967  0.8248  2.8775 -0.2275
17221TIP3   OH273153   6.124   0.713   3.097  0.0347  0.2154 -0.2500
17221TIP3    H173154   6.145   0.626   3.063  0.5056  1.3365 -3.0240
17221TIP3    H273155   6.205   0.742   3.139  0.1427 -0.3109 -0.0752
17222TIP3   OH273156   0.831   0.364   2.334 -0.4668 -0.3944  0.3267
17222TIP3    H173157   0.843   0.459   2.338 -0.2775 -0.4469  2.0970
17222TIP3    H273158   0.913   0.331   2.297 -0.0746  0.0631  0.7712
17223TIP3   OH273159   1.914   3.698   0.316 -0.4330 -0.2915 -0.0198
17223TIP3    H173160   1.831   3.695   0.268  0.9690  0.6798 -2.7521
17223TIP3    H273161   1.931   3.792   0.327  0.8834 -0.4249 -0.7028
17224TIP3   OH273162   0.590   4.362   2.841 -0.5523  0.2720 -0.3262
17224TIP3    H173163   0.655   4.308   2.884 -0.2460  0.6827 -0.2639
17224TIP3    H273164   0.613   4.357   2.748 -0.6806  0.0874 -0.3473
17225TIP3   OH273165   2.859   0.669  15.531  0.2958  0.2547 -0.3418
17225TIP3    H173166   2.922   0.734  15.562 -0.6823  0.6346  0.9121
17225TIP3    H273167   2.902   0.584  15.548  0.7548  0.5228 -0.1438
17226TIP3   OH273168   4.579   6.617   0.085  0.1019 -0.2950 -0.1310
17226TIP3    H173169   4.498   6.645   0.042 -0.5225 -1.8541 -0.0395
17226TIP3    H273170   4.597   6.530   0.049  2.7632  0.6977 -1.5192
17227TIP3   OH273171   6.133   6.725  13.293 -0.0536  0.3182 -0.0545
17227TIP3    H173172   6.074   6.742  13.367 -1.4074 -0.1191 -0.9964
17227TIP3    H273173   6.075   6.718  13.217  1.2112 -0.3072 -0.9955
17228TIP3   OH273174   0.323   3.521   4.777  0.5852  0.3982 -0.0166
17228TIP3    H173175   0.246   3.464   4.784  2.6135 -2.3654  2.4153
17228TIP3    H273176   0.295   3.593   4.721 -3.1876 -1.3587 -0.6852
17229TIP3   OH273177   1.893   2.805   5.621  0.1570 -0.6031  0.2545
17229TIP3    H173178   1.983   2.833   5.639  1.3513 -3.2608 -1.0344
17229TIP3    H273179   1.876   2.735   5.684 -0.0014 -1.8527 -1.1060
17230TIP3   OH273180   6.606   2.236  13.330  0.1921 -0.4095  0.1177
17230TIP3    H173181   6.563   2.184  13.398 -0.0281 -0.5310 -0.1096
17230TIP3    H273182   6.594   2.327  13.358  2.2531 -0.5263  1.5032
17231TIP3   OH273183   3.422   5.812   5.422 -1.0529  0.0588  0.2208
17231TIP3    H173184   3.378   5.864   5.355 -1.9118 -0.7906  0.0927
17231TIP3    H273185   3.354   5.753   5.455 -0.0383 -1.2558  0.0674
17232TIP3   OH273186   5.355   2.025   2.183  0.0656  0.1958  0.2802
17232TIP3    H173187   5.349   2.082   2.107  0.8093 -0.1999 -0.0827
17232TIP3    H273188   5.447   2.000   2.188 -0.2046 -0.7912  0.5623
17233TIP3   OH273189   1.520   4.182   5.333 -0.1005 -0.4433  0.3302
17233TIP3    H173190   1.608   4.199   5.366 -0.0389  0.7662 -0.3805
17233TIP3    H273191   1.522   4.215   5.243 -1.7047  1.0486  0.7928
17234TIP3   OH273192   6.017   0.430   6.262 -0.3077 -0.3388  0.0780
17234TIP3    H173193   5.977   0.344   6.251  1.1285 -0.9807 -0.4245
17234TIP3    H273194   6.076   0.421   6.337 -0.5126  0.3539  0.3368
17235TIP3   OH273195   0.099   3.358   4.715  0.4935 -0.5420  0.0046
17235TIP3    H173196   0.125   3.328   4.628  0.8373  0.2274 -0.1679
17235TIP3    H273197   0.022   3.413   4.699  1.4895  0.9024 -0.0217
17236TIP3   OH273198   1.373   6.399   3.870 -0.4607  0.0315 -0.2797
17236TIP3    H173199   1.365   6.317   3.919 -0.5901  0.6489  0.7732
17236TIP3    H273200   1.307   6.393   3.802  1.4089 -1.9677 -2.0974
17237TIP3   OH273201   1.011   1.039  12.312  0.4632 -0.0753 -0.3683
17237TIP3    H173202   0.939   1.079  12.362  0.9738  1.4579 -0.7956
17237TIP3    H273203   0.975   0.955  12.282 -1.0137  0.4697 -0.2438
17238TIP3   OH273204   1.365   4.401   2.480  0.0897 -0.3350 -0.4258
17238TIP3    H173205   1.306   4.468   2.444 -0.1251 -1.1714 -1.6885
17238TIP3    H273206   1.329   4.382   2.567  0.6290  1.7385  0.3023
17239TIP3   OH273207   1.289   2.965  15.115 -0.4924 -0.1270 -0.0696
17239TIP3    H173208   1.284   3.052  15.156  1.0586 -0.7533  1.6233
17239TIP3    H273209   1.382   2.955  15.093 -0.6625 -1.3087 -0.3227
17240TIP3   OH273210   3.231   1.585  13.941 -0.4488 -0.0584 -0.8811
17240TIP3    H173211   3.318   1.620  13.963 -0.4195 -1.4330  1.4921
17240TIP3    H273212   3.244   1.490  13.939 -1.7730 -0.2453 -1.1930
17241TIP3   OH273213   0.325   1.348  12.899 -0.3442 -0.1272 -0.6198
17241TIP3    H173214   0.333   1.442  12.915  1.1530 -0.1887 -0.9100
17241TIP3    H273215   0.415   1.318  12.885 -0.2930 -2.2535  2.9393
17242TIP3   OH273216   6.583   2.778  11.763  0.1841 -0.0117  0.0442
17242TIP3    H173217   6.584   2.742  11.674  0.7126  0.5509 -0.1922
17242TIP3    H273218   6.494   2.811  11.775 -0.2134 -1.1061  0.1529
17243TIP3   OH273219   5.867   2.285  11.641 -0.0158 -0.1247  0.3583
17243TIP3    H173220   5.874   2.359  11.581  2.8963 -0.2991  0.2973
17243TIP3    H273221   5.938   2.226  11.614  0.0311 -1.2175  2.6096
17244TIP3   OH273222   6.619   3.015  13.622 -0.2777 -0.0257  0.1210
17244TIP3    H173223   6.671   2.958  13.678 -1.6759  0.7896  2.3984
17244TIP3    H273224   6.656   3.102  13.635 -0.7008  0.1950 -0.1110
17245TIP3   OH273225   5.491   1.193  11.920 -0.1582 -0.3244 -0.1354
17245TIP3    H173226   5.551   1.181  11.847 -0.0296  0.6710 -0.2105
17245TIP3    H273227   5.441   1.112  11.924  0.3440 -0.6788 -0.8563
17246TIP3   OH273228   6.311   5.537   5.394  0.7439  0.9058  0.3873
17246TIP3    H173229   6.228   5.524   5.348  2.3761  1.0416 -2.9446
17246TIP3    H273230   6.343   5.448   5.411 -0.2878  0.8497  2.2309
17247TIP3   OH273231   4.571   1.024  15.785  0.1360  0.0943 -0.0445
17247TIP3    H173232   4.648   1.071  15.817 -1.2499  1.3166  1.7765
17247TIP3    H273233   4.542   1.075  15.709 -0.0407  0.9134  0.5473
17248TIP3   OH273234   3.279   3.990  11.065  0.2294  0.7173  0.0406
17248TIP3    H173235   3.347   3.954  11.122  0.0921 -0.6449 -0.6316
17248TIP3    H273236   3.320   4.067  11.025  0.7441  0.9684  1.0070
17249TIP3   OH273237   5.693   5.070   6.486  0.1585 -0.1212  0.1947
17249TIP3    H173238   5.672   5.085   6.578  1.1813 -0.3531  0.4767
17249TIP3    H273239   5.629   5.123   6.438 -0.1430  0.3024  1.0421
17250TIP3   OH273240   5.697   2.236  11.132 -0.7718  0.0136  0.6424
17250TIP3    H173241   5.732   2.170  11.071 -0.8544  0.3035  0.2749
17250TIP3    H273242   5.763   2.306  11.131 -0.2707 -0.4231  1.6731
17251TIP3   OH273243   4.472   2.515   1.911  0.2212  0.4426  0.5295
17251TIP3    H173244   4.501   2.525   2.002 -0.5840  1.5294  0.6894
17251TIP3    H273245   4.376   2.513   1.917  0.1316  1.4513 -0.3694
17252TIP3   OH273246   0.693   0.593  11.743  0.1495 -0.0782  0.1341
17252TIP3    H173247   0.690   0.499  11.764  1.4417 -0.0654  0.5267
17252TIP3    H273248   0.745   0.597  11.663  1.5779  0.3929  1.0412
17253TIP3   OH273249   2.342   1.695  14.792  0.7448 -0.2346 -0.6160
17253TIP3    H173250   2.300   1.613  14.820 -0.4943  0.4968 -0.2638
17253TIP3    H273251   2.285   1.730  14.724  0.7303  0.8207 -0.0827
17254TIP3   OH273252   6.679   4.091   4.979  0.0743  0.0385 -0.1334
17254TIP3    H173253   6.674   4.162   5.043  1.4448  1.0231 -1.0575
17254TIP3    H273254   6.661   4.012   5.030  1.6093  0.7207  1.6226
17255TIP3   OH273255   4.715   5.299  16.108 -0.1382 -0.2608 -0.0273
17255TIP3    H173256   4.708   5.365  16.178  0.8824 -1.7692  1.5897
17255TIP3    H273257   4.808   5.297  16.087 -0.5534  0.8275 -2.1649
17256TIP3   OH273258   4.646   5.354   0.875 -0.3198 -0.4156 -0.1013
17256TIP3    H173259   4.564   5.334   0.832 -0.1379  1.0407 -1.2123
17256TIP3    H273260   4.621   5.400   0.955 -0.6582 -3.1724  1.5138
17257TIP3   OH273261   5.109   0.525  13.902 -0.3049  0.9198  0.1675
17257TIP3    H173262   5.095   0.562  13.814 -0.9622  0.2984 -0.0026
17257TIP3    H273263   5.022   0.495  13.929  0.4730 -2.4550 -0.6035
17258TIP3   OH273264   1.905   1.224  17.145  0.0732  0.0416 -0.3437
17258TIP3    H173265   1.884   1.223  17.052 -2.2912 -0.8237  0.1269
17258TIP3    H273266   1.921   1.132  17.167  0.0711  0.1706  0.2093
17259TIP3   OH273267   3.346   3.016   2.822  0.0884  0.5757  0.1172
17259TIP3    H173268   3.387   2.936   2.787 -0.1680 -0.6470  2.4031
17259TIP3    H273269   3.284   3.042   2.754 -1.2902 -2.3794  0.0486
17260TIP3   OH273270   6.660   1.664  11.561  0.0364 -0.0935 -0.0387
17260TIP3    H173271   6.572   1.693  11.586  0.1233 -0.7878  1.1578
17260TIP3    H273272   6.691   1.615  11.637  1.2403 -0.3422 -0.6723
17261TIP3   OH273273   4.079   1.185  15.667  0.3972 -0.4732 -0.4814
17261TIP3    H173274   4.028   1.148  15.739  0.8004 -0.8761 -0.3976
17261TIP3    H273275   4.066   1.124  15.595  0.0784 -0.1250 -0.7224
17262TIP3   OH273276   5.994   1.408  13.525 -0.6271  0.5605 -0.6668
17262TIP3    H173277   5.989   1.424  13.431 -2.1049 -0.9783 -0.9038
17262TIP3    H273278   6.010   1.314  13.533 -0.0851  0.7298  0.6418
17263TIP3   OH273279   5.882   0.987  10.853  0.2536  0.3480 -0.1229
17263TIP3    H173280   5.858   0.907  10.899  0.9712  0.3044  0.1898
17263TIP3    H273281   5.825   0.989  10.777 -1.7416  0.9597  1.2986
17264TIP3   OH273282   0.571   2.821  12.541  0.3882 -0.5445  0.6404
17264TIP3    H173283   0.577   2.868  12.457  0.3226  0.0128  0.9408
17264TIP3    H273284   0.487   2.848  12.577  1.2241  0.7245  1.7528
17265TIP3   OH273285   0.577   1.939  13.843 -0.4843  0.2028  0.1242
17265TIP3    H173286   0.503   1.881  13.826 -1.2226  0.7301  1.3898
17265TIP3    H273287   0.562   1.970  13.932  0.7969  1.0167  0.0693
17266TIP3   OH273288   4.489   5.608   2.082  0.0067 -0.2914 -0.3150
17266TIP3    H173289   4.413   5.615   2.023  0.0437 -0.0619 -0.3352
17266TIP3    H273290   4.463   5.658   2.160  0.5194  0.6165 -0.7140
17267TIP3   OH273291   1.058   4.157  11.739 -0.3038 -0.2998 -0.2059
17267TIP3    H173292   1.012   4.118  11.813 -0.5172  0.6082  0.1557
17267TIP3    H273293   1.086   4.242  11.771  3.5109 -1.5709  0.2919
17268TIP3   OH273294   0.261   6.704   0.076  0.1496 -0.3836  0.0706
17268TIP3    H173295   0.190   6.648   0.108 -1.2096  0.4597 -1.3431
17268TIP3    H273296   0.332   6.643   0.055 -0.3909 -1.3189  0.8493
17269TIP3   OH273297   6.449   2.227   0.493 -0.2302 -0.0263  0.1855
17269TIP3    H173298   6.530   2.208   0.448 -0.2916  0.5254 -0.1686
17269TIP3    H273299   6.437   2.322   0.482 -0.7663 -0.0549  0.4810
17270TIP3   OH273300   1.435   4.473   4.109 -0.3147  0.3449 -0.3063
17270TIP3    H173301   1.425   4.566   4.089  1.3466  0.6256  0.0000
17270TIP3    H273302   1.528   4.455   4.093 -0.4302 -1.0606  0.4419
17271TIP3   OH273303   1.083   1.166   3.351  0.1243  0.1951 -0.2938
17271TIP3    H173304   1.128   1.250   3.358  0.4924 -0.0857  1.0734
17271TIP3    H273305   1.056   1.160   3.260 -0.0317  1.8659 -0.3854
17272TIP3   OH273306   5.899   4.356   3.175  0.2821  0.3486  0.5336
17272TIP3    H173307   5.925   4.421   3.240 -1.0615  0.9092  0.5291
17272TIP3    H273308   5.968   4.361   3.108  1.5764 -0.1002  1.7761
17273TIP3   OH273309   2.025   5.863  15.675  0.0646 -0.0342 -0.2416
17273TIP3    H173310   1.983   5.940  15.714  0.8352  1.8975 -2.9825
17273TIP3    H273311   1.958   5.827  15.617 -1.4171 -3.4495  3.1032
17274TIP3   OH273312   1.224   0.531  12.457  0.0003 -0.0427 -0.2813
17274TIP3    H173313   1.131   0.519  12.475 -0.2793  2.3835  0.2450
17274TIP3    H273314   1.227   0.549  12.363 -0.2731  1.2581 -0.0629
17275TIP3   OH273315   2.852   0.254   0.111 -0.1212  0.0481 -0.4758
17275TIP3    H173316   2.810   0.271   0.027  1.5772 -0.3843 -1.4635
17275TIP3    H273317   2.879   0.340   0.143 -1.7279  0.3432  0.2139
17276TIP3   OH273318   2.760   2.457  14.531 -0.2234  0.3374 -0.2171
17276TIP3    H173319   2.720   2.481  14.614  0.7746  1.5108 -0.0497
17276TIP3    H273320   2.821   2.386  14.553  1.3485  1.8091  0.4181
17277TIP3   OH273321   5.913   2.948   0.548  0.0757 -0.1442 -0.3784
17277TIP3    H173322   5.973   3.014   0.514 -0.0325  0.4396  0.5348
17277TIP3    H273323   5.906   2.884   0.477  1.8944 -0.3225 -0.4416
17278TIP3   OH273324   0.911   3.599   3.667 -0.0156  0.2620 -0.5767
17278TIP3    H173325   0.871   3.686   3.676  1.0648  0.8831 -1.4497
17278TIP3    H273326   0.866   3.545   3.731 -2.0640  0.9794 -1.3326
17279TIP3   OH273327   4.422   3.223  14.939  0.5203 -0.5364  0.3270
17279TIP3    H173328   4.444   3.176  15.019  0.9763 -1.3033 -0.2312
17279TIP3    H273329   4.466   3.307  14.948  0.0826 -0.3845  1.1357
17280TIP3   OH273330   6.543   5.252   4.070  0.1048  0.0563 -0.2260
17280TIP3    H173331   6.599   5.183   4.107  1.2888  1.8332  1.4841
17280TIP3    H273332   6.603   5.324   4.052 -1.4601  1.6598  0.6808
17281TIP3   OH273333   1.229   3.447  14.379 -0.1270 -0.4492 -0.2112
17281TIP3    H173334   1.174   3.452  14.457  0.2423 -0.5753  0.0617
17281TIP3    H273335   1.187   3.505  14.316  0.7665  1.4234  0.8293
17282TIP3   OH273336   2.741   3.231  16.057 -0.2198  0.2422 -0.5675
17282TIP3    H173337   2.755   3.147  16.013  1.5254  0.9891 -1.5450
17282TIP3    H273338   2.648   3.231  16.079  0.0982 -2.9050  1.4849
17283TIP3   OH273339   0.252   1.157   3.692 -0.5371  0.4586 -0.1429
17283TIP3    H173340   0.157   1.154   3.681 -0.6079  2.7165 -0.5816
17283TIP3    H273341   0.283   1.212   3.621  0.9531  0.9059  0.8085
17284TIP3   OH273342   2.240   0.182  12.565 -0.2351  0.6920  0.7504
17284TIP3    H173343   2.313   0.137  12.521 -1.5719 -2.2203  1.3138
17284TIP3    H273344   2.162   0.137  12.533 -1.7155  2.7992  1.2563
17285TIP3   OH273345   2.512   5.687   0.718 -0.0367 -0.6561  0.0162
17285TIP3    H173346   2.580   5.635   0.675  0.3005  0.3715 -0.7499
17285TIP3    H273347   2.463   5.625   0.770  1.2222 -1.4956  0.2313
17286TIP3   OH273348   0.709   3.805   4.451 -0.3042 -0.6921 -0.3843
17286TIP3    H173349   0.619   3.798   4.483 -1.1399  0.0764 -2.4140
17286TIP3    H273350   0.748   3.874   4.504 -1.8237  0.9578 -1.3045
17287TIP3   OH273351   6.813   0.611   4.366  0.3971  0.1598 -0.2566
17287TIP3    H173352   6.813   0.644   4.277 -1.2763 -0.0341 -0.3534
17287TIP3    H273353   6.797   0.517   4.358 -0.8111  0.3055  0.2773
17288TIP3   OH273354   5.866   0.866  12.384 -0.3011 -0.2435 -0.6829
17288TIP3    H173355   5.923   0.910  12.447 -1.2936  0.4228 -0.2049
17288TIP3    H273356   5.921   0.801  12.342  0.1552 -1.4249  1.6029
17289TIP3   OH273357   6.328   0.692  13.362 -0.0769 -0.1202 -0.0681
17289TIP3    H173358   6.265   0.691  13.435 -0.3678  1.7725 -0.2281
17289TIP3    H273359   6.285   0.643  13.293 -0.2932 -0.9635  0.6453
17290TIP3   OH273360   5.884   6.364   5.063 -0.0608  0.6179 -0.1399
17290TIP3    H173361   5.848   6.451   5.047  0.2027  0.8960  0.6959
17290TIP3    H273362   5.849   6.309   4.993  0.4041  1.5665 -1.1360
17291TIP3   OH273363   1.985   0.085   2.565 -0.2771 -0.5051 -0.8458
17291TIP3    H173364   1.952   0.152   2.506  0.5310 -0.9069 -1.7838
17291TIP3    H273365   1.946   0.106   2.650  0.8051  1.7920 -0.8419
17292TIP3   OH273366   4.886   4.494  17.083 -0.2840 -0.0919  0.0818
17292TIP3    H173367   4.961   4.450  17.123 -0.0486  1.2014  1.1723
17292TIP3    H273368   4.811   4.460  17.132 -0.2126 -0.0421  0.2281
17293TIP3   OH273369   5.181   1.846  14.491 -0.0924 -0.3148 -0.8293
17293TIP3    H173370   5.138   1.771  14.450  0.1646 -0.1163 -1.4761
17293TIP3    H273371   5.217   1.896  14.418  0.0887  0.2263 -0.3792
17294TIP3   OH273372   5.283   0.893   2.531 -0.1648 -0.1975  0.4830
17294TIP3    H173373   5.356   0.851   2.577 -1.7313 -0.8273  2.5271
17294TIP3    H273374   5.305   0.882   2.438  2.8918  0.6804  0.9675
17295TIP3   OH273375   0.021   4.257  15.693  0.6187 -0.2126 -0.2988
17295TIP3    H173376   0.046   4.165  15.701 -0.1193 -0.3242  0.9889
17295TIP3    H273377  -0.006   4.266  15.602  0.0356 -1.4497 -0.2695
17296TIP3   OH273378   2.385   4.140  11.985  0.0403 -0.2224  0.1843
17296TIP3    H173379   2.468   4.118  11.942 -1.0172  0.5435 -2.4462
17296TIP3    H273380   2.375   4.234  11.970 -0.6347 -0.0061  1.8012
17297TIP3   OH273381   0.668   4.127   1.703 -0.0170 -0.1324  0.9932
17297TIP3    H173382   0.689   4.087   1.787  1.8654 -1.5992 -0.0734
17297TIP3    H273383   0.746   4.177   1.679  0.2111 -1.1362 -0.5895
17298TIP3   OH273384   2.997   4.464   2.839 -0.6604  0.2278  0.2089
17298TIP3    H173385   2.992   4.511   2.756  0.4236  1.5888  0.8664
17298TIP3    H273386   2.943   4.516   2.900  1.0131  1.0047  1.0907
17299TIP3   OH273387   1.961   0.791  12.004 -0.0972 -0.2666  0.7204
17299TIP3    H173388   1.960   0.884  11.981 -0.2858 -0.5408 -0.4598
17299TIP3    H273389   2.050   0.775  12.034 -0.1579  0.3675  1.2647
17300TIP3   OH273390   2.507   2.268  12.957 -0.2092  0.0029  0.7026
17300TIP3    H173391   2.546   2.232  12.877  0.2639  0.7454  0.5881
17300TIP3    H273392   2.580   2.311  13.001 -0.3373 -0.9135  1.8430
17301TIP3   OH273393   0.164   1.384   4.872  0.3736 -0.3400 -0.1819
17301TIP3    H173394   0.165   1.336   4.955  0.0507  2.2154  1.4012
17301TIP3    H273395   0.249   1.427   4.867  0.7025 -1.0794 -1.6245
17302TIP3   OH273396   3.919   2.790   5.109 -0.6759 -0.1931 -0.2632
17302TIP3    H173397   3.862   2.749   5.174 -0.8800 -1.1276 -0.9953
17302TIP3    H273398   3.892   2.751   5.026 -0.0895  0.5997 -0.8421
17303TIP3   OH273399   2.515   0.605   3.770 -0.2372 -0.0390 -0.1987
17303TIP3    H173400   2.561   0.546   3.710  1.2598 -0.6147  1.4074
17303TIP3    H273401   2.517   0.558   3.854  0.4471  2.0038  0.9883
17304TIP3   OH273402   6.640   2.386  13.015 -0.4607 -0.6526 -0.1694
17304TIP3    H173403   6.674   2.334  13.088 -2.4596 -1.6982  0.1020
17304TIP3    H273404   6.626   2.473  13.052  1.4722 -0.3063 -0.1948
17305TIP3   OH273405   0.458   0.938  14.481  0.4776 -0.1909 -0.0779
17305TIP3    H173406   0.407   0.940  14.562 -0.1055 -2.3510 -0.3214
17305TIP3    H273407   0.486   1.028  14.468  0.2554  0.2906  2.3067
17306TIP3   OH273408   4.591   4.487  16.685  0.4627  0.8072 -0.1072
17306TIP3    H173409   4.545   4.522  16.609 -1.5996  0.0765  0.7375
17306TIP3    H273410   4.611   4.564  16.738 -1.1070  1.0605  0.1749
17307TIP3   OH273411   4.425   2.351  11.673 -0.2727 -0.2237 -0.1898
17307TIP3    H173412   4.493   2.292  11.639  0.1634 -0.3555  0.8668
17307TIP3    H273413   4.373   2.296  11.732 -1.6069 -0.2442 -1.3434
17308TIP3   OH273414   3.187   2.642   2.935 -0.3467 -0.1742  0.5219
17308TIP3    H173415   3.242   2.689   2.998  0.2040 -0.1277  0.0186
17308TIP3    H273416   3.163   2.709   2.871  0.4156 -0.5589 -0.1840
17309TIP3   OH273417   0.495   1.859  12.112 -0.0125 -0.8158  0.1552
17309TIP3    H173418   0.485   1.773  12.154 -1.0024 -0.5193  0.5639
17309TIP3    H273419   0.457   1.921  12.175 -2.1821 -0.4134 -1.4295
17310TIP3   OH273420   5.261   0.343   0.684 -0.3494  0.8382  0.3845
17310TIP3    H173421   5.307   0.411   0.634  1.1199 -0.1853  0.2816
17310TIP3    H273422   5.313   0.332   0.763  0.0493 -0.8788 -0.0740
17311TIP3   OH273423   3.572   3.705   2.914 -0.4613 -0.0280 -0.3580
17311TIP3    H173424   3.502   3.753   2.957 -1.3198 -2.5126  1.2507
17311TIP3    H273425   3.617   3.770   2.861 -0.1710  3.0211  3.2316
17312TIP3   OH273426   0.706   5.032  15.712 -0.3499  0.1224  0.4897
17312TIP3    H173427   0.708   5.103  15.647  0.3131  1.5261  1.9631
17312TIP3    H273428   0.640   4.971  15.679  1.0415 -0.0371 -2.2715
17313TIP3   OH273429   3.432   3.453  11.942  0.5219 -0.6203  0.0684
17313TIP3    H173430   3.450   3.433  11.850 -1.7712 -0.0792 -0.5595
17313TIP3    H273431   3.437   3.368  11.986 -0.5190 -1.2629 -0.9805
17314TIP3   OH273432   5.263   0.943   4.747 -0.4489 -0.2993 -0.3686
17314TIP3    H173433   5.215   0.924   4.828  2.2219 -1.1430  1.1127
17314TIP3    H273434   5.258   0.862   4.697  1.2588 -1.1764  0.8072
17315TIP3   OH273435   5.004   5.127  14.844  0.3101 -0.5264 -0.1027
17315TIP3    H173436   4.955   5.083  14.914 -0.4315  0.1129 -0.1946
17315TIP3    H273437   5.054   5.196  14.889  1.8968 -1.7668  0.1128
17316TIP3   OH273438   1.064   4.893   3.460  0.1139  0.0537  0.0823
17316TIP3    H173439   1.148   4.849   3.474  0.0875 -0.5745 -1.5342
17316TIP3    H273440   1.050   4.943   3.541  1.7804 -0.2337  0.5994
17317TIP3   OH273441   4.600   5.526   2.355  0.0892 -0.5816  0.1718
17317TIP3    H173442   4.544   5.574   2.294 -0.0515  0.0174  0.7516
17317TIP3    H273443   4.641   5.458   2.302 -0.9263 -0.8208 -0.3438
17318TIP3   OH273444   6.131   3.962  12.284 -0.1270 -0.2225  0.1601
17318TIP3    H173445   6.196   3.993  12.347  1.2531  1.1132 -1.8063
17318TIP3    H273446   6.091   4.041  12.249 -1.1912 -0.9518 -0.3390
17319TIP3   OH273447   4.908   1.371  11.123 -0.2481 -0.3124  0.1544
17319TIP3    H173448   4.884   1.464  11.124  1.1161  0.0654 -0.4482
17319TIP3    H273449   4.997   1.369  11.157 -0.3929 -1.4560  0.4981
17320TIP3   OH273450   4.949   6.358  16.693  0.5980  0.6745  0.1966
17320TIP3    H173451   4.898   6.295  16.743  2.1545 -0.1357  0.8388
17320TIP3    H273452   4.972   6.312  16.612 -0.0790  1.2104 -0.3144
17321TIP3   OH273453   6.181   5.722  11.818  0.2227  0.9892 -0.2691
17321TIP3    H173454   6.263   5.709  11.864  0.8250 -0.7659 -1.7495
17321TIP3    H273455   6.159   5.636  11.783 -1.5741  1.7102 -1.0247
17322TIP3   OH273456   2.979   5.773  14.054  0.0996 -0.0594 -0.4645
17322TIP3    H173457   3.009   5.818  14.133 -0.9366 -1.4729  0.7845
17322TIP3    H273458   2.926   5.838  14.008  1.0841  0.9235 -0.2598
17323TIP3   OH273459   2.098   1.142   3.902  0.3354 -0.2465 -0.1333
17323TIP3    H173460   2.172   1.107   3.852  1.4436 -0.1522  1.3745
17323TIP3    H273461   2.082   1.228   3.862  0.5728 -0.5510 -0.9183
17324TIP3   OH273462   3.954   6.464   3.356 -0.8100  0.3479 -0.2066
17324TIP3    H173463   4.032   6.473   3.410 -1.2869 -0.8964  0.7349
17324TIP3    H273464   3.882   6.459   3.419 -1.4729 -0.2307 -0.9932
17325TIP3   OH273465   3.571   6.692  13.894 -0.0140 -0.3291  0.2361
17325TIP3    H173466   3.614   6.614  13.858  0.8899  0.7051 -0.9812
17325TIP3    H273467   3.592   6.762  13.833 -4.1049  0.1382 -0.9069
17326TIP3   OH273468   0.317   5.141  11.503 -1.2760 -0.0555  0.4929
17326TIP3    H173469   0.332   5.122  11.596  0.4390 -0.9382  0.0850
17326TIP3    H273470   0.288   5.232  11.502  0.0527  0.4377  1.8213
17327TIP3   OH273471   2.935   2.113  15.303  0.0480 -0.1863  1.1889
17327TIP3    H173472   2.900   2.158  15.225 -0.6181  2.1659  2.7263
17327TIP3    H273473   3.024   2.089  15.278  0.0062  0.9030 -0.1823
17328TIP3   OH273474   1.688   6.455   5.201  0.3081  0.0560  0.8445
17328TIP3    H173475   1.700   6.409   5.118 -1.0068  0.4307  0.4128
17328TIP3    H273476   1.757   6.421   5.258  1.9689  0.6364 -0.7373
17329TIP3   OH273477   5.395   1.959   5.585  0.1483 -0.9051 -0.3578
17329TIP3    H173478   5.435   1.881   5.624 -1.7279 -1.9179 -0.3498
17329TIP3    H273479   5.323   1.926   5.532 -0.7317  0.8186 -0.3351
17330TIP3   OH273480   5.109   2.810  13.226  0.1081  0.1890 -0.0088
17330TIP3    H173481   5.039   2.873  13.208  0.5928  1.0514  0.9818
17330TIP3    H273482   5.184   2.842  13.176  0.0287 -0.2669 -0.4215
17331TIP3   OH273483   6.041   3.071   1.741 -0.5696 -0.0783  0.4685
17331TIP3    H173484   6.099   3.022   1.800 -0.4618 -1.2308 -0.5412
17331TIP3    H273485   5.953   3.042   1.764 -0.7336  1.2712  1.6422
17332TIP3   OH273486   0.484   3.830  16.615 -0.5023  0.2977  0.4535
17332TIP3    H173487   0.450   3.912  16.581 -2.0670 -0.6508 -0.3976
17332TIP3    H273488   0.406   3.780  16.641  0.3826 -1.0329  0.6745
17333TIP3   OH273489   3.059   1.209   4.685 -0.3671  0.0356 -0.0983
17333TIP3    H173490   3.098   1.231   4.600  0.0922 -0.4163 -0.0171
17333TIP3    H273491   3.125   1.153   4.727 -1.0665 -0.6668  0.0890
17334TIP3   OH273492   5.268   4.434   3.921  0.6919 -0.5201  0.6840
17334TIP3    H173493   5.241   4.494   3.991  0.8226 -1.3700  1.4769
17334TIP3    H273494   5.351   4.470   3.889  0.5489 -0.0390  0.8480
17335TIP3   OH273495   3.678   5.893   3.347  0.5443 -0.3417  0.3240
17335TIP3    H173496   3.631   5.926   3.270 -1.5770 -1.4683  1.0773
17335TIP3    H273497   3.665   5.960   3.414 -0.7239 -1.0041  0.7696
17336TIP3   OH273498   5.174   3.996  12.784 -0.8633 -0.4497 -0.9378
17336TIP3    H173499   5.186   4.068  12.723  0.4833  0.6672  0.5495
17336TIP3    H273500   5.251   3.941  12.772  0.7786  1.1470  1.4124
17337TIP3   OH273501   5.192   5.422   5.385 -0.1284 -0.5920 -0.0369
17337TIP3    H173502   5.268   5.408   5.441 -1.3253 -3.2138  1.1056
17337TIP3    H273503   5.128   5.467   5.440 -0.5184 -1.2025  0.0171
17338TIP3   OH273504   1.951   6.104   1.389 -0.4476  0.0927  0.2562
17338TIP3    H173505   1.879   6.158   1.356  1.6100  1.8898 -1.7110
17338TIP3    H273506   1.964   6.134   1.479 -0.0545  2.2642 -0.4491
17339TIP3   OH273507   2.661   1.560   4.045  0.1153 -0.3556  0.0714
17339TIP3    H173508   2.613   1.615   4.108 -1.2594 -1.8604  0.3909
17339TIP3    H273509   2.597   1.540   3.977  0.1511 -2.6151  0.6301
17340TIP3   OH273510   0.908   2.193  11.726 -0.3299 -0.5847 -0.8563
17340TIP3    H173511   0.909   2.287  11.707  1.5010 -0.3661  0.0419
17340TIP3    H273512   0.878   2.188  11.817  1.5941 -0.6227 -0.1607
17341TIP3   OH273513   2.008   2.332  11.381 -0.1972  0.1510 -0.7856
17341TIP3    H173514   2.056   2.384  11.317  0.0085  1.2457  0.2140
17341TIP3    H273515   1.947   2.279  11.329 -0.4485  1.4188 -1.8453
17342TIP3   OH273516   4.463   2.115   1.673  0.5187 -0.1148 -0.5036
17342TIP3    H173517   4.412   2.078   1.745 -0.7091  1.6099 -0.4039
17342TIP3    H273518   4.505   2.193   1.710  0.2720  0.5200 -1.4997
17343TIP3   OH273519   1.438   5.885   3.376  0.3768 -0.3192 -0.1903
17343TIP3    H173520   1.365   5.945   3.392  1.4529  1.3188 -1.1461
17343TIP3    H273521   1.400   5.816   3.322 -0.4143  0.7007 -0.9954
17344TIP3   OH273522   4.679   2.286  14.374 -0.0179 -0.5723 -0.2021
17344TIP3    H173523   4.584   2.292  14.382 -0.0725  2.5154 -1.9019
17344TIP3    H273524   4.696   2.289  14.280  1.7919 -0.2078  0.0908
17345TIP3   OH273525   0.672   1.732  14.067 -0.4349  0.1505  0.1035
17345TIP3    H173526   0.701   1.677  14.140 -1.5237 -2.2060 -1.1228
17345TIP3    H273527   0.669   1.672  13.992  0.7075  2.4778 -1.9383
17346TIP3   OH273528   5.777   4.391  15.583 -0.7541 -0.1436  0.1006
17346TIP3    H173529   5.718   4.448  15.533  0.2643  0.4754 -0.4419
17346TIP3    H273530   5.781   4.431  15.669 -1.1803 -0.2337  0.1653
17347TIP3   OH273531   5.897   6.724   0.527 -0.5916 -0.1282 -0.4015
17347TIP3    H173532   5.812   6.760   0.555 -1.0989 -1.0812 -0.6739
17347TIP3    H273533   5.874   6.653   0.467  0.4211 -0.0171 -0.9513
17348TIP3   OH273534   3.405   2.526   4.030  0.4822  0.5567 -0.1966
17348TIP3    H173535   3.450   2.453   3.987 -0.8695 -0.1148 -0.5516
17348TIP3    H273536   3.448   2.535   4.115  1.2091 -0.1115 -0.4883
17349TIP3   OH273537   4.355   2.927  13.365  0.2121  0.0734  0.1463
17349TIP3    H173538   4.294   2.972  13.424 -1.2732 -1.2736 -0.2952
17349TIP3    H273539   4.317   2.939  13.278 -0.2018 -1.9101  0.0063
17350TIP3   OH273540   5.799   3.242  13.878 -0.3279  0.1182  0.3367
17350TIP3    H173541   5.712   3.255  13.917 -0.3315  0.1775  0.3085
17350TIP3    H273542   5.781   3.210  13.789 -0.3580  1.9166 -0.3431
17351TIP3   OH273543   2.044   0.683   1.553 -0.4144 -0.0660 -0.5852
17351TIP3    H173544   2.124   0.690   1.502 -0.8836 -1.2395 -1.5608
17351TIP3    H273545   2.013   0.594   1.535 -0.9190 -0.3157  1.3024
17352TIP3   OH273546   2.605   3.556  15.414  0.6555 -0.1876  0.5722
17352TIP3    H173547   2.553   3.476  15.407 -0.8549  0.8412 -0.9349
17352TIP3    H273548   2.578   3.596  15.497  0.5681 -0.6863  0.7845
17353TIP3   OH273549   5.606   0.709  14.391  0.2727  0.4810  0.3180
17353TIP3    H173550   5.514   0.733  14.397  0.0727 -0.1174 -0.2700
17353TIP3    H273551   5.605   0.619  14.358  1.1082  1.0661 -1.3828
17354TIP3   OH273552   1.504   5.723   1.685 -0.1786 -0.1730  0.8327
17354TIP3    H173553   1.440   5.678   1.740  0.2592 -0.9602  0.7257
17354TIP3    H273554   1.577   5.661   1.679 -0.4111 -0.3472 -1.0493
17355TIP3   OH273555   5.755   1.895  15.281  0.0376 -0.0870 -0.2814
17355TIP3    H173556   5.683   1.888  15.218 -0.3801 -2.0352  0.3413
17355TIP3    H273557   5.834   1.879  15.229 -0.1155  0.4812 -0.6922
17356TIP3   OH273558   0.776   2.993  12.015  0.1159  0.4459 -0.0096
17356TIP3    H173559   0.767   3.064  12.078  1.2555  0.6105 -0.0016
17356TIP3    H273560   0.859   3.011  11.970  0.2713 -0.7025 -0.2232
17357TIP3   OH273561   6.319   0.670  14.119 -0.2008  0.0487 -0.1154
17357TIP3    H173562   6.293   0.601  14.179 -2.8733  0.8717 -0.1752
17357TIP3    H273563   6.364   0.735  14.173  1.4563 -1.2224  0.1054
17358TIP3   OH273564   5.053   0.408   0.504 -0.1761 -0.6724 -0.0972
17358TIP3    H173565   5.116   0.364   0.561 -2.0087 -0.0920  2.5755
17358TIP3    H273566   5.013   0.337   0.454  0.0869 -1.4749  0.8027
17359TIP3   OH273567   6.314   1.390   2.716 -0.1716  0.6681 -0.8405
17359TIP3    H173568   6.354   1.468   2.755  1.1569  0.2771 -1.3514
17359TIP3    H273569   6.351   1.386   2.628  1.7175 -1.8256 -0.0439
17360TIP3   OH273570   2.017   5.938  11.339 -0.1893 -0.3620 -0.3215
17360TIP3    H173571   2.099   5.987  11.334 -1.6218  2.1748 -1.3809
17360TIP3    H273572   1.975   5.971  11.419  0.6820 -3.2649  1.4527
17361TIP3   OH273573   4.281   2.068  12.385  0.2255 -0.0129  0.0966
17361TIP3    H173574   4.301   2.033  12.299 -0.8235 -1.0215  0.2311
17361TIP3    H273575   4.187   2.088  12.382  0.0057 -0.7684  1.2258
17362TIP3   OH273576   5.893   4.212  14.849 -0.3622  0.0936 -0.2400
17362TIP3    H173577   5.818   4.196  14.906 -1.4235 -2.5479 -2.2050
17362TIP3    H273578   5.962   4.155  14.885  0.3054  1.4422  0.7047
17363TIP3   OH273579   1.277   5.734  11.259 -0.3350  0.5688 -0.4990
17363TIP3    H173580   1.368   5.704  11.261 -0.5535 -0.0868 -0.0537
17363TIP3    H273581   1.244   5.704  11.175 -0.2304  0.5319 -0.5279
17364TIP3   OH273582   0.552   3.026   6.347 -0.5457 -0.3337 -0.2065
17364TIP3    H173583   0.521   3.021   6.438 -0.2310  1.2401  0.0248
17364TIP3    H273584   0.498   3.095   6.308  1.0907  0.8788 -0.4344
17365TIP3   OH273585   3.766   4.583  16.515 -0.3622  0.5435  0.4099
17365TIP3    H173586   3.835   4.614  16.455 -1.6395 -0.0585 -1.4786
17365TIP3    H273587   3.720   4.663  16.541  0.4470  0.8537  0.9379
17366TIP3   OH273588   5.814   2.005  10.518  0.4758 -0.0539 -0.0373
17366TIP3    H173589   5.782   2.094  10.535  0.5259  0.0285 -0.3751
17366TIP3    H273590   5.759   1.949  10.573 -0.1527  0.1004 -0.4958
17367TIP3   OH273591   5.812   0.394   5.754 -0.4404 -0.2484 -0.5354
17367TIP3    H173592   5.827   0.305   5.721  2.0204  0.3079 -1.1211
17367TIP3    H273593   5.839   0.451   5.683 -1.2068  1.0046  0.1375
17368TIP3   OH273594   2.578   1.673  12.696  0.3159 -0.4170  0.6182
17368TIP3    H173595   2.666   1.654  12.664  0.6220  1.5453  0.1365
17368TIP3    H273596   2.520   1.652  12.623  0.4982 -0.6574  0.5422
17369TIP3   OH273597   2.114   5.388  11.344 -0.2205  0.0394 -0.2654
17369TIP3    H173598   2.145   5.366  11.431 -0.2947 -0.5351 -0.3805
17369TIP3    H273599   2.129   5.483  11.336  0.3232 -0.0102  0.1479
17370TIP3   OH273600   6.132   0.013  11.382  0.3683 -0.2067  0.1003
17370TIP3    H173601   6.166   0.103  11.377 -0.0028 -0.0873 -0.3792
17370TIP3    H273602   6.206  -0.042  11.356  0.7921 -0.0902  1.0199
17371TIP3   OH273603   2.259   2.910   6.177 -0.2213 -0.0592 -0.2789
17371TIP3    H173604   2.231   2.991   6.221 -0.7281  0.3978 -1.4178
17371TIP3    H273605   2.353   2.923   6.162 -0.6531  1.2463 -2.2694
17372TIP3   OH273606   3.893   6.083   5.399 -0.2200 -0.1894 -0.1409
17372TIP3    H173607   3.811   6.082   5.447 -0.0986  0.0236  0.0713
17372TIP3    H273608   3.878   6.026   5.323 -0.2267 -0.9736  0.4393
17373TIP3   OH273609   4.754   4.875   4.353 -0.1154 -0.1182 -0.5880
17373TIP3    H173610   4.658   4.876   4.343 -0.3808  1.4626  1.4601
17373TIP3    H273611   4.775   4.784   4.371 -1.4994 -0.2166  0.7365
17374TIP3   OH273612   2.720   0.443  14.097  0.5637 -0.0054 -0.0557
17374TIP3    H173613   2.675   0.524  14.071  0.8105  0.4782  0.9752
17374TIP3    H273614   2.761   0.412  14.016  0.4053  0.8636 -0.4871
17375TIP3   OH273615   2.706   6.355  15.347 -0.5599  0.0924 -0.1537
17375TIP3    H173616   2.785   6.384  15.392  0.6298  0.4001 -2.3257
17375TIP3    H273617   2.727   6.268  15.314 -0.7956  0.5136 -1.4719
17376TIP3   OH273618   0.526   3.781  11.970 -0.8137 -0.4550  0.2562
17376TIP3    H173619   0.572   3.698  11.961  0.8948  0.5700 -1.1644
17376TIP3    H273620   0.546   3.809  12.060  2.1454  0.3065 -0.5285
17377TIP3   OH273621   1.730   1.797   1.468 -0.3288 -0.0113 -0.2173
17377TIP3    H173622   1.764   1.754   1.546  0.7292  0.1883 -0.5431
17377TIP3    H273623   1.681   1.729   1.421 -0.1406 -0.3877  0.1330
17378TIP3   OH273624   0.184   0.940  17.130  0.1045  0.2332  0.4019
17378TIP3    H173625   0.142   0.854  17.124  0.5099  0.1310 -2.6715
17378TIP3    H273626   0.274   0.921  17.158  0.2924 -0.4235 -0.5930
17379TIP3   OH273627   4.874   6.295  14.455 -0.1674 -0.4754 -0.3637
17379TIP3    H173628   4.811   6.354  14.413 -0.2459 -0.4463 -0.2054
17379TIP3    H273629   4.917   6.251  14.382 -0.8531 -0.9910 -0.4681
17380TIP3   OH273630   1.728   0.359  12.133 -0.3696 -0.5498  0.1083
17380TIP3    H173631   1.650   0.382  12.184 -0.9547  0.9447 -1.3680
17380TIP3    H273632   1.799   0.410  12.173 -0.6971  0.1458 -0.1997
17381TIP3   OH273633   5.896   5.904   2.395 -0.2540  0.2846  0.0333
17381TIP3    H173634   5.950   5.894   2.473 -2.3037  2.8138  1.9499
17381TIP3    H273635   5.807   5.887   2.425 -0.8620 -2.2518 -2.6537
17382TIP3   OH273636   0.630   2.428  11.143  0.0557 -0.5754  0.2267
17382TIP3    H173637   0.629   2.457  11.235 -0.1874 -0.8034  0.2981
17382TIP3    H273638   0.722   2.433  11.118  0.0827 -0.2027  0.3839
17383TIP3   OH273639   6.076   1.311   0.162  0.5019 -0.7846  0.0506
17383TIP3    H173640   6.108   1.392   0.202 -0.3908 -0.9659  1.1711
17383TIP3    H273641   5.995   1.336   0.119 -1.3135 -1.5514  2.7673
17384TIP3   OH273642   2.402   1.850   2.937  0.3731 -0.3352 -0.4300
17384TIP3    H173643   2.495   1.827   2.935  0.0914 -2.1973  2.6242
17384TIP3    H273644   2.396   1.922   3.000 -0.4872 -2.0624  1.5668
17385TIP3   OH273645   5.231   6.768  10.736 -0.0130  0.0967 -0.5403
17385TIP3    H173646   5.262   6.716  10.662 -0.7106 -0.8701 -0.1672
17385TIP3    H273647   5.148   6.727  10.762  0.2350  0.3895  0.8068
17386TIP3   OH273648   0.642   1.308   5.676 -0.0077  0.1031 -0.0420
17386TIP3    H173649   0.581   1.363   5.725  1.3036 -0.0737  1.8826
17386TIP3    H273650   0.594   1.227   5.661 -0.3189  0.0206  1.3029
17387TIP3   OH273651   1.520   5.330   6.726 -0.0860 -0.2377  0.5683
17387TIP3    H173652   1.523   5.242   6.689 -2.4676 -0.5657  1.0154
17387TIP3    H273653   1.594   5.332   6.787  1.4122 -1.0777 -1.1022
17388TIP3   OH273654   2.255   0.043  14.006  0.7482 -0.2346 -0.0560
17388TIP3    H173655   2.208   0.010  14.082 -0.1228 -0.4299 -0.6590
17388TIP3    H273656   2.237  -0.022  13.938  0.4725  0.5708 -0.7717
17389TIP3   OH273657   5.625   5.383  11.749 -0.2986 -0.2907  0.3133
17389TIP3    H173658   5.606   5.466  11.792  0.8751  0.4980 -0.6303
17389TIP3    H273659   5.557   5.374  11.682 -1.5653 -1.0577  1.6630
17390TIP3   OH273660   3.916   4.009   4.861  0.2186 -0.1640  0.2076
17390TIP3    H173661   3.924   3.926   4.814  1.4175  0.1821 -0.2240
17390TIP3    H273662   3.881   4.070   4.797 -2.9699 -0.8158  1.1317
17391TIP3   OH273663   3.146   5.605  15.617  0.5704 -0.5370 -0.7045
17391TIP3    H173664   3.187   5.672  15.673  0.3359 -1.2230  0.2998
17391TIP3    H273665   3.212   5.536  15.611  0.1156 -1.0036 -0.2805
17392TIP3   OH273666   1.884   2.208  13.494  0.4362  0.0760  0.4349
17392TIP3    H173667   1.855   2.148  13.425 -0.5144 -0.1345  0.9958
17392TIP3    H273668   1.839   2.291  13.473  1.6549  0.5778 -0.2751
17393TIP3   OH273669   4.216   5.279  15.783 -0.8064  0.0099  0.4095
17393TIP3    H173670   4.211   5.314  15.872  1.7172  1.3505  0.1379
17393TIP3    H273671   4.193   5.354  15.727 -2.3329 -0.8109 -0.1236
17394TIP3   OH273672   4.770   5.497   2.014  0.3421  0.0171  0.0578
17394TIP3    H173673   4.691   5.546   2.038 -0.1473 -0.6925 -0.0672
17394TIP3    H273674   4.746   5.451   1.933  1.2967  0.7571 -0.6702
17395TIP3   OH273675   5.789   1.662   2.154 -0.6394 -0.2315 -0.0814
17395TIP3    H173676   5.796   1.581   2.205  0.2852 -0.9203 -1.2613
17395TIP3    H273677   5.814   1.638   2.065 -0.1102  1.3954 -0.4199
17396TIP3   OH273678   1.919   5.598   1.234  0.1843  0.5728 -0.3834
17396TIP3    H173679   1.951   5.687   1.248  0.6067  0.4828 -0.7608
17396TIP3    H273680   1.964   5.546   1.300  0.5760  0.5029 -0.6994
17397TIP3   OH273681   6.478   5.794  11.537  0.2148 -0.2400  0.1911
17397TIP3    H173682   6.499   5.811  11.629  0.3918 -0.2292  0.1485
17397TIP3    H273683   6.395   5.839  11.523  0.5514  0.3680  0.1466
17398TIP3   OH273684   3.999   1.906  11.047 -0.4046  0.4660  0.0414
17398TIP3    H173685   3.932   1.935  10.985 -0.2546  0.5128 -0.0975
17398TIP3    H273686   4.016   1.815  11.023 -0.7275  0.3203  0.3493
17399TIP3   OH273687   1.543   5.882   3.941 -0.1564  0.0054  0.8436
17399TIP3    H173688   1.595   5.866   3.862 -1.1503 -0.9375  0.3424
17399TIP3    H273689   1.593   5.843   4.012  0.2032 -0.1622  0.5010
17400TIP3   OH273690   0.930   0.026   4.502 -0.1280 -0.2180 -0.1568
17400TIP3    H173691   0.947  -0.041   4.568 -0.2376 -0.7025 -0.6178
17400TIP3    H273692   0.970  -0.007   4.422 -3.1055 -1.4238 -1.2872
17401TIP3   OH273693   3.035   3.175   3.828  0.0714  0.9936  0.3605
17401TIP3    H173694   3.020   3.099   3.771  1.1885 -0.4053  1.8203
17401TIP3    H273695   3.057   3.246   3.769 -0.1705 -0.0450 -1.0260
17402TIP3   OH273696   0.528   4.604   3.596  0.1551 -0.1403 -0.0481
17402TIP3    H173697   0.458   4.569   3.651 -0.7917  0.4174 -0.8595
17402TIP3    H273698   0.599   4.540   3.604 -0.8261 -1.2640 -0.0026
17403TIP3   OH273699   1.163   4.226   3.383  0.3275  0.9175 -1.1318
17403TIP3    H173700   1.102   4.289   3.421  0.5364 -0.2206  1.3068
17403TIP3    H273701   1.110   4.175   3.322 -1.6318 -0.8006  1.7356
17404TIP3   OH273702   6.576   0.324   6.666 -0.0083  0.6342 -0.5766
17404TIP3    H173703   6.530   0.384   6.608  0.3673  0.7214 -0.7848
17404TIP3    H273704   6.562   0.361   6.754 -2.5685 -0.7561 -0.2890
17405TIP3   OH273705   0.462   1.508   0.173 -0.0892 -0.9260  0.1620
17405TIP3    H173706   0.507   1.454   0.238 -0.4531 -1.7254 -0.2425
17405TIP3    H273707   0.496   1.596   0.187  2.4824 -1.6646 -0.8614
17406TIP3   OH273708   6.358   5.299  11.202  0.2866 -0.3762  0.8595
17406TIP3    H173709   6.320   5.331  11.120  1.4724 -0.6682  0.1798
17406TIP3    H273710   6.318   5.354  11.269  1.5710  2.0021 -0.1826
17407TIP3   OH273711   2.412   2.839   4.137 -0.4630 -0.1037 -0.2694
17407TIP3    H173712   2.418   2.744   4.140 -1.7404 -0.2283 -0.9308
17407TIP3    H273713   2.420   2.860   4.044  0.1495  0.4683 -0.0940
17408TIP3   OH273714   0.619   2.683   0.608  0.1000 -0.6487 -0.5478
17408TIP3    H173715   0.694   2.729   0.571  1.0817 -1.6501  0.1625
17408TIP3    H273716   0.548   2.702   0.547  0.6119  1.2553 -0.6304
17409TIP3   OH273717   1.514   4.807   5.377  0.0910  0.4238  0.2720
17409TIP3    H173718   1.491   4.733   5.433  1.3797  0.6049  1.0943
17409TIP3    H273719   1.599   4.836   5.411 -1.4227  3.8150  1.5927
17410TIP3   OH273720   1.550   2.023  17.050 -0.5209  0.3082 -0.1209
17410TIP3    H173721   1.584   2.111  17.063 -0.0658  0.2289 -0.7382
17410TIP3    H273722   1.575   1.976  17.130 -0.0721  0.5257 -0.1333
17411TIP3   OH273723   5.538   3.782  11.642 -0.3573 -0.5495 -0.0874
17411TIP3    H173724   5.457   3.819  11.608 -0.1336 -1.0624 -1.2257
17411TIP3    H273725   5.514   3.694  11.673 -0.1133 -0.9671 -1.0593
17412TIP3   OH273726   5.879   4.715  15.990 -0.0146  0.8707 -0.1796
17412TIP3    H173727   5.840   4.636  15.953 -1.1602  0.2318  2.1770
17412TIP3    H273728   5.924   4.757  15.916 -0.6034 -1.2021 -1.8110
17413TIP3   OH273729   0.385   4.648   2.772 -0.5445  0.6479 -0.1378
17413TIP3    H173730   0.423   4.661   2.685 -1.4277 -0.3585 -0.6945
17413TIP3    H273731   0.350   4.733   2.797 -3.6807  0.2034 -2.4475
17414TIP3   OH273732   1.130   1.296  11.883  0.3427 -0.1946  0.2891
17414TIP3    H173733   1.072   1.370  11.896 -0.3804 -0.8286  0.7741
17414TIP3    H273734   1.217   1.334  11.876 -0.1071  0.7516 -0.2495
17415TIP3   OH273735   1.292   6.755  17.094 -0.1504  1.0167 -0.0350
17415TIP3    H173736   1.256   6.673  17.126 -0.6233  1.3610  0.3196
17415TIP3    H273737   1.381   6.758  17.130  0.8107 -0.5041 -2.0351
17416TIP3   OH273738   4.167   2.096   5.263  0.2965 -0.0954  0.3851
17416TIP3    H173739   4.099   2.132   5.206  0.1544  0.1738  0.7281
17416TIP3    H273740   4.152   2.137   5.348  0.3191 -0.7281  0.7010
17417TIP3   OH273741   6.515   1.921  15.225  0.0636  0.4777 -0.2122
17417TIP3    H173742   6.476   1.850  15.175  0.5583  0.0328  0.0321
17417TIP3    H273743   6.464   1.925  15.306  0.5284 -0.1286  0.1228
17418TIP3   OH273744   2.542   0.221   5.492 -0.0020 -0.0415  0.0003
17418TIP3    H173745   2.594   0.141   5.499  1.9732  1.1102 -0.5928
17418TIP3    H273746   2.526   0.230   5.398  1.1798  1.0348 -0.1334
17419TIP3   OH273747   2.639   0.754  11.984  0.1874 -0.2754  0.8628
17419TIP3    H173748   2.730   0.781  11.977  0.4284 -1.3858 -0.8571
17419TIP3    H273749   2.618   0.762  12.077  1.9709  0.1775  1.2515
17420TIP3   OH273750   4.462   5.899  11.718  0.3776  0.0237  0.2160
17420TIP3    H173751   4.535   5.933  11.665  0.9542  1.3129  1.7294
17420TIP3    H273752   4.500   5.825  11.765  0.2841 -0.2328 -0.1151
17421TIP3   OH273753   5.925   0.137   5.271  0.3964  0.2991  0.2946
17421TIP3    H173754   5.998   0.195   5.294  0.3764  0.2642  0.4490
17421TIP3    H273755   5.857   0.196   5.239 -0.3135  0.5702  2.1715
17422TIP3   OH273756   0.840   3.493  10.814  0.2064 -0.1049 -0.6532
17422TIP3    H173757   0.899   3.451  10.877  2.8922  1.2411 -2.0817
17422TIP3    H273758   0.823   3.426  10.748 -0.2243 -0.6253 -0.0262
17423TIP3   OH273759   3.186   4.321   5.976 -0.5113 -0.0440  0.3149
17423TIP3    H173760   3.275   4.335   5.944 -0.5690  0.9748  0.5944
17423TIP3    H273761   3.198   4.279   6.061 -0.3211 -0.4099  0.1151
17424TIP3   OH273762   0.078   1.774   3.341 -0.0922  0.4037  0.0268
17424TIP3    H173763   0.112   1.811   3.422 -1.6248  0.1773  0.8074
17424TIP3    H273764   0.121   1.689   3.334 -0.5244  0.0850  1.0297
17425TIP3   OH273765   5.967   5.780  14.046  0.7769 -0.0779 -0.5055
17425TIP3    H173766   6.008   5.851  13.997 -0.0243  0.7879  0.0462
17425TIP3    H273767   6.012   5.701  14.016  0.4928  0.4438 -2.4381
17426TIP3   OH273768   5.016   5.971   1.335  0.0768 -0.3163 -0.5448
17426TIP3    H173769   4.989   5.882   1.356 -1.6108 -0.2228 -2.0269
17426TIP3    H273770   5.110   5.972   1.350 -0.2388 -1.5691  2.0172
17427TIP3   OH273771   2.748   0.800   6.074  0.5141  0.2527  0.5809
17427TIP3    H173772   2.814   0.869   6.070  1.2106 -0.3854  0.8538
17427TIP3    H273773   2.722   0.797   6.166 -1.2584  1.7346  0.1872
17428TIP3   OH273774   5.314   5.716  10.966 -0.0809  0.5134 -0.0460
17428TIP3    H173775   5.234   5.664  10.962  1.1298 -1.3982 -0.5496
17428TIP3    H273776   5.314   5.766  10.885  0.6466 -1.7297 -1.5169
17429TIP3   OH273777   4.744   1.938  14.248 -0.6495  0.1496 -0.3444
17429TIP3    H173778   4.772   1.943  14.157 -0.4543 -1.6057 -0.4114
17429TIP3    H273779   4.800   1.871  14.287 -0.8438  0.7449  1.0348
17430TIP3   OH273780   2.820   3.263  13.674  0.0883 -0.0887  0.5856
17430TIP3    H173781   2.746   3.225  13.627 -0.7917  1.3902  0.7151
17430TIP3    H273782   2.879   3.295  13.605  0.0025 -0.1516  0.4833
17431TIP3   OH273783   4.581   5.936  16.805  0.1935  0.2863  0.3354
17431TIP3    H173784   4.563   5.927  16.898  0.7123 -1.4053  0.3092
17431TIP3    H273785   4.498   5.965  16.767 -1.3418 -3.0299  0.7928
17432TIP3   OH273786   1.620   1.597   3.742 -0.4658 -0.1081  0.1924
17432TIP3    H173787   1.686   1.598   3.673  1.5457 -2.5441  1.8708
17432TIP3    H273788   1.582   1.510   3.739  0.5252 -0.7334  2.7688
17433TIP3   OH273789   0.216   4.076  12.888  0.1732  1.2638  0.0166
17433TIP3    H173790   0.280   4.141  12.916 -0.2792  1.6727  0.1107
17433TIP3    H273791   0.268   4.008  12.846  1.0555  0.0744  2.7542
17434TIP3   OH273792   3.770   3.157   0.031  0.2832 -0.6503  0.1982
17434TIP3    H173793   3.747   3.242  -0.007 -2.1062 -1.8062 -1.2065
17434TIP3    H273794   3.685   3.116   0.050  1.3201 -3.2280 -0.3377
17435TIP3   OH273795   6.130   4.802   3.489  0.1537 -0.0864  0.1845
17435TIP3    H173796   6.104   4.722   3.535 -0.0666 -0.5835 -0.7750
17435TIP3    H273797   6.203   4.836   3.540 -1.4613  0.5924  2.1622
17436TIP3   OH273798   1.197   1.075  16.033  0.2982  0.1832 -0.4450
17436TIP3    H173799   1.283   1.087  15.991  0.3507  1.5444 -0.0091
17436TIP3    H273800   1.135   1.074  15.960  0.4559  1.7820 -0.6328
17437TIP3   OH273801   3.934   3.247   1.830  0.1782  0.4054 -0.0902
17437TIP3    H173802   3.998   3.188   1.791 -0.4833  0.0316 -0.6319
17437TIP3    H273803   3.985   3.306   1.885  1.2705  1.6262 -2.3181
17438TIP3   OH273804   3.674   6.496   1.050  0.9318 -0.0046 -0.3367
17438TIP3    H173805   3.645   6.438   0.980  2.5038 -0.8741 -0.3138
17438TIP3    H273806   3.597   6.507   1.105 -0.2804  0.5353 -2.0581
17439TIP3   OH273807   2.078   5.873   1.602 -0.3067 -0.2021 -0.5342
17439TIP3    H173808   2.151   5.929   1.577 -0.1555 -0.3589 -0.4409
17439TIP3    H273809   2.092   5.854   1.695 -0.1000 -0.7752 -0.6727
17440TIP3   OH273810   5.068   4.407   2.159 -0.3211 -0.1867  0.0714
17440TIP3    H173811   5.140   4.463   2.131  0.0073 -0.3366  0.5868
17440TIP3    H273812   5.109   4.322   2.175 -0.8376 -0.6165 -0.8346
17441TIP3   OH273813   2.408   0.714   0.439  0.2168 -0.1188 -0.2609
17441TIP3    H173814   2.416   0.619   0.430 -1.0394 -0.4796  1.8137
17441TIP3    H273815   2.328   0.735   0.390  1.0326  0.0483 -1.5579
17442TIP3   OH273816   4.673   6.564   3.790  0.0545  0.4971  0.2758
17442TIP3    H173817   4.713   6.623   3.725  0.1902 -0.2014 -0.2920
17442TIP3    H273818   4.745   6.542   3.849 -0.6773  3.5110  2.5624
17443TIP3   OH273819   5.297   1.416  11.994 -0.6168 -0.3093  0.1393
17443TIP3    H173820   5.364   1.483  11.996 -0.1028 -0.7960 -0.2859
17443TIP3    H273821   5.345   1.334  11.988 -1.2226 -0.7475  1.0087
17444TIP3   OH273822   2.015   5.523  10.952  0.0027 -0.3262  0.2968
17444TIP3    H173823   1.995   5.499  10.861  0.6330  0.5923 -0.1022
17444TIP3    H273824   2.098   5.480  10.970  0.5730  0.5916 -0.0452
17445TIP3   OH273825   1.359   2.234   4.751 -0.0186  0.1031 -0.1963
17445TIP3    H173826   1.289   2.194   4.699 -1.1040 -2.2553  2.7938
17445TIP3    H273827   1.407   2.160   4.787  2.9865  1.6659 -0.6909
17446TIP3   OH273828   2.969   6.150  14.342 -0.2332 -0.9241  0.5231
17446TIP3    H173829   2.981   6.192  14.257 -2.3835 -1.0873  0.0640
17446TIP3    H273830   2.979   6.056  14.324  0.4766 -0.8793  0.6898
17447TIP3   OH273831   4.742   0.989   2.314  0.1457 -0.6567 -0.3005
17447TIP3    H173832   4.810   1.046   2.350 -0.9731  0.1717  0.6124
17447TIP3    H273833   4.755   0.905   2.359  1.6822 -1.1067 -1.5093
17448TIP3   OH273834   0.485   6.120  10.620 -0.0796  0.1713  0.0147
17448TIP3    H173835   0.467   6.041  10.670  0.5816  0.1855  0.2763
17448TIP3    H273836   0.462   6.097  10.530  1.0112 -0.6204 -0.0715
17449TIP3   OH273837   6.482   1.648   0.412  0.3607 -0.2882  0.0599
17449TIP3    H173838   6.393   1.675   0.434 -1.0374 -3.7592 -0.8488
17449TIP3    H273839   6.497   1.684   0.325 -0.7310 -0.9132 -0.3984
17450TIP3   OH273840   6.083   4.666   1.840 -0.4127  0.3732  0.0676
17450TIP3    H173841   6.148   4.597   1.824  1.0583  1.7601 -0.2972
17450TIP3    H273842   6.123   4.721   1.908 -2.3740 -0.1127  1.7176
17451TIP3   OH273843   1.432   4.347  16.501  0.2262  0.4603  0.2570
17451TIP3    H173844   1.343   4.344  16.466  0.3856  3.9798 -0.8869
17451TIP3    H273845   1.421   4.347  16.596 -1.1169  1.7003  0.1424
17452TIP3   OH273846   4.428   4.117   6.533  0.4742  0.7186 -0.0609
17452TIP3    H173847   4.514   4.080   6.516  1.1865  0.9707  2.4946
17452TIP3    H273848   4.366   4.055   6.495  1.7377  0.7808 -2.3720
17453TIP3   OH273849   4.381   2.782   2.047 -0.8802  0.2974 -0.3842
17453TIP3    H173850   4.455   2.764   2.106 -1.4779 -1.9892 -0.2324
17453TIP3    H273851   4.422   2.809   1.965 -0.0275  3.3609  0.9305
17454TIP3   OH273852   2.977   5.880   4.079  0.2748 -0.2018  0.0941
17454TIP3    H173853   3.042   5.880   4.149  0.5850  0.1300 -0.1920
17454TIP3    H273854   3.026   5.900   3.999 -0.3107  1.1489  0.0266
17455TIP3   OH273855   5.206   5.670  12.843  0.3872 -0.1305  0.9303
17455TIP3    H173856   5.222   5.731  12.915 -0.4665  2.2689 -0.7828
17455TIP3    H273857   5.118   5.691  12.812  1.2105 -0.0969 -1.6483
17456TIP3   OH273858   3.843   3.312  12.132 -0.2065  0.6060 -0.2966
17456TIP3    H173859   3.899   3.306  12.210  0.1844  0.6827 -0.5735
17456TIP3    H273860   3.768   3.256  12.153  0.8878 -1.0631 -0.7043
17457TIP3   OH273861   6.800   3.312   0.895 -0.1269  0.0559 -0.0546
17457TIP3    H173862   6.723   3.368   0.904 -0.6146 -0.6279  0.1322
17457TIP3    H273863   6.771   3.240   0.840  0.5408  0.0663 -0.4344
17458TIP3   OH273864   2.427   3.399  11.215  0.2119  0.5598 -0.2040
17458TIP3    H173865   2.495   3.398  11.148  0.4238  1.0465  0.0017
17458TIP3    H273866   2.438   3.483  11.260  0.7662 -0.2161  1.1587
17459TIP3   OH273867   5.277   4.784   0.721 -0.1306  0.1452  0.1871
17459TIP3    H173868   5.314   4.778   0.634  0.8799  1.6984  0.4754
17459TIP3    H273869   5.353   4.782   0.780 -0.5618  2.0329  0.8572
17460TIP3   OH273870   6.353   0.306  16.067  0.4059  0.3839 -0.0500
17460TIP3    H173871   6.294   0.268  16.133  0.7676  0.2485  0.1998
17460TIP3    H273872   6.436   0.262  16.082  0.5591  0.5421 -0.4341
17461TIP3   OH273873   0.164   0.380  16.961 -0.4897 -0.6881  0.1698
17461TIP3    H173874   0.157   0.318  16.888  1.1720  1.0718 -1.6424
17461TIP3    H273875   0.161   0.466  16.919 -0.9708  0.4480  2.3810
17462TIP3   OH273876   2.040   4.575   2.546  0.2405  0.6669  0.0660
17462TIP3    H173877   1.953   4.608   2.523 -0.2046 -0.7561 -0.3820
17462TIP3    H273878   2.025   4.486   2.577  1.0409  1.7632  4.1447
17463TIP3   OH273879   0.813   0.009   4.223  0.3301  0.2431  0.2289
17463TIP3    H173880   0.740   0.002   4.161  0.9087  1.2924 -0.5983
17463TIP3    H273881   0.886   0.041   4.171  1.7347 -1.7906  0.8016
17464TIP3   OH273882   3.492   2.915  14.467  0.1414 -0.1306  0.6426
17464TIP3    H173883   3.487   2.954  14.380 -3.0138 -1.0580  0.2548
17464TIP3    H273884   3.553   2.971  14.515  1.3708  0.8697 -1.9015
17465TIP3   OH273885   0.869   6.773   1.264 -0.0581 -0.3410  0.6604
17465TIP3    H173886   0.829   6.686   1.263  0.9145 -0.8174 -1.1082
17465TIP3    H273887   0.873   6.797   1.356 -1.1663 -1.7727  1.1201
17466TIP3   OH273888   1.284   3.733  16.329  0.0301  1.0901  0.1536
17466TIP3    H173889   1.197   3.701  16.354  0.6008 -0.3488  0.3844
17466TIP3    H273890   1.345   3.671  16.369  1.1799  2.1374  0.0791
17467TIP3   OH273891   1.223   5.047  15.593  0.2018  0.2755 -0.4040
17467TIP3    H173892   1.250   5.065  15.683 -0.7003  0.5841 -0.1887
17467TIP3    H273893   1.133   5.078  15.588  0.5658  1.1852 -1.7098
17468TIP3   OH273894   5.931   1.000   3.426 -0.1292  0.3193  0.3802
17468TIP3    H173895   5.839   1.004   3.454 -0.5396 -2.8901 -0.0877
17468TIP3    H273896   5.926   0.990   3.331  0.5430 -1.9751  0.5422
17469TIP3   OH273897   3.418   0.312  12.400  0.7254 -0.4379  0.2591
17469TIP3    H173898   3.340   0.334  12.453  2.2291  1.7049  1.7591
17469TIP3    H273899   3.438   0.393  12.354  2.1177 -0.9455 -0.0491
17470TIP3   OH273900   0.033   2.405  14.154 -0.0230  0.3342  0.5784
17470TIP3    H173901   0.110   2.432  14.205 -0.1390  0.8010  0.5083
17470TIP3    H273902  -0.035   2.388  14.220 -0.4278  1.7447  0.5558
17471TIP3   OH273903   4.874   6.437  17.001 -0.4569  0.6036 -0.3115
17471TIP3    H173904   4.939   6.386  16.953 -0.3876  0.1911  0.2089
17471TIP3    H273905   4.860   6.387  17.082  0.3575  1.9125  0.6722
17472TIP3   OH273906   3.105   1.508  14.275 -0.1349  0.0859 -0.0267
17472TIP3    H173907   3.168   1.572  14.243  0.8656 -1.5169 -1.4323
17472TIP3    H273908   3.146   1.469  14.352 -1.4396  2.1467  1.8438
17473TIP3   OH273909   2.447   4.718   4.616 -0.1710  0.0320 -0.2382
17473TIP3    H173910   2.447   4.647   4.680  2.3761  1.5602  1.7036
17473TIP3    H273911   2.389   4.784   4.654 -2.2278 -0.7384 -1.8483
17474TIP3   OH273912   4.775   4.516   0.880 -0.0550  0.2882  0.9648
17474TIP3    H173913   4.806   4.426   0.893  0.2458  0.0670 -0.9527
17474TIP3    H273914   4.854   4.566   0.857 -0.2997  0.9400  1.5061
17475TIP3   OH273915   2.228   2.304  11.946 -0.1092 -0.0638  0.4714
17475TIP3    H173916   2.219   2.380  12.003 -1.2239 -0.0457  0.2976
17475TIP3    H273917   2.139   2.285  11.916  0.5335  0.5301 -2.0772
17476TIP3   OH273918   3.947   3.998   6.023 -0.0581  0.0661  0.0075
17476TIP3    H173919   4.037   4.004   6.055 -0.3289  0.4601  0.7225
17476TIP3    H273920   3.941   4.067   5.957 -0.5493  1.8456  1.7955
17477TIP3   OH273921   0.597   1.504   4.457 -0.4989 -0.1110 -0.0911
17477TIP3    H173922   0.502   1.492   4.467 -0.4728  0.1347  0.4698
17477TIP3    H273923   0.627   1.531   4.544  0.1011 -0.2805 -0.2444
17478TIP3   OH273924   2.233   2.500  11.699 -0.1281 -0.5800  0.1779
17478TIP3    H173925   2.269   2.496  11.611  3.3583 -0.6822  1.4441
17478TIP3    H273926   2.278   2.429  11.746  0.9989  1.7707  2.9010
17479TIP3   OH273927   2.538   3.252   1.033 -0.2248 -0.1629 -0.1333
17479TIP3    H173928   2.544   3.331   1.086  0.3629 -0.3073  0.0238
17479TIP3    H273929   2.625   3.212   1.039  1.0043  1.5360 -3.8661
17480TIP3   OH273930   0.045   1.330  11.645  0.0456 -0.0667  0.3116
17480TIP3    H173931  -0.010   1.276  11.588  0.4576  0.7645 -0.9187
17480TIP3    H273932  -0.015   1.396  11.681  0.1618  0.7671 -0.9380
17481TIP3   OH273933   0.961   2.590  15.788  0.1666  0.6448 -0.3240
17481TIP3    H173934   0.924   2.587  15.700  0.4542 -1.0499 -0.4231
17481TIP3    H273935   0.929   2.673  15.825 -1.0265  0.7607 -1.5424
17482TIP3   OH273936   2.560   5.698   2.657  0.8530  0.2634  0.5164
17482TIP3    H173937   2.650   5.669   2.673  0.3630 -1.5119  0.2042
17482TIP3    H273938   2.506   5.623   2.681 -0.5266  1.1210  0.1896
17483TIP3   OH273939   5.128   2.528  12.264 -0.1102 -0.4241  0.2602
17483TIP3    H173940   5.053   2.567  12.218  1.3907  1.4700 -0.7095
17483TIP3    H273941   5.090   2.454  12.312 -2.7989  1.1548  0.7681
17484TIP3   OH273942   5.801   4.616   5.635 -0.0124  0.2808 -0.3096
17484TIP3    H173943   5.795   4.690   5.575  0.5758 -1.7141 -3.0422
17484TIP3    H273944   5.849   4.549   5.585 -1.3963 -2.2980  1.5978
17485TIP3   OH273945   4.457   4.964  17.132 -0.4962  0.5044 -0.6325
17485TIP3    H173946   4.502   4.915  17.201  0.4868  0.5487 -1.2238
17485TIP3    H273947   4.407   5.031  17.179  1.1053  1.3092 -0.0066
17486TIP3   OH273948   3.156   2.732  14.240 -0.0202 -0.0524 -0.0065
17486TIP3    H173949   3.183   2.751  14.329 -1.3002  2.2409 -0.0388
17486TIP3    H273950   3.111   2.647  14.246  0.5803 -0.2983  1.3537
17487TIP3   OH273951   4.564   2.424   0.331 -0.1130 -0.6601  0.1745
17487TIP3    H173952   4.492   2.480   0.301  2.0071  1.0195 -2.1714
17487TIP3    H273953   4.578   2.362   0.260  1.6803  0.0013 -0.0911
17488TIP3   OH273954   3.413   3.630  14.606 -0.1121  0.1452 -0.5769
17488TIP3    H173955   3.504   3.600  14.612 -0.5151 -1.2824 -1.0817
17488TIP3    H273956   3.389   3.652  14.695 -0.5115 -3.5003  0.3778
17489TIP3   OH273957   2.273   0.609  10.825 -0.6787 -0.0917  0.3424
17489TIP3    H173958   2.203   0.605  10.761  1.6544  1.0666 -2.5501
17489TIP3    H273959   2.316   0.524  10.819  0.9226  0.7585 -1.5236
17490TIP3   OH273960   2.139   0.027   0.422 -0.5450 -0.3681  0.3687
17490TIP3    H173961   2.179  -0.023   0.351  0.3455 -2.2249  2.0788
17490TIP3    H273962   2.045   0.014   0.410 -0.4053 -0.7094 -0.4371
17491TIP3   OH273963   5.829   2.191  13.034  0.1362 -0.4721 -0.1322
17491TIP3    H173964   5.769   2.119  13.015 -0.3850 -0.1211  0.1596
17491TIP3    H273965   5.818   2.252  12.961 -0.0438 -0.2885  0.0495
17492TIP3   OH273966   6.113   6.246   1.315 -0.2957  0.0789  0.3104
17492TIP3    H173967   6.196   6.244   1.268 -0.6359  0.7363 -0.3482
17492TIP3    H273968   6.054   6.191   1.263 -0.6488  0.7339  0.0090
17493TIP3   OH273969   6.153   1.141   3.219  0.6583  0.0707 -0.1845
17493TIP3    H173970   6.059   1.136   3.238  0.7733 -1.9646  0.0773
17493TIP3    H273971   6.161   1.212   3.155 -1.0489  0.3023 -0.1846
17494TIP3   OH273972   5.242   2.466   3.427 -0.3870 -0.1310 -0.5159
17494TIP3    H173973   5.286   2.447   3.509  1.6974  1.0650 -1.2957
17494TIP3    H273974   5.198   2.550   3.440 -0.9799 -0.4649 -0.3072
17495TIP3   OH273975   1.782   4.841  16.729  0.0585  0.5590 -0.5275
17495TIP3    H173976   1.701   4.791  16.730  1.2239 -1.4866 -1.6679
17495TIP3    H273977   1.819   4.830  16.817  0.0422 -0.1889 -0.6057
17496TIP3   OH273978   3.790   6.162  17.054  0.0353 -0.2106  0.1169
17496TIP3    H173979   3.753   6.094  16.998 -1.4765 -0.8920  1.8510
17496TIP3    H273980   3.826   6.115  17.129 -0.6038  0.8464  1.1289
17497TIP3   OH273981   1.419   4.416  13.652 -0.1124 -0.2012  0.2180
17497TIP3    H173982   1.491   4.434  13.712 -0.8473 -1.0440  1.4164
17497TIP3    H273983   1.373   4.342  13.692 -1.2877 -0.0721 -0.8229
17498TIP3   OH273984   6.436   3.866   6.215 -0.1728  0.1509 -0.5933
17498TIP3    H173985   6.513   3.921   6.228  0.9750 -1.1299 -1.5956
17498TIP3    H273986   6.413   3.835   6.303  0.0761  1.0162 -0.2172
17499TIP3   OH273987   0.962   1.165  17.152  0.1142  0.0562  0.0712
17499TIP3    H173988   1.013   1.236  17.114  0.6800 -1.4373 -2.1745
17499TIP3    H273989   1.008   1.085  17.124 -0.4618 -1.2181  2.5206
17500TIP3   OH273990   6.015   1.277  12.326 -0.6814  0.3860  0.4119
17500TIP3    H173991   6.012   1.183  12.343 -0.5366  0.2944 -0.0654
17500TIP3    H273992   6.097   1.306  12.367 -0.0752  0.0742 -0.5510
17501TIP3   OH273993   5.000   6.027   3.810 -0.4665 -0.2036 -0.0873
17501TIP3    H173994   4.994   6.083   3.733 -0.0569 -0.1507 -0.0809
17501TIP3    H273995   5.062   5.959   3.785 -0.4347 -0.2623  0.1529
17502TIP3   OH273996   2.849   3.255   4.033  0.1584 -0.3417 -0.4903
17502TIP3    H173997   2.895   3.212   3.960  1.2480  0.1739 -0.1376
17502TIP3    H273998   2.756   3.246   4.012  0.4461 -0.3385 -1.8652
17503TIP3   OH273999   0.097   0.969   1.816  0.3567 -0.5415  0.5539
17503TIP3    H174000   0.088   1.002   1.905 -0.2398 -1.2167  0.7528
17503TIP3    H274001   0.053   0.884   1.817 -0.4977 -0.1497 -0.6167
17504TIP3   OH274002   2.487   6.032  13.522 -0.2227  0.7790 -0.1334
17504TIP3    H174003   2.544   6.069  13.590 -0.1273 -0.3945  0.4672
17504TIP3    H274004   2.535   6.045  13.440  1.1269 -0.5214  0.4004
17505TIP3   OH274005   0.162   1.926  15.101  0.3710  0.0061  0.1508
17505TIP3    H174006   0.143   1.833  15.092  2.7742 -0.6524  1.1852
17505TIP3    H274007   0.076   1.968  15.108 -0.7283 -2.2429  0.8723
17506TIP3   OH274008   6.430   1.966   6.018  0.1575  0.0471 -0.7739
17506TIP3    H174009   6.338   1.950   6.041  0.6039 -1.1297  0.3098
17506TIP3    H274010   6.439   2.061   6.019 -0.2904  0.1886  2.5083
17507TIP3   OH274011   4.961   2.576  11.940 -0.3873 -0.0734  0.1323
17507TIP3    H174012   4.919   2.577  11.853 -1.4791 -0.3042  0.6388
17507TIP3    H274013   5.039   2.522  11.927  0.0452  0.7559 -0.9482
17508TIP3   OH274014   4.730   2.803  14.335 -0.0489 -0.2966  0.1422
17508TIP3    H174015   4.757   2.895  14.337  1.6391 -0.6689 -1.9530
17508TIP3    H274016   4.637   2.805  14.356  0.2624  1.7110  1.6519
17509TIP3   OH274017   5.778   3.978   4.518 -0.3985  0.2577  0.3136
17509TIP3    H174018   5.731   4.061   4.505 -2.1507 -0.7923 -0.3114
17509TIP3    H274019   5.752   3.951   4.606 -1.2963 -0.5105 -0.1755
17510TIP3   OH274020   0.740   4.818   3.988 -0.2183  0.7000 -0.1930
17510TIP3    H174021   0.816   4.838   4.043 -0.7655  2.6840 -0.0762
17510TIP3    H274022   0.666   4.815   4.048 -0.9180  3.4691 -0.7691
17511TIP3   OH274023   1.349   1.095  14.732 -0.5108 -0.0067 -0.4330
17511TIP3    H174024   1.384   1.073  14.646 -0.8596  1.5205 -1.0021
17511TIP3    H274025   1.267   1.046  14.738 -0.0955 -0.7394 -0.6235
17512TIP3   OH274026   1.097   1.783  11.319 -0.3549  0.1753  0.2564
17512TIP3    H174027   1.003   1.798  11.326 -0.4363  0.2681 -0.7904
17512TIP3    H274028   1.135   1.870  11.308 -0.3340  0.0259 -1.0072
17513TIP3   OH274029   2.586   2.686   3.057  0.3812 -0.8441  0.0308
17513TIP3    H174030   2.567   2.694   3.150 -0.0559  0.4975 -0.1440
17513TIP3    H274031   2.502   2.664   3.017  0.5079 -1.1403 -0.0719
17514TIP3   OH274032   2.004   0.781   0.430 -0.1505  0.1324  0.3311
17514TIP3    H174033   2.020   0.808   0.340  2.1989 -0.3117  0.5572
17514TIP3    H274034   2.063   0.835   0.483  0.5072 -1.4418  1.3067
17515TIP3   OH274035   1.884   6.473  11.943  0.0470 -0.3066 -0.1237
17515TIP3    H174036   1.933   6.541  11.988 -1.8951  2.0859 -1.4048
17515TIP3    H274037   1.801   6.469  11.989 -0.6173 -0.3392 -1.2848
17516TIP3   OH274038   3.591   1.385  11.368 -1.2223  0.0667 -0.2720
17516TIP3    H174039   3.575   1.340  11.451 -1.3718 -1.4873 -1.1073
17516TIP3    H274040   3.512   1.438  11.354 -1.4885 -0.1847  0.2494
17517TIP3   OH274041   2.142   1.660  14.588  0.3727  0.9247 -0.0664
17517TIP3    H174042   2.118   1.641  14.679  0.2264 -0.2713 -0.3416
17517TIP3    H274043   2.063   1.697  14.549  0.1225  0.4783  0.0187
17518TIP3   OH274044   1.705   2.100  12.427  0.0022  0.3781 -0.3625
17518TIP3    H174045   1.778   2.078  12.485  0.9072  1.7543 -0.9270
17518TIP3    H274046   1.692   2.021  12.374  0.1459 -0.3724  0.6918
17519TIP3   OH274047   0.972   5.149   0.254 -0.2680  0.2622 -0.1928
17519TIP3    H174048   1.044   5.133   0.316 -0.7267 -0.8047  0.0963
17519TIP3    H274049   0.900   5.182   0.309 -0.4090  0.0955 -0.2746
17520TIP3   OH274050   6.814   2.939  16.186 -0.0606 -0.4500 -0.6071
17520TIP3    H174051   6.810   2.911  16.095  0.1990  0.3850 -0.8852
17520TIP3    H274052   6.764   3.021  16.188  1.9781  0.8647 -0.5352
17521TIP3   OH274053   3.657   2.635   4.273 -0.4033 -0.5693  0.2165
17521TIP3    H174054   3.641   2.541   4.265  0.5897 -0.6597 -1.1300
17521TIP3    H274055   3.726   2.653   4.209 -0.1445  0.9734  0.8772
17522TIP3   OH274056   1.464   2.037  11.829 -0.1224  0.0654 -0.1664
17522TIP3    H174057   1.515   1.983  11.889 -1.7188 -2.0453 -0.5608
17522TIP3    H274058   1.375   2.035  11.865 -0.3771  1.8742 -0.6082
17523TIP3   OH274059   1.901   4.836   1.833  1.2000 -0.5013  0.0795
17523TIP3    H174060   1.884   4.742   1.828  1.8437 -0.5867 -0.6667
17523TIP3    H274061   1.947   4.857   1.752 -1.0192  0.9186 -0.9286
17524TIP3   OH274062   4.416   0.163  11.940 -0.3283 -0.6544 -0.5594
17524TIP3    H174063   4.393   0.196  12.027 -0.5980  0.2594 -0.9663
17524TIP3    H274064   4.453   0.238  11.895 -0.9549 -0.8996 -1.5179
17525TIP3   OH274065   1.871   4.277  11.895 -0.0436  0.1953  0.0518
17525TIP3    H174066   1.838   4.353  11.848 -0.8360 -0.8820 -1.2165
17525TIP3    H274067   1.918   4.226  11.828  2.2267  0.5245  1.2904
17526TIP3   OH274068   2.681   3.137   2.361 -0.4128  0.3695 -0.5527
17526TIP3    H174069   2.647   3.169   2.278 -1.6983 -1.3403 -0.7364
17526TIP3    H274070   2.690   3.042   2.349 -1.3030 -0.0299  1.4405
17527TIP3   OH274071   3.205   0.535   2.020  0.6848  0.1302  0.0139
17527TIP3    H174072   3.220   0.625   2.047  2.1429  0.0506 -0.4769
17527TIP3    H274073   3.202   0.485   2.102  2.5610  0.2552  0.1938
17528TIP3   OH274074   3.299   6.423   3.572 -0.2262 -0.2056  0.7376
17528TIP3    H174075   3.377   6.455   3.527 -0.8598  0.4275  0.0602
17528TIP3    H274076   3.316   6.330   3.586 -0.9550 -1.0869 -3.0462
17529TIP3   OH274077   6.741   2.711  10.915 -0.5903 -0.0692  0.3848
17529TIP3    H174078   6.682   2.649  10.958 -1.0203  0.8118  1.1099
17529TIP3    H274079   6.722   2.703  10.822  0.3831 -2.0551  0.3167
17530TIP3   OH274080   0.413   2.681  14.110  0.2429  0.0459  0.0724
17530TIP3    H174081   0.364   2.600  14.094 -0.2721  0.2315  0.6495
17530TIP3    H274082   0.346   2.743  14.140  0.7606  0.4583  0.3849
17531TIP3   OH274083   2.706   6.625   4.019 -0.5370  0.3651  0.3531
17531TIP3    H174084   2.658   6.542   4.013 -2.1049  1.0374  2.4798
17531TIP3    H274085   2.695   6.664   3.932 -0.2059 -1.3906 -0.5219
17532TIP3   OH274086   3.497   2.847   5.866  0.2760  0.3362 -0.5256
17532TIP3    H174087   3.572   2.832   5.808  0.4493  0.9256 -0.4577
17532TIP3    H274088   3.422   2.850   5.808  0.4694  1.0915 -0.7449
17533TIP3   OH274089   1.920   2.055   1.536 -0.3854 -0.2072 -0.5427
17533TIP3    H174090   1.919   1.989   1.605  2.3887 -0.2077 -0.4033
17533TIP3    H274091   1.829   2.060   1.506 -1.1794 -2.0494  1.3323
17534TIP3   OH274092   5.231   4.554  17.066 -0.6056  0.0010 -0.3624
17534TIP3    H174093   5.167   4.608  17.113  0.1973  0.0072  0.7648
17534TIP3    H274094   5.269   4.613  17.001 -0.6877  0.4230 -0.0331
17535TIP3   OH274095   0.100   1.493  11.908  0.7791 -0.3452  0.1500
17535TIP3    H174096   0.054   1.416  11.940 -0.8035 -0.1385 -1.4405
17535TIP3    H274097   0.099   1.555  11.981 -3.5054  0.4782 -0.2985
17536TIP3   OH274098   3.316   6.551  13.591  0.4124  0.1256 -0.5674
17536TIP3    H174099   3.342   6.551  13.499 -0.4226 -0.6904 -0.8152
17536TIP3    H274100   3.307   6.644  13.613  1.9347  0.3821 -0.9099
17537TIP3   OH274101   4.840   3.433   2.437 -0.2289  0.2235  0.1927
17537TIP3    H174102   4.783   3.510   2.429 -0.3200  0.1708  0.3333
17537TIP3    H274103   4.810   3.390   2.517 -1.2173 -0.8134 -0.7014
17538TIP3   OH274104   6.773   1.329   1.733  0.0102  0.2501  0.1911
17538TIP3    H174105   6.755   1.379   1.813 -0.9662 -1.9994  1.4758
17538TIP3    H274106   6.868   1.329   1.725  0.1869 -0.4304  2.0163
17539TIP3   OH274107   4.927   5.273  11.049  0.1891  0.1691 -0.5154
17539TIP3    H174108   4.976   5.244  10.972  0.0124 -3.4411  0.5285
17539TIP3    H274109   4.993   5.280  11.118 -0.0999 -0.2429 -0.1833
17540TIP3   OH274110   1.845   6.494  13.053  0.2465  0.4748 -0.5062
17540TIP3    H174111   1.936   6.520  13.043  0.9111 -0.8846  1.5314
17540TIP3    H274112   1.822   6.518  13.143 -0.4288 -1.8817  0.0215
17541TIP3   OH274113   5.268   4.479   1.788 -0.2870 -0.2851 -0.1143
17541TIP3    H174114   5.299   4.562   1.823  0.0703 -0.6240  0.3852
17541TIP3    H274115   5.173   4.481   1.802 -0.2970  0.0919 -0.2260
17542TIP3   OH274116   4.368   5.776  13.978 -0.3290 -0.4464 -0.3756
17542TIP3    H174117   4.378   5.779  13.883 -2.5213  1.0104 -0.6198
17542TIP3    H274118   4.274   5.786  13.993 -0.2432 -2.1982  1.9327
17543TIP3   OH274119   5.368   5.039   4.427  0.1124  0.9084 -0.3994
17543TIP3    H174120   5.419   5.092   4.488  1.3661 -0.4405 -0.2225
17543TIP3    H274121   5.427   5.025   4.353 -0.1576 -0.3149 -0.3918
17544TIP3   OH274122   3.726   4.920  12.560 -0.4240 -0.6585 -0.2809
17544TIP3    H174123   3.813   4.910  12.523  0.4505  1.3408  1.1056
17544TIP3    H274124   3.688   4.995  12.514 -1.3095 -1.2910 -0.6234
17545TIP3   OH274125   6.356   2.795   0.822  0.0282 -0.1916 -0.4522
17545TIP3    H174126   6.359   2.847   0.901 -3.6505  2.2816 -1.7176
17545TIP3    H274127   6.301   2.720   0.844 -0.2286  0.0036 -0.4357
17546TIP3   OH274128   3.409   5.460  15.576  0.8849 -0.1967  0.0348
17546TIP3    H174129   3.425   5.534  15.518 -1.3161 -0.1938 -0.6515
17546TIP3    H274130   3.462   5.389  15.539  0.3082  0.0847 -1.4109
17547TIP3   OH274131   1.603   1.396  12.402 -0.4337  0.1559  0.5725
17547TIP3    H174132   1.577   1.307  12.377 -1.6229 -0.1431  2.6385
17547TIP3    H274133   1.688   1.385  12.446  0.0609  0.2383 -0.3469
17548TIP3   OH274134   5.122   0.066  11.274  0.0661  0.3847 -0.2884
17548TIP3    H174135   5.166   0.005  11.214 -1.9702  0.9148 -2.4860
17548TIP3    H274136   5.082   0.131  11.216 -1.5151  1.2780  1.7089
17549TIP3   OH274137   4.285   5.494   0.226 -0.6597  0.5703 -0.4419
17549TIP3    H174138   4.249   5.573   0.184  1.6091  2.5497  1.1038
17549TIP3    H274139   4.360   5.470   0.171  1.6844  2.5568  1.6439
17550TIP3   OH274140   2.381   0.794   1.558 -0.1858  0.3431  0.0320
17550TIP3    H174141   2.401   0.847   1.635 -1.6862  1.0062  0.0130
17550TIP3    H274142   2.407   0.705   1.582 -0.1644  0.6316  1.1200
17551TIP3   OH274143   0.713   4.178  15.325 -0.2935  0.3884  0.4913
17551TIP3    H174144   0.644   4.184  15.390 -0.9228  1.7463 -0.2702
17551TIP3    H274145   0.685   4.107  15.266 -0.7543  0.5523  0.5112
17552TIP3   OH274146   6.316   1.213   3.451  0.3750 -0.1676  0.4887
17552TIP3    H174147   6.385   1.160   3.492  0.6964 -0.0271  0.1379
17552TIP3    H274148   6.282   1.157   3.381  2.2800  0.8979 -1.4025
17553TIP3   OH274149   1.996   1.109   2.149  0.7107  0.3999 -0.3572
17553TIP3    H174150   2.089   1.121   2.133  0.7259  1.4966  0.4585
17553TIP3    H274151   1.991   1.039   2.214  0.9271  0.0161 -0.7458
17554TIP3   OH274152   1.825   0.418  11.846  0.5959  0.2276 -0.4732
17554TIP3    H174153   1.758   0.391  11.783  0.9899 -0.4439 -0.6177
17554TIP3    H274154   1.785   0.401  11.932 -0.3302  2.0836 -0.4880
17555TIP3   OH274155   6.012   0.431  14.418 -0.3037  0.3221  0.0956
17555TIP3    H174156   6.024   0.408  14.510  1.0956  0.4435 -0.0384
17555TIP3    H274157   6.027   0.526  14.415 -0.8220  0.3992 -0.1858
17556TIP3   OH274158   6.676   3.088   2.520 -0.7272 -0.0984  0.0202
17556TIP3    H174159   6.717   3.087   2.434  1.4414  0.9547  0.9642
17556TIP3    H274160   6.625   3.169   2.522  0.0490  0.3994  0.0571
17557TIP3   OH274161   4.758   0.052  14.478 -0.1637  0.3367 -0.1212
17557TIP3    H174162   4.773   0.047  14.384  1.1749 -0.5386  0.1151
17557TIP3    H274163   4.695   0.123  14.488  0.0249  0.7560 -1.6285
17558TIP3   OH274164   1.637   5.835   5.061  0.4613  0.8966  0.3379
17558TIP3    H174165   1.542   5.831   5.074 -0.2193 -2.3920 -3.4389
17558TIP3    H274166   1.662   5.744   5.048  4.5793  1.4586  2.8889
17559TIP3   OH274167   2.790   5.945   5.119 -0.4929  0.2098 -0.1998
17559TIP3    H174168   2.725   5.877   5.133 -1.3564  0.4797 -2.3670
17559TIP3    H274169   2.764   6.017   5.177 -0.3607 -0.7580  1.0961
17560TIP3   OH274170   3.737   1.327  16.589  0.3831 -0.6881  0.5741
17560TIP3    H174171   3.808   1.317  16.525  1.0949  2.0280  0.7961
17560TIP3    H274172   3.675   1.258  16.568  1.7123 -1.3320 -1.5230
17561TIP3   OH274173   5.856   5.583  17.049 -0.3559  0.0162 -0.2352
17561TIP3    H174174   5.778   5.566  17.103  0.5704 -1.9126  0.5798
17561TIP3    H274175   5.905   5.501  17.052  2.0391  1.3764 -0.2210
17562TIP3   OH274176   6.168   4.283   1.762 -0.0736 -0.3564  0.2345
17562TIP3    H174177   6.206   4.370   1.775 -0.9594  0.1678 -0.5777
17562TIP3    H274178   6.187   4.261   1.671  0.5787 -1.2424  0.5735
17563TIP3   OH274179   0.905   3.629   4.379 -0.1146  0.3066 -0.4384
17563TIP3    H174180   0.845   3.682   4.432  0.5869  0.4362  0.2381
17563TIP3    H274181   0.865   3.542   4.377 -1.2749  0.8207 -1.5456
17564TIP3   OH274182   1.263   0.137  10.843  0.5470  0.0889 -0.0216
17564TIP3    H174183   1.239   0.227  10.820 -0.6011  0.2871  1.7500
17564TIP3    H274184   1.216   0.082  10.781 -0.9916  0.6482  0.6097
17565TIP3   OH274185   4.990   3.804   5.597  0.1674 -0.1719 -0.0674
17565TIP3    H174186   4.967   3.897   5.606  0.3415 -0.1272 -0.0822
17565TIP3    H274187   5.069   3.794   5.649  0.9158 -0.0154 -1.1329
17566TIP3   OH274188   4.278   4.514   4.273  0.0887  0.3017  0.6943
17566TIP3    H174189   4.348   4.453   4.297  1.0190  0.0961 -2.1524
17566TIP3    H274190   4.216   4.509   4.345  1.5934 -1.7237  1.9636
17567TIP3   OH274191   5.392   1.650  12.559 -0.3214 -0.6074  0.5145
17567TIP3    H174192   5.373   1.594  12.484  0.1284  0.0305 -0.0911
17567TIP3    H274193   5.375   1.739  12.527  2.1957 -0.0903  0.3506
17568TIP3   OH274194   5.033   4.556  12.361  0.5575  0.0223  0.1252
17568TIP3    H174195   5.115   4.510  12.382  0.4175  0.3017  1.3649
17568TIP3    H274196   4.971   4.527  12.428  0.3107  1.5755  0.6138
17569TIP3   OH274197   5.357   1.462   6.026 -0.3540 -0.2241  0.0685
17569TIP3    H174198   5.312   1.391   6.073  1.6516 -0.7553  1.2874
17569TIP3    H274199   5.434   1.420   5.988 -0.9244  0.6298 -2.1442
17570TIP3   OH274200   5.498   2.623   5.565 -0.0738 -0.4638 -0.0443
17570TIP3    H174201   5.588   2.588   5.568  2.0563  4.2673  0.5104
17570TIP3    H274202   5.459   2.595   5.647  1.3390 -1.5753  0.2922
17571TIP3   OH274203   3.234   5.756   3.697 -0.6552 -1.2061  0.4247
17571TIP3    H174204   3.191   5.795   3.773  1.5877 -0.3931  1.3807
17571TIP3    H274205   3.163   5.734   3.637 -2.3012  1.8763  1.0143
17572TIP3   OH274206   5.285   2.818  12.718 -0.1331  0.2143  0.1201
17572TIP3    H174207   5.226   2.743  12.718  0.4113 -0.2705 -1.5900
17572TIP3    H274208   5.360   2.789  12.770 -0.1071 -0.2839 -0.1857
17573TIP3   OH274209   0.276   5.121   0.019  0.3144 -0.2130  0.2063
17573TIP3    H174210   0.311   5.105   0.106 -1.5335  0.0307  1.0317
17573TIP3    H274211   0.286   5.037  -0.027 -0.0359 -0.7825  1.1453
17574TIP3   OH274212   4.719   0.842   5.842 -0.6065 -0.8241  0.3063
17574TIP3    H174213   4.801   0.792   5.845 -0.1777 -0.1025  1.7236
17574TIP3    H274214   4.728   0.905   5.913 -1.6143  0.5236 -0.7261
17575TIP3   OH274215   4.277   2.966  13.119  1.0462 -0.2134  0.0173
17575TIP3    H174216   4.220   2.981  13.044 -1.8069 -2.1227  1.6034
17575TIP3    H274217   4.329   2.890  13.095  0.3963 -0.6078 -0.1650
17576TIP3   OH274218   3.550   4.665  12.619  0.1661 -0.3235 -0.3583
17576TIP3    H174219   3.565   4.742  12.674  0.4277 -1.7572  1.7041
17576TIP3    H274220   3.456   4.668  12.599 -0.3064 -0.5561  1.5710
17577TIP3   OH274221   2.530   0.311  16.866  0.0735  0.4790  0.2782
17577TIP3    H174222   2.582   0.295  16.788  0.1198 -0.0294  0.4076
17577TIP3    H274223   2.442   0.280  16.844 -0.3646  1.9491 -0.1697
17578TIP3   OH274224   0.377   6.395   0.675  0.7002 -0.3012 -1.0548
17578TIP3    H174225   0.330   6.375   0.756  0.5723  3.2822 -0.0505
17578TIP3    H274226   0.328   6.350   0.607 -0.2227 -2.0259  0.6575
17579TIP3   OH274227   3.820   0.103  14.921  0.2285 -0.1494 -0.3644
17579TIP3    H174228   3.867   0.159  14.859  0.9479 -0.3027  0.0238
17579TIP3    H274229   3.830   0.149  15.005  0.9073 -0.8978 -0.0247
17580TIP3   OH274230   0.562   1.135   1.894  0.5936 -0.1112  0.1001
17580TIP3    H174231   0.632   1.153   1.831  0.5986 -1.4890 -0.3233
17580TIP3    H274232   0.487   1.111   1.840  0.1819  0.0534  0.5889
17581TIP3   OH274233   6.578   4.860   5.638 -0.0629 -0.2163 -0.3790
17581TIP3    H174234   6.668   4.833   5.618  0.3004  0.4230  0.3432
17581TIP3    H274235   6.530   4.777   5.646  0.4141 -0.5567 -0.9491
17582TIP3   OH274236   3.636   3.809   3.258 -0.1190  0.0038 -0.2580
17582TIP3    H174237   3.596   3.772   3.337 -1.1495  1.5704 -0.0033
17582TIP3    H274238   3.694   3.740   3.225 -0.5886 -1.1150  1.1935
17583TIP3   OH274239   3.662   1.089   2.132 -0.5302 -0.5313 -0.0933
17583TIP3    H174240   3.603   1.017   2.107 -0.7632 -0.4274  0.1497
17583TIP3    H274241   3.749   1.050   2.129 -0.8265 -1.6052  2.6370
17584TIP3   OH274242   6.290   0.101   2.848  0.3179  0.4772 -0.5380
17584TIP3    H174243   6.301   0.056   2.932 -1.4009 -0.5236 -0.7971
17584TIP3    H274244   6.244   0.182   2.870 -0.3902  0.0805 -0.5271
17585TIP3   OH274245   0.436   2.510  11.724  0.3794  0.1444 -0.1064
17585TIP3    H174246   0.453   2.416  11.717 -0.2808  0.0301 -0.2910
17585TIP3    H274247   0.487   2.549  11.653 -1.1529 -0.3315 -1.5624
17586TIP3   OH274248   3.656   2.003   0.511 -0.2084 -0.2541 -0.0061
17586TIP3    H174249   3.713   2.061   0.460 -1.4074  0.3022 -0.7494
17586TIP3    H274250   3.593   1.969   0.448 -0.0580 -1.7212  0.5892
17587TIP3   OH274251   4.557   2.743   1.039 -0.8640  0.5702  0.0300
17587TIP3    H174252   4.539   2.677   0.972  4.9774 -3.3002  1.5667
17587TIP3    H274253   4.547   2.696   1.122 -0.5082  2.9698  1.5258
17588TIP3   OH274254   1.146   1.223   1.564  0.4979 -0.8829  0.5648
17588TIP3    H174255   1.153   1.137   1.521 -3.0854 -1.9079  1.6125
17588TIP3    H274256   1.117   1.282   1.494  0.5656 -1.1161  0.3379
17589TIP3   OH274257   5.895   3.648   5.132 -0.1371 -0.7025 -0.6483
17589TIP3    H174258   5.860   3.672   5.218  1.2147 -1.3579  0.1296
17589TIP3    H274259   5.823   3.604   5.088 -0.9487 -0.0861  0.0309
17590TIP3   OH274260   3.523   6.564  15.527 -1.0090 -0.2474  0.0677
17590TIP3    H174261   3.495   6.610  15.606 -1.2982  0.6597 -0.5467
17590TIP3    H274262   3.514   6.629  15.457 -1.3703 -1.2227 -0.8194
17591TIP3   OH274263   1.356   3.443  12.490  0.6464 -0.4349  0.1776
17591TIP3    H174264   1.323   3.442  12.580  0.8984  2.1253  0.3731
17591TIP3    H274265   1.407   3.363  12.482 -0.2269 -1.2247  1.9679
17592TIP3   OH274266   1.180   2.428   2.023  0.6613  0.1382  0.0470
17592TIP3    H174267   1.178   2.503   1.963 -1.1927 -0.0574 -0.1841
17592TIP3    H274268   1.095   2.431   2.067  0.5528 -1.8236  0.0311
17593TIP3   OH274269   4.876   0.585  12.903 -0.1920  0.0693  0.4652
17593TIP3    H174270   4.889   0.559  12.995  1.8583  1.8484  0.7498
17593TIP3    H274271   4.925   0.520  12.853 -1.0092 -0.6864  0.6029
17594TIP3   OH274272   5.668   0.396  11.803  0.3673  1.1015 -0.2543
17594TIP3    H174273   5.580   0.370  11.777  0.8060 -0.0124 -0.6790
17594TIP3    H274274   5.664   0.492  11.808 -1.0242  1.0380  0.3498
17595TIP3   OH274275   1.982   4.140  12.567 -0.1647  0.9900  0.0281
17595TIP3    H174276   2.045   4.086  12.614 -0.8839  1.1525  1.2028
17595TIP3    H274277   2.009   4.230  12.584  1.0762  1.0641 -1.9837
17596TIP3   OH274278   2.768   6.045   0.358 -1.5155 -0.3179 -0.5520
17596TIP3    H174279   2.752   6.083   0.445  0.6257 -0.8236  0.1220
17596TIP3    H274280   2.771   5.951   0.373  1.2685 -0.3247 -0.6434
17597TIP3   OH274281   0.979   1.609   3.917 -0.5136  0.1137 -0.1378
17597TIP3    H174282   0.966   1.659   3.836  0.3504 -0.7787 -0.8481
17597TIP3    H274283   1.065   1.636   3.948 -0.8161  0.4061  0.4600
17598TIP3   OH274284   4.564   3.221   5.165 -0.2839  0.4356 -0.2844
17598TIP3    H174285   4.503   3.153   5.138 -1.5942  1.0457  1.0212
17598TIP3    H274286   4.580   3.272   5.085 -1.7535  0.4610 -0.5844
17599TIP3   OH274287   3.525   4.790  16.649  0.7193  0.0565 -0.2516
17599TIP3    H174288   3.499   4.744  16.569  1.3432  0.2647 -0.5762
17599TIP3    H274289   3.543   4.721  16.712 -3.2139 -0.1526  0.8961
17600TIP3   OH274290   1.367   3.620   3.102  0.5890  0.1887  0.0624
17600TIP3    H174291   1.313   3.635   3.180  0.0070 -1.2510 -0.0420
17600TIP3    H274292   1.448   3.583   3.136 -0.4739 -2.5131 -0.0857
17601TIP3   OH274293   3.405   3.898   4.709 -0.3419 -0.2953 -0.3820
17601TIP3    H174294   3.355   3.934   4.636  0.3840 -0.1514 -0.8217
17601TIP3    H274295   3.435   3.812   4.677  1.3195  0.4305 -0.8890
17602TIP3   OH274296   2.567   2.827  14.325 -0.9718 -0.2914 -0.0421
17602TIP3    H174297   2.515   2.792  14.397  0.2342 -0.6464  0.6945
17602TIP3    H274298   2.547   2.771  14.251 -1.2300 -0.7577  0.3716
17603TIP3   OH274299   5.157   5.121  12.878 -0.4964 -0.1368  0.5008
17603TIP3    H174300   5.134   5.211  12.898 -1.3980 -0.7913  2.6396
17603TIP3    H274301   5.083   5.088  12.827  0.1352  0.4712 -0.8715
17604TIP3   OH274302   2.487   2.519  16.150  0.2614 -0.8857  0.6020
17604TIP3    H174303   2.504   2.608  16.119  0.4820 -1.5202 -1.2380
17604TIP3    H274304   2.564   2.498  16.204  0.7175 -0.3348  0.1803
17605TIP3   OH274305   3.251   5.360   2.212 -0.0274  0.0461  0.4522
17605TIP3    H174306   3.284   5.419   2.144  0.2237  0.8862  1.2824
17605TIP3    H274307   3.165   5.332   2.180  0.5898 -0.5618 -0.7846
17606TIP3   OH274308   0.557   4.432   5.067  0.4554  0.2001 -0.3435
17606TIP3    H174309   0.640   4.430   5.114  0.0391  0.9933  0.4449
17606TIP3    H274310   0.511   4.353   5.094  1.2029 -0.5851 -1.2847
17607TIP3   OH274311   5.067   5.797  13.498 -0.1169 -0.6660 -0.1201
17607TIP3    H174312   5.019   5.866  13.453  1.4128 -0.0790 -0.9357
17607TIP3    H274313   5.102   5.742  13.427 -0.1479 -1.4661  0.4712
17608TIP3   OH274314   3.370   2.586   2.222  0.7424  0.0061  0.5197
17608TIP3    H174315   3.332   2.654   2.166  0.7458  1.7075  2.4427
17608TIP3    H274316   3.311   2.511   2.213 -0.6180  1.0792  0.0996
17609TIP3   OH274317   0.737   1.538  12.285  0.7290  0.4581  0.0641
17609TIP3    H174318   0.653   1.574  12.314  1.1285  1.8891 -0.4889
17609TIP3    H274319   0.713   1.466  12.226 -0.0970 -1.4230  2.5046
17610TIP3   OH274320   0.263   1.966  16.317  0.5247 -0.8505  0.3654
17610TIP3    H174321   0.222   1.879  16.312 -0.3986 -0.4040 -0.0150
17610TIP3    H274322   0.347   1.950  16.359  0.4259 -1.9565  0.1720
17611TIP3   OH274323   0.889   2.377  16.555  0.3894 -0.5760 -0.0530
17611TIP3    H174324   0.943   2.426  16.618  2.9055 -1.5715 -1.2827
17611TIP3    H274325   0.864   2.443  16.490 -2.3914  0.5076  1.8935
17612TIP3   OH274326   3.149   1.612   2.423 -0.0746  0.1510 -0.1380
17612TIP3    H174327   3.116   1.587   2.336  0.4428 -0.3618 -0.1871
17612TIP3    H274328   3.240   1.583   2.424  0.1625  0.8748  0.2862
17613TIP3   OH274329   4.731   3.824  14.584 -0.1809  0.4834 -0.2542
17613TIP3    H174330   4.683   3.907  14.591  0.1739  0.5737  2.2616
17613TIP3    H274331   4.823   3.851  14.579 -0.1757  0.2478 -1.8927
17614TIP3   OH274332   2.214   2.377  12.911 -0.0992  0.2663 -0.1051
17614TIP3    H174333   2.289   2.319  12.925 -1.1756 -1.1446 -0.0778
17614TIP3    H274334   2.228   2.449  12.973  1.8132  0.6432 -0.8869
17615TIP3   OH274335   0.890   0.627   1.758  0.1014  1.3690  0.0915
17615TIP3    H174336   0.903   0.591   1.845  1.0941 -1.5322 -1.1422
17615TIP3    H274337   0.967   0.682   1.742 -0.0019  1.7696  0.9443
17616TIP3   OH274338   4.940   1.699   2.037 -0.3281  0.8238 -0.3633
17616TIP3    H174339   5.012   1.762   2.034 -0.2696  0.9620  1.9719
17616TIP3    H274340   4.868   1.748   2.078 -0.6486 -0.2922  0.4339
17617TIP3   OH274341   5.765   3.245  11.997 -0.7914  0.0652  0.0644
17617TIP3    H174342   5.839   3.187  12.013 -0.4560  0.6855  0.8632
17617TIP3    H274343   5.699   3.189  11.956  0.4621 -0.2804 -1.6033
17618TIP3   OH274344   6.786   5.008  11.395 -0.0222  0.0869 -0.3235
17618TIP3    H174345   6.726   4.961  11.337  0.6547 -1.0178 -0.1583
17618TIP3    H274346   6.851   4.943  11.421  0.9142  1.1044 -0.0133
17619TIP3   OH274347   6.392   3.600  11.469 -0.0399 -0.2979 -0.1102
17619TIP3    H174348   6.328   3.629  11.534 -0.7288 -0.2959 -0.7807
17619TIP3    H274349   6.388   3.667  11.400  0.7296 -0.2616 -0.1255
17620TIP3   OH274350   5.218   5.885  16.153  0.0800 -0.1576  0.2368
17620TIP3    H174351   5.274   5.902  16.229 -0.3251 -0.8940  0.7062
17620TIP3    H274352   5.163   5.962  16.146 -0.6038 -0.5284  1.3393
17621TIP3   OH274353   0.222   2.424   1.475  0.0261  0.4679  0.2599
17621TIP3    H174354   0.243   2.337   1.510  1.8330  1.5562  2.1315
17621TIP3    H274355   0.277   2.432   1.398  0.0599  0.0661  0.2372
17622TIP3   OH274356   0.210   2.491  14.347 -0.0052  0.0640  0.3704
17622TIP3    H174357   0.297   2.487  14.388 -0.2225  0.5703  0.8938
17622TIP3    H274358   0.165   2.563  14.392  0.4064  1.9738 -2.0108
17623TIP3   OH274359   6.695   5.614  15.202  0.2263  0.1233 -0.6100
17623TIP3    H174360   6.619   5.556  15.201  0.7807 -0.6403  0.3181
17623TIP3    H274361   6.675   5.681  15.267  0.2085  0.1077 -0.5999
17624TIP3   OH274362   0.087   1.157   2.919  0.7368 -0.4703 -0.0459
17624TIP3    H174363  -0.004   1.137   2.938  0.7769 -0.3281  0.3036
17624TIP3    H274364   0.133   1.140   3.001  1.0703 -0.8340 -0.3079
17625TIP3   OH274365   4.189   6.789  15.591  0.2030  0.8945  0.4284
17625TIP3    H174366   4.118   6.724  15.584 -0.3935  1.6294 -0.7046
17625TIP3    H274367   4.266   6.744  15.555  0.6268 -0.2710  2.6073
17626TIP3   OH274368   6.138   0.378   1.813  0.5403  0.2622  0.4470
17626TIP3    H174369   6.059   0.326   1.802  0.4367  0.4264  0.4083
17626TIP3    H274370   6.138   0.438   1.737  1.1366 -0.2994 -0.0060
17627TIP3   OH274371   4.566   4.273  14.762 -0.1318 -0.1600 -0.0553
17627TIP3    H174372   4.649   4.255  14.717 -0.8451 -1.0027 -1.0996
17627TIP3    H274373   4.507   4.205  14.729 -1.7305  1.4656 -0.6922
17628TIP3   OH274374   4.534   0.035  11.216 -0.1715 -0.3740  1.5519
17628TIP3    H174375   4.552   0.123  11.249 -1.9428  0.4688  0.4855
17628TIP3    H274376   4.547   0.042  11.121  0.6944 -1.5722  1.5603
17629TIP3   OH274377   1.274   5.188   0.121 -0.2049  0.1453  0.4436
17629TIP3    H174378   1.260   5.256   0.187 -0.8256  0.7487 -0.2832
17629TIP3    H274379   1.292   5.109   0.171 -1.1230  0.4893  1.3429
17630TIP3   OH274380   3.411   6.738   3.885  0.2122 -0.5033 -0.3058
17630TIP3    H174381   3.498   6.697   3.893 -0.0002 -1.2436 -1.6033
17630TIP3    H274382   3.350   6.668   3.904 -0.1268 -0.0191  0.4404
17631TIP3   OH274383   2.963   6.363   5.362 -0.2611  0.8872  0.2396
17631TIP3    H174384   2.878   6.333   5.331  0.0128  0.1425  0.2036
17631TIP3    H274385   2.957   6.357   5.458  0.0515 -0.0191  0.2107
17632TIP3   OH274386   6.642   4.988  15.131  0.2708 -0.4639 -0.4458
17632TIP3    H174387   6.732   4.957  15.144  1.0418 -0.1260 -3.8795
17632TIP3    H274388   6.587   4.913  15.152  1.5421 -1.4514 -0.5485
17633TIP3   OH274389   2.397   4.942   5.800  0.0114 -0.7802 -0.4713
17633TIP3    H174390   2.366   4.999   5.871  1.7569 -0.8999  0.4508
17633TIP3    H274391   2.404   4.999   5.724  1.0114  0.1104  0.2532
17634TIP3   OH274392   2.906   1.765   1.123  0.4044  0.0922 -0.3193
17634TIP3    H174393   2.972   1.707   1.161 -0.8272 -1.3154 -0.2190
17634TIP3    H274394   2.845   1.781   1.195 -0.3114 -0.1019 -0.8657
17635TIP3   OH274395   0.915   5.343  16.051  0.0851 -0.7388  0.4367
17635TIP3    H174396   0.861   5.289  16.109 -0.1172 -2.3627 -1.1470
17635TIP3    H274397   0.971   5.279  16.005  0.6376  0.5211 -0.7173
17636TIP3   OH274398   4.756   6.155   2.204  0.7069  0.3603 -0.0347
17636TIP3    H174399   4.720   6.241   2.182  1.0563 -0.0661 -2.5707
17636TIP3    H274400   4.812   6.172   2.280  0.9699  2.4556 -0.6111
17637TIP3   OH274401   4.775   4.391   4.866  0.6936  0.2861 -0.6871
17637TIP3    H174402   4.802   4.436   4.786  2.7905  0.8055  0.2413
17637TIP3    H274403   4.857   4.371   4.910 -0.4294  1.6007  2.2154
17638TIP3   OH274404   2.522   3.311  12.102 -0.4685  0.1074  0.5218
17638TIP3    H174405   2.434   3.309  12.139 -0.3455  1.2639  0.9027
17638TIP3    H274406   2.530   3.397  12.062 -0.1854 -0.6917 -1.2293
17639TIP3   OH274407   5.561   2.739   1.510 -0.1629 -0.7015  0.5407
17639TIP3    H174408   5.654   2.723   1.521 -0.1932  0.4520  2.9723
17639TIP3    H274409   5.519   2.659   1.542 -0.0454 -0.8315  0.3743
17640TIP3   OH274410   5.444   1.864   5.939  0.0368 -0.0248  0.0490
17640TIP3    H174411   5.452   1.802   5.866  1.6560 -0.0360  0.2109
17640TIP3    H274412   5.474   1.816   6.016 -0.7485  0.2954  0.5721
17641TIP3   OH274413   4.301   5.049  11.473  0.4557 -0.0608  0.2006
17641TIP3    H174414   4.213   5.011  11.472  0.3318  0.2333 -0.9365
17641TIP3    H274415   4.351   4.992  11.533 -0.5809 -0.0218  1.1327
17642TIP3   OH274416   1.238   0.652   2.760 -0.2875 -0.4830  0.1974
17642TIP3    H174417   1.182   0.641   2.837  0.4580 -1.8585  0.5663
17642TIP3    H274418   1.179   0.637   2.685 -0.5349 -1.3867  0.5634
17643TIP3   OH274419   1.623   1.756  16.615 -0.3179  0.4212 -0.1844
17643TIP3    H174420   1.663   1.837  16.582  0.6840 -0.4314 -1.1645
17643TIP3    H274421   1.667   1.739  16.698 -1.2568  1.3984  0.5368
17644TIP3   OH274422   3.584   2.028   5.973 -0.5359 -0.3777  0.2063
17644TIP3    H174423   3.538   2.075   6.042 -1.2988 -0.5136 -0.1921
17644TIP3    H274424   3.634   2.095   5.927 -1.5273  0.0484 -0.2865
17645TIP3   OH274425   2.065   2.399   1.147 -0.1280  0.2661  0.4810
17645TIP3    H174426   2.131   2.333   1.128  0.6307  0.9854  0.5369
17645TIP3    H274427   1.999   2.388   1.079 -0.3674 -0.9816  0.8888
17646TIP3   OH274428   1.891   2.814  14.217  0.1815  0.3653 -0.1911
17646TIP3    H174429   1.854   2.737  14.174  1.1134 -0.7465  0.9388
17646TIP3    H274430   1.945   2.855  14.150  2.2798 -1.7999  0.0686
17647TIP3   OH274431   3.843   4.561  16.922  0.4634 -0.3553 -0.0729
17647TIP3    H174432   3.770   4.613  16.955 -0.0051 -0.0534 -1.5237
17647TIP3    H274433   3.808   4.516  16.845  1.1506 -2.0370  0.5380
17648TIP3   OH274434   0.240   3.563  15.639 -0.1476 -0.5058  0.4953
17648TIP3    H174435   0.335   3.553  15.644 -0.2174 -1.4388  0.1790
17648TIP3    H274436   0.207   3.511  15.712 -0.4694 -1.2321 -0.1657
17649TIP3   OH274437   3.936   6.303  16.825 -0.0397 -0.5721 -0.1869
17649TIP3    H174438   3.917   6.227  16.880  0.2887  0.3878  1.3237
17649TIP3    H274439   4.008   6.275  16.769  1.1761 -0.9312  1.4640
17650TIP3   OH274440   4.061   4.077  12.336 -0.1946 -0.0016  0.4859
17650TIP3    H174441   3.979   4.074  12.386  0.7159 -1.6584  2.0133
17650TIP3    H274442   4.068   3.990  12.296 -0.0441  0.7332 -1.1414
17651TIP3   OH274443   0.604   5.610  11.800 -0.2841  0.4415  0.5443
17651TIP3    H174444   0.554   5.543  11.754 -1.7945  1.9490 -0.0943
17651TIP3    H274445   0.673   5.636  11.738 -1.3370  1.3363 -0.2889
17652TIP3   OH274446   3.166   5.391  12.459  0.1372 -0.0680 -0.4016
17652TIP3    H174447   3.247   5.385  12.510  0.7382 -1.8716 -1.4665
17652TIP3    H274448   3.171   5.477  12.417  0.5141  0.6747  1.0745
17653TIP3   OH274449   1.222   0.217  17.118  0.2720 -0.1249 -0.1544
17653TIP3    H174450   1.205   0.293  17.063  0.4061  0.6756  0.8903
17653TIP3    H274451   1.227   0.144  17.056 -3.4448  0.0671 -0.8934
17654TIP3   OH274452   2.771   3.873  16.226  0.6337 -0.2105 -0.0423
17654TIP3    H174453   2.760   3.852  16.134 -0.2606 -2.9886  0.5960
17654TIP3    H274454   2.841   3.813  16.256  2.3379  2.0091  0.7149
17655TIP3   OH274455   3.256   4.840   0.981 -0.1855 -0.3600 -0.0868
17655TIP3    H174456   3.295   4.802   0.902 -0.0346  1.4649 -0.9379
17655TIP3    H274457   3.258   4.934   0.966  0.2497  0.0771  2.2917
17656TIP3   OH274458   2.818   0.997   3.433 -0.6928  0.4492 -0.1072
17656TIP3    H174459   2.797   0.969   3.344  1.1150 -1.6051  0.0177
17656TIP3    H274460   2.849   1.087   3.423  1.4006 -0.3894 -1.9192
17657TIP3   OH274461   1.367   0.220  13.820  0.1791  0.2547 -0.3128
17657TIP3    H174462   1.428   0.291  13.838 -1.4903  1.7121 -0.0489
17657TIP3    H274463   1.347   0.228  13.727  0.1230  0.0043 -0.3245
17658TIP3   OH274464   6.661   4.242   2.834 -0.0245  0.2457 -0.1547
17658TIP3    H174465   6.638   4.273   2.746  0.7192  3.3498  0.6219
17658TIP3    H274466   6.737   4.185   2.820  2.2360  3.2934 -1.4066
17659TIP3   OH274467   4.787   0.537   0.650 -0.1339  0.0994  0.3924
17659TIP3    H174468   4.844   0.463   0.629  0.8683  0.8555  0.3704
17659TIP3    H274469   4.757   0.520   0.739  0.4560 -0.1011  0.5557
17660TIP3   OH274470   5.906   1.456  14.908  0.1136  0.0839  0.1697
17660TIP3    H174471   5.882   1.372  14.870 -0.2251 -0.7868  2.1996
17660TIP3    H274472   5.957   1.500  14.840  2.8768 -2.9714  0.0336
17661TIP3   OH274473   1.860   3.265  14.367 -0.5461 -0.2831 -0.0421
17661TIP3    H174474   1.830   3.182  14.329 -0.6324 -0.5864  0.6594
17661TIP3    H274475   1.797   3.283  14.437 -0.9502  0.7567 -0.6553
17662TIP3   OH274476   6.695   2.505  12.314  0.0259 -0.2986  0.5405
17662TIP3    H174477   6.634   2.569  12.350  0.0184 -0.9040  1.6277
17662TIP3    H274478   6.674   2.423  12.358 -0.7243 -1.3607 -1.6631
17663TIP3   OH274479   0.459   4.955   2.426  0.2081 -0.1434 -0.5416
17663TIP3    H174480   0.500   5.015   2.363  0.5805  0.4406  0.2343
17663TIP3    H274481   0.367   4.979   2.426  0.1251 -0.4384 -1.1754
17664TIP3   OH274482   4.603   4.371  11.538  0.2850  0.1660  0.2367
17664TIP3    H174483   4.589   4.284  11.577  1.7746  0.2397  1.0011
17664TIP3    H274484   4.677   4.359  11.479  1.3743  1.1781  1.3414
17665TIP3   OH274485   1.858   5.996  11.116  0.1574 -0.7651  0.3394
17665TIP3    H174486   1.916   5.996  11.193 -0.0451  1.1552  0.5550
17665TIP3    H274487   1.770   5.991  11.154  0.1071 -1.4954  0.1300
17666TIP3   OH274488   3.348   2.600   2.504 -0.3739 -0.2546  0.1976
17666TIP3    H174489   3.424   2.640   2.546  0.1623 -1.1648  0.1281
17666TIP3    H274490   3.376   2.584   2.414 -0.8445 -0.0864  0.0203
17667TIP3   OH274491   2.494   1.618   1.471  0.6164  0.5983  0.0429
17667TIP3    H174492   2.542   1.599   1.552  1.1821  0.0315 -0.4139
17667TIP3    H274493   2.413   1.660   1.500  0.7730  0.3218  0.9062
17668TIP3   OH274494   1.015   0.055   3.595  0.1757 -0.3738 -0.0405
17668TIP3    H174495   0.955  -0.018   3.607 -0.3537 -0.4287 -2.5204
17668TIP3    H274496   1.007   0.106   3.675 -1.4942 -1.5840  0.6170
17669TIP3   OH274497   3.908   3.998  14.957 -0.6191 -0.7266  0.6469
17669TIP3    H174498   3.976   4.023  15.019  1.7324  1.0973 -2.3663
17669TIP3    H274499   3.872   4.082  14.927  1.8913 -0.9683 -3.9319
17670TIP3   OH274500   4.234   3.105  12.855  0.3646  0.5086 -0.3209
17670TIP3    H174501   4.267   3.082  12.768  1.2416 -1.7566  0.5282
17670TIP3    H274502   4.139   3.110  12.844  0.3871 -0.5963 -1.2704
17671TIP3   OH274503   3.491   0.685   3.057  0.3046 -0.5688  0.0811
17671TIP3    H174504   3.541   0.723   3.129 -0.1124  2.0830 -0.9192
17671TIP3    H274505   3.521   0.732   2.979 -0.6876 -1.9480 -1.1920
17672TIP3   OH274506   1.889   0.273  16.132  0.6082  0.2756  0.2035
17672TIP3    H174507   1.917   0.222  16.056  2.2640 -0.5806  1.3163
17672TIP3    H274508   1.937   0.355  16.125  2.5219 -0.6501  1.3786
17673TIP3   OH274509   1.830   1.442   3.346  0.0318  0.1093  0.2751
17673TIP3    H174510   1.764   1.417   3.281  0.9927  0.8811 -1.0342
17673TIP3    H274511   1.823   1.537   3.351 -0.2126  0.0463  1.5404
17674TIP3   OH274512   2.379   4.246  17.110 -0.5514  0.9478  0.5572
17674TIP3    H174513   2.363   4.198  17.028  0.8459 -0.0440  0.8317
17674TIP3    H274514   2.397   4.177  17.174 -0.5202  1.7680  1.4419
17675TIP3   OH274515   1.193   3.064   4.956 -0.3850  0.3757  0.5774
17675TIP3    H174516   1.175   3.016   4.875 -0.2619  1.5130 -0.1527
17675TIP3    H274517   1.284   3.043   4.977 -0.1326  0.7710 -0.0863
17676TIP3   OH274518   6.778   4.357   4.063  0.4023 -0.0679 -0.0715
17676TIP3    H174519   6.714   4.287   4.078 -0.0852  0.6710  1.5254
17676TIP3    H274520   6.725   4.437   4.061  1.1038  0.3959 -0.4765
17677TIP3   OH274521   6.677   4.696  13.876  0.7242  0.1561  0.1717
17677TIP3    H174522   6.660   4.786  13.903  0.5626  0.2158 -0.1248
17677TIP3    H274523   6.671   4.645  13.957 -0.8027  0.1798  0.1054
17678TIP3   OH274524   6.740   3.914  14.851  0.6519  0.6383  0.1428
17678TIP3    H174525   6.732   3.915  14.946 -0.3676 -0.5014  0.0999
17678TIP3    H274526   6.718   4.003  14.824 -1.1666  0.4465  0.8585
17679TIP3   OH274527   4.362   3.619  11.970 -0.4518 -0.2965  0.6842
17679TIP3    H174528   4.425   3.651  12.034 -1.3254 -0.3094  1.5691
17679TIP3    H274529   4.406   3.631  11.885  0.3820  0.5051  1.2113
17680TIP3   OH274530   5.225   3.083   5.390  0.6219 -0.3145 -0.3931
17680TIP3    H174531   5.273   3.166   5.394  0.6072 -0.2692 -1.0366
17680TIP3    H274532   5.259   3.032   5.464  0.6205  0.2672  0.0139
17681TIP3   OH274533   6.342   4.427   5.384  0.6719  0.0507 -0.1932
17681TIP3    H174534   6.423   4.399   5.426  1.1928 -0.8314 -1.6975
17681TIP3    H274535   6.348   4.391   5.295 -1.9986 -1.2831  0.0677
17682TIP3   OH274536   5.574   2.245   1.909 -0.5003  0.2787 -0.1845
17682TIP3    H174537   5.606   2.324   1.954 -0.6657 -0.1599  0.7176
17682TIP3    H274538   5.593   2.262   1.817  0.5272  0.8856  0.1142
17683TIP3   OH274539   5.139   1.052   2.164 -0.6593  0.2900  0.3277
17683TIP3    H174540   5.156   1.138   2.126  1.2087 -0.1637  0.0340
17683TIP3    H274541   5.120   1.070   2.257  1.1095  0.9488  0.6039
17684TIP3   OH274542   6.597   4.560   5.266 -0.1037  0.4701  0.1852
17684TIP3    H174543   6.678   4.609   5.277  0.3805  0.1028 -1.4366
17684TIP3    H274544   6.528   4.626   5.265  0.0460  0.7233  2.3827
17685TIP3   OH274545   5.050   1.174   5.894 -0.1579 -0.4738  0.1305
17685TIP3    H174546   5.027   1.095   5.845 -2.0147 -0.5790  1.0877
17685TIP3    H274547   5.066   1.143   5.983  0.3207  0.0847  0.2440
17686TIP3   OH274548   3.857   4.527  13.035 -0.5962 -0.2588 -0.0001
17686TIP3    H174549   3.879   4.600  13.093  0.4925 -0.7736  0.2623
17686TIP3    H274550   3.851   4.451  13.092  0.5757 -0.7911 -0.5368
17687TIP3   OH274551   4.537   5.036   3.462 -0.5017 -0.2636 -0.2884
17687TIP3    H174552   4.595   5.044   3.386  0.1858 -2.0107  0.0009
17687TIP3    H274553   4.594   5.052   3.538 -0.4321 -1.7027 -0.0162
17688TIP3   OH274554   0.948   3.320  14.301 -0.5868  0.3050  0.2628
17688TIP3    H174555   0.971   3.300  14.210  3.2332 -1.6096  1.4315
17688TIP3    H274556   0.911   3.239  14.335  0.1648  0.2377  0.9576
17689TIP3   OH274557   5.278   2.613  15.792 -0.2034 -0.4354  0.2174
17689TIP3    H174558   5.251   2.627  15.883  1.9338  1.0496  0.6868
17689TIP3    H274559   5.231   2.680  15.742 -0.8215 -0.7848  0.3242
17690TIP3   OH274560   2.889   5.690   0.772  0.9107  0.1254  0.7315
17690TIP3    H174561   2.837   5.624   0.819 -0.4156  0.4577 -0.2194
17690TIP3    H274562   2.853   5.773   0.801 -0.4556  0.3360 -1.3890
17691TIP3   OH274563   3.404   4.792   6.314 -0.3695  0.2259 -0.7522
17691TIP3    H174564   3.497   4.780   6.336 -0.5645  1.0799  0.6103
17691TIP3    H274565   3.362   4.816   6.397 -1.6913  0.5308 -1.4837
17692TIP3   OH274566   3.471   5.298   5.809  0.3737  0.2129 -0.3770
17692TIP3    H174567   3.475   5.203   5.801 -0.0956  0.2251 -0.8210
17692TIP3    H274568   3.445   5.314   5.900  2.6452 -0.0192  0.3839
17693TIP3   OH274569   6.124   4.316   2.051 -0.1274  0.7883 -0.0182
17693TIP3    H174570   6.083   4.367   2.120  0.1641  2.9179 -1.3409
17693TIP3    H274571   6.064   4.321   1.978  1.3003  1.8915 -1.1726
17694TIP3   OH274572   0.990   1.675   1.255 -0.6198  0.6756  0.5447
17694TIP3    H174573   0.930   1.746   1.237  0.8433  1.3420 -2.3544
17694TIP3    H274574   0.998   1.628   1.172  0.9393 -0.8806  1.4877
17695TIP3   OH274575   5.577   3.017   1.588 -0.1559  0.0059  0.2605
17695TIP3    H174576   5.559   2.932   1.547  0.5765  0.2755 -0.6480
17695TIP3    H274577   5.657   3.002   1.638 -0.1615  0.0981  0.2962
17696TIP3   OH274578   1.527   3.538   6.625  0.2816  0.3494  0.1450
17696TIP3    H174579   1.570   3.592   6.559  0.7922  1.1859  1.1276
17696TIP3    H274580   1.470   3.598   6.672 -0.2455 -0.2817  0.3272
17697TIP3   OH274581   2.681   2.846   2.632 -0.1924 -0.5064 -0.0265
17697TIP3    H174582   2.597   2.852   2.678 -1.5944  1.9239 -2.5699
17697TIP3    H274583   2.721   2.932   2.643 -0.4029  0.0464 -2.8283
17698TIP3   OH274584   3.681   1.365  12.493 -0.4447  0.3570  0.1959
17698TIP3    H174585   3.674   1.411  12.409  0.8610  3.4376  1.6100
17698TIP3    H274586   3.769   1.327  12.492 -0.4197  0.4154  0.1826
17699TIP3   OH274587   5.968   3.997   4.234  0.1998 -0.0426  0.4374
17699TIP3    H174588   5.937   3.918   4.190  0.0116  0.3181 -0.0970
17699TIP3    H274589   6.006   4.050   4.164 -0.2620  0.6195  0.6739
17700TIP3   OH274590   5.037   1.654  12.571  0.1404 -0.3979  0.5122
17700TIP3    H174591   4.960   1.606  12.598  1.4350 -1.9334  1.6286
17700TIP3    H274592   5.070   1.607  12.495 -0.4790  0.7764 -0.5231
17701TIP3   OH274593   4.507   6.543  13.936  0.0311 -0.2854  0.1822
17701TIP3    H174594   4.584   6.574  13.984  0.9220 -1.3982 -0.5057
17701TIP3    H274595   4.514   6.585  13.850  0.4215 -1.1780 -0.2282
17702TIP3   OH274596   5.099   0.772   1.920  0.8885 -0.6377  0.7646
17702TIP3    H174597   5.005   0.757   1.932  0.0232  2.8278 -0.4561
17702TIP3    H274598   5.132   0.792   2.007  0.4936 -1.6037  1.1568
17703TIP3   OH274599   1.077   0.232   3.817 -0.0611  0.1624 -0.2407
17703TIP3    H174600   1.153   0.191   3.858 -0.6068  0.9936  1.6853
17703TIP3    H274601   1.081   0.324   3.844 -1.7689  0.2192 -0.0577
17704TIP3   OH274602   3.491   3.016  13.138  0.0924 -0.0059  0.2500
17704TIP3    H174603   3.459   3.106  13.126 -0.3836 -0.2610 -0.4904
17704TIP3    H274604   3.572   3.012  13.087  1.4974  0.7036  2.3019
17705TIP3   OH274605   6.494   1.265  11.815  0.0700  0.0245 -0.5484
17705TIP3    H174606   6.550   1.216  11.875  0.0485 -0.1975 -0.7093
17705TIP3    H274607   6.413   1.280  11.864  0.5606  1.0649 -0.0089
17706TIP3   OH274608   5.052   2.287  12.397 -0.4463 -0.4855  0.2848
17706TIP3    H174609   5.072   2.346  12.470 -2.1248  1.1484 -0.4784
17706TIP3    H274610   5.013   2.210  12.438 -2.9127  1.0777  1.1692
17707TIP3   OH274611   4.026   3.834   1.440 -0.1958 -0.3599 -0.2738
17707TIP3    H174612   3.968   3.837   1.516 -1.4271 -0.5271 -1.1838
17707TIP3    H274613   4.077   3.754   1.452  1.5920  0.9700  1.7409
17708TIP3   OH274614   3.711   5.446  15.265  0.6085  0.4716 -0.0442
17708TIP3    H174615   3.740   5.370  15.316  1.4606  1.0961  0.4344
17708TIP3    H274616   3.616   5.436  15.258  0.7341 -0.7942 -0.2612
17709TIP3   OH274617   5.603   0.176   4.616  0.5354 -0.3822  0.0817
17709TIP3    H174618   5.689   0.212   4.597 -0.7913  2.2985 -1.4441
17709TIP3    H274619   5.612   0.134   4.701  2.7154  2.2315  1.2835
17710TIP3   OH274620   4.238   1.222   3.349  0.8194  0.2037 -0.1132
17710TIP3    H174621   4.276   1.241   3.435  0.0469  0.3316  0.2005
17710TIP3    H274622   4.145   1.243   3.358  1.0488  2.1893 -1.5594
17711TIP3   OH274623   5.930   3.664  15.538 -0.7441  0.0814 -0.3845
17711TIP3    H174624   5.937   3.650  15.443 -2.3140 -1.7151 -0.3072
17711TIP3    H274625   5.997   3.729  15.558  0.3883 -0.3337 -2.5444
17712TIP3   OH274626   5.229   3.429  10.815 -0.0093 -0.2046 -0.9458
17712TIP3    H174627   5.247   3.504  10.759 -1.3158  0.5854 -0.3577
17712TIP3    H274628   5.285   3.440  10.891 -0.8741  0.7183 -0.4194
17713TIP3   OH274629   1.626   1.191   3.512  0.3985  0.1447 -0.9412
17713TIP3    H174630   1.718   1.215   3.501  0.4466  0.6787  0.4409
17713TIP3    H274631   1.607   1.135   3.437  2.4682 -1.8359 -0.1034
17714TIP3   OH274632   6.100   3.860  16.217  0.1025 -0.3846  0.4877
17714TIP3    H174633   6.172   3.905  16.261 -1.2868  2.2056  0.2903
17714TIP3    H274634   6.025   3.873  16.275 -1.1947  0.9735 -1.3969
17715TIP3   OH274635   1.511   0.592   3.651  0.1578  0.4306 -0.1697
17715TIP3    H174636   1.506   0.538   3.729 -1.7450  1.4999  0.5055
17715TIP3    H274637   1.497   0.531   3.578  0.3415 -0.3167  0.4127
17716TIP3   OH274638   0.992   5.118   4.916 -0.2818  0.1743  0.2063
17716TIP3    H174639   0.937   5.070   4.853 -1.4496 -1.0669  2.0496
17716TIP3    H274640   1.070   5.063   4.927  0.2167  0.7112 -0.6129
17717TIP3   OH274641   1.815   4.702   3.422 -0.2558 -0.1431 -0.0388
17717TIP3    H174642   1.881   4.757   3.381 -1.2352  2.5545  1.7561
17717TIP3    H274643   1.855   4.672   3.504 -1.1862  1.6027  1.1170
17718TIP3   OH274644   1.853   3.476   0.463  0.1988  0.0264 -0.3071
17718TIP3    H174645   1.758   3.465   0.457  0.4024 -1.2587 -1.6182
17718TIP3    H274646   1.872   3.551   0.408 -0.0975  0.6622  0.4317
17719TIP3   OH274647   3.821   2.182   0.397 -0.1359 -0.5105  0.1422
17719TIP3    H174648   3.862   2.266   0.413  1.1950 -1.0554 -0.3196
17719TIP3    H274649   3.822   2.172   0.302  0.5062 -1.4225  0.2322
17720TIP3   OH274650   6.264   0.932   4.481  0.5165 -0.3057  1.0843
17720TIP3    H174651   6.351   0.908   4.450  1.4281  1.2308  2.2955
17720TIP3    H274652   6.223   0.849   4.506  1.1784 -1.1599 -0.5335
17721TIP3   OH274653   3.120   0.744   4.880  0.3337  0.2765 -0.5569
17721TIP3    H174654   3.097   0.833   4.907 -0.2973  0.2627 -1.0385
17721TIP3    H274655   3.096   0.690   4.955  2.0048  0.6414  0.3132
17722TIP3   OH274656   5.616   3.674   1.333  0.3940  0.0065 -0.1024
17722TIP3    H174657   5.650   3.763   1.346  1.5593 -0.2385 -1.3457
17722TIP3    H274658   5.693   3.621   1.313 -0.3336 -1.2286  0.2498
17723TIP3   OH274659   1.613   0.033  17.051 -0.5384 -0.4725  0.1997
17723TIP3    H174660   1.581   0.012  16.963 -0.2604 -1.5191  0.3330
17723TIP3    H274661   1.639   0.125  17.045  0.6899 -0.8663 -1.1941
17724TIP3   OH274662   2.153   4.819  17.047  0.0118 -0.0619  0.0235
17724TIP3    H174663   2.127   4.798  16.958  1.6410 -2.3566  0.0055
17724TIP3    H274664   2.240   4.858  17.038  0.4828 -0.9510  0.6396
17725TIP3   OH274665   6.411   4.171   1.367  0.3223  0.0316 -0.0285
17725TIP3    H174666   6.462   4.129   1.437  2.1871  0.0973 -1.2719
17725TIP3    H274667   6.460   4.251   1.347 -2.1618  1.9441  1.0193
17726TIP3   OH274668   6.377   1.596  12.422 -0.1030 -0.2405  0.2090
17726TIP3    H174669   6.374   1.671  12.361  0.1068 -0.7676 -0.4652
17726TIP3    H274670   6.414   1.633  12.502  2.1430 -0.0673 -0.8223
17727TIP3   OH274671   3.081   2.400  14.345  0.2953  0.3508 -0.4714
17727TIP3    H174672   3.015   2.469  14.354 -0.0620 -0.0569  0.1273
17727TIP3    H274673   3.110   2.383  14.435  0.7412  0.0747 -0.6665
17728TIP3   OH274674   0.613   2.655   4.961 -0.4133 -0.1307  0.4532
17728TIP3    H174675   0.595   2.593   4.891  2.1488  0.9239 -1.2798
17728TIP3    H274676   0.613   2.602   5.041 -1.6039 -1.6987 -0.5242
17729TIP3   OH274677   6.190   4.680  14.133 -0.2009  0.2390  0.0865
17729TIP3    H174678   6.251   4.675  14.207 -0.6666  0.9321  0.5306
17729TIP3    H274679   6.195   4.593  14.092 -0.4762 -0.4055  1.3733
17730TIP3   OH274680   3.045   6.705   5.034 -0.0536 -0.1141 -0.0712
17730TIP3    H174681   3.013   6.662   5.113 -2.3783 -1.5694 -1.6883
17730TIP3    H274682   3.023   6.645   4.963  1.9819  1.1139 -1.8763
17731TIP3   OH274683   5.313   1.634  16.979  0.4888 -0.8725  0.3770
17731TIP3    H174684   5.354   1.565  17.031  0.4863 -1.9901 -1.0320
17731TIP3    H274685   5.269   1.690  17.043 -0.2194 -2.6493  1.5248
17732TIP3   OH274686   0.717   3.005   1.537 -0.3410  0.4052  0.0776
17732TIP3    H174687   0.702   3.084   1.486  1.2581  0.5446 -0.2242
17732TIP3    H274688   0.761   2.945   1.477 -2.4732 -1.1832 -0.0418
17733TIP3   OH274689   2.865   6.069  14.595  0.2412  0.2614 -0.5420
17733TIP3    H174690   2.927   6.025  14.654  0.4940  0.6287 -0.5309
17733TIP3    H274691   2.921   6.117  14.533 -0.0078 -0.3504 -1.2632
17734TIP3   OH274692   3.480   3.493  14.894  0.2158 -0.0743 -0.3683
17734TIP3    H174693   3.432   3.575  14.882  1.1159  0.2964 -1.6826
17734TIP3    H274694   3.513   3.498  14.984 -1.3362  0.0987  0.2270
17735TIP3   OH274695   4.530   4.252  11.041  0.3103  0.5845  0.0546
17735TIP3    H174696   4.581   4.175  11.013 -0.0453  0.3237  0.1165
17735TIP3    H274697   4.575   4.326  11.001  1.0152  0.4020  0.4911
17736TIP3   OH274698   3.495   1.788  12.718  0.4935  0.6486  0.2819
17736TIP3    H174699   3.496   1.793  12.622 -1.1154 -1.5670  0.0570
17736TIP3    H274700   3.562   1.723  12.739 -1.0650 -1.0466  0.3414
17737TIP3   OH274701   3.133   4.890  13.282 -0.6078 -0.3383 -0.2775
17737TIP3    H174702   3.177   4.972  13.259  0.3971 -0.4614  1.0504
17737TIP3    H274703   3.086   4.910  13.363 -0.6920 -0.9528 -0.1709
17738TIP3   OH274704   2.762   3.804  12.136 -0.0975  0.2744 -0.1821
17738TIP3    H174705   2.853   3.802  12.105 -0.3915  1.3792 -1.2276
17738TIP3    H274706   2.767   3.842  12.223  0.2392  3.1289 -1.3405
17739TIP3   OH274707   1.654   6.351   2.970 -0.9136  0.3947 -0.2285
17739TIP3    H174708   1.672   6.259   2.949 -1.7616  0.3322 -0.7248
17739TIP3    H274709   1.594   6.348   3.044  0.4794  0.5910  0.9380
17740TIP3   OH274710   6.299   3.949   1.262 -0.2165  0.1213 -0.1955
17740TIP3    H174711   6.354   4.024   1.284 -0.4080  0.3359 -0.4485
17740TIP3    H274712   6.215   3.987   1.236  0.2947 -0.0396 -2.3050
17741TIP3   OH274713   1.227   6.576   4.087  0.4338  0.2655  0.5728
17741TIP3    H174714   1.283   6.507   4.052 -0.4050 -0.3978  0.5181
17741TIP3    H274715   1.288   6.640   4.124  1.2297 -0.3657  0.3749
17742TIP3   OH274716   0.708   5.726  17.059 -0.1879 -0.0212 -0.3053
17742TIP3    H174717   0.723   5.719  16.965 -2.7352 -0.0597 -0.7808
17742TIP3    H274718   0.690   5.819  17.073  1.5704  0.2382  0.4241
17743TIP3   OH274719   6.133   5.136   3.725 -0.2883  0.4347 -0.2372
17743TIP3    H174720   6.208   5.112   3.672 -0.9639 -0.5141 -0.7848
17743TIP3    H274721   6.171   5.168   3.807  0.6931 -2.0675  0.3489
17744TIP3   OH274722   2.776   5.449  15.347 -0.1723  0.6577 -0.2216
17744TIP3    H174723   2.749   5.485  15.431  1.7789 -0.8808  1.1777
17744TIP3    H274724   2.701   5.395  15.318 -0.0083 -0.7727  1.8092
17745TIP3   OH274725   3.876   5.043  15.989 -0.1041  0.3012 -0.4988
17745TIP3    H174726   3.878   5.134  16.019  1.8754 -0.0116  0.4753
17745TIP3    H274727   3.942   5.040  15.920 -0.2479 -0.3744 -0.6073
17746TIP3   OH274728   2.968   0.952  10.840 -0.6529  0.1877  0.3047
17746TIP3    H174729   2.909   0.920  10.771  1.7823 -0.4668 -1.6208
17746TIP3    H274730   2.979   0.877  10.898  1.5558 -1.2318 -1.7521
17747TIP3   OH274731   6.712   3.981   0.425  0.1799 -0.0424  0.0000
17747TIP3    H174732   6.664   4.044   0.372  0.8255  1.1831  0.8124
17747TIP3    H274733   6.718   3.903   0.371 -1.8571  0.0968 -0.4912
17748TIP3   OH274734   3.168   6.145   4.219  0.3073  0.1941  0.0732
17748TIP3    H174735   3.215   6.064   4.197 -0.2896  0.2728 -1.6590
17748TIP3    H274736   3.079   6.117   4.238 -0.1719  0.4902 -1.5496
17749TIP3   OH274737   5.199   6.773  14.949  0.7474  0.6471 -0.4160
17749TIP3    H174738   5.168   6.821  15.026  1.2418  0.8496 -0.3387
17749TIP3    H274739   5.286   6.810  14.931  1.3446 -0.5406 -0.0634
17750TIP3   OH274740   1.852   1.248  16.860  0.3993  0.8189 -0.0952
17750TIP3    H174741   1.839   1.168  16.809  1.8417  0.9342 -0.6923
17750TIP3    H274742   1.816   1.317  16.805  1.6044  0.8934 -0.8398
17751TIP3   OH274743   1.260   0.602  11.065 -0.4845  0.3252  0.5436
17751TIP3    H174744   1.318   0.608  11.141 -1.2718 -1.0801  1.2948
17751TIP3    H274745   1.264   0.689  11.025  1.5689  0.4786  0.9719
17752TIP3   OH274746   3.222   1.006   0.823  0.1045  0.2318  0.2922
17752TIP3    H174747   3.190   1.066   0.890 -0.1970 -1.1667  1.4491
17752TIP3    H274748   3.153   0.940   0.816 -0.1067  0.6142 -1.7830
17753TIP3   OH274749   2.179   0.210   0.749  0.1925  0.3087  0.4880
17753TIP3    H174750   2.210   0.292   0.711  1.8361 -0.8903 -0.9547
17753TIP3    H274751   2.099   0.190   0.700 -0.0196  0.8604  0.6044
17754TIP3   OH274752   2.086   6.463  15.757 -0.1733  0.0648  0.2410
17754TIP3    H174753   2.004   6.416  15.767 -0.4445  0.9024  2.4579
17754TIP3    H274754   2.146   6.399  15.718 -1.5660 -0.8530 -0.4958
17755TIP3   OH274755   0.269   6.629   2.072  0.2400 -0.0978  0.0376
17755TIP3    H174756   0.307   6.644   2.159 -1.4810 -1.2735  1.0650
17755TIP3    H274757   0.177   6.653   2.082 -0.1709 -1.0289 -1.2387
17756TIP3   OH274758   2.175   0.075   3.564  0.2368 -0.4758 -0.0495
17756TIP3    H174759   2.164   0.158   3.612  0.2711 -0.4072 -0.1596
17756TIP3    H274760   2.219   0.017   3.627 -1.1727 -0.9149  0.5639
17757TIP3   OH274761   0.067   3.041  12.896  0.9251  0.0084  0.3598
17757TIP3    H174762   0.120   3.103  12.946  1.6623 -0.6795  0.4655
17757TIP3    H274763   0.100   3.047  12.807  1.6423 -0.8763  0.5490
17758TIP3   OH274764   6.365   4.893  11.750 -0.6854  0.0825  0.1725
17758TIP3    H174765   6.440   4.900  11.691  0.7119  0.0532  1.8463
17758TIP3    H274766   6.323   4.811  11.726  0.2820 -0.2947 -0.2800
17759TIP3   OH274767   1.954   2.183  10.644 -0.3090 -0.3901  0.2605
17759TIP3    H174768   1.941   2.131  10.565  0.0186 -0.1312  0.0289
17759TIP3    H274769   2.008   2.257  10.614 -2.8506  1.5130 -0.0028
17760TIP3   OH274770   6.305   2.153  10.891 -0.3964 -0.6468  0.8086
17760TIP3    H174771   6.304   2.095  10.967  1.2147 -2.5757 -0.5634
17760TIP3    H274772   6.397   2.174  10.877 -0.9258  2.6741  1.4701
17761TIP3   OH274773   3.235   5.705  16.052 -0.3632  0.6781  0.3088
17761TIP3    H174774   3.195   5.719  15.966 -1.7558  1.6948  1.0692
17761TIP3    H274775   3.296   5.633  16.039 -0.5228  0.8270 -1.5333
17762TIP3   OH274776   1.817   4.568   1.853 -0.6400  0.8544  0.4682
17762TIP3    H174777   1.730   4.533   1.873  0.0836 -1.2155  0.2281
17762TIP3    H274778   1.877   4.511   1.901  0.8153 -0.5435 -2.7153
17763TIP3   OH274779   4.985   5.273  16.132  0.8965 -0.3644 -0.3068
17763TIP3    H174780   5.045   5.208  16.169  0.6109 -1.5816 -1.8689
17763TIP3    H274781   5.027   5.300  16.050  0.1547  0.0949 -0.5438
17764TIP3   OH274782   3.297   5.960   2.538  0.3825 -0.4886 -0.0031
17764TIP3    H174783   3.280   6.051   2.514  2.3077  0.7079  2.6447
17764TIP3    H274784   3.318   5.918   2.455  1.2204  1.9537 -1.1441
17765TIP3   OH274785   4.902   1.111   4.785  0.1976  0.7497  0.1281
17765TIP3    H174786   4.990   1.142   4.764 -0.3314  0.3678 -3.0641
17765TIP3    H274787   4.915   1.024   4.822  1.1707  0.3262 -1.1476
17766TIP3   OH274788   3.573   1.089   3.907  0.2280 -0.2109  0.3512
17766TIP3    H174789   3.481   1.103   3.932  0.3715  0.2103  0.6485
17766TIP3    H274790   3.604   1.022   3.968  0.0361 -0.5667  0.0603
17767TIP3   OH274791   6.445   4.207  15.959  0.1475  0.6448 -0.1671
17767TIP3    H174792   6.507   4.134  15.963 -0.3358  0.2191 -0.2112
17767TIP3    H274793   6.399   4.194  15.876 -1.4873 -0.3077  0.8336
17768TIP3   OH274794   6.089   3.327  11.828 -0.4953 -0.6397 -0.3923
17768TIP3    H174795   6.083   3.271  11.905  2.1458 -0.8752 -0.2567
17768TIP3    H274796   6.089   3.416  11.863 -2.0017 -0.6227 -0.3864
17769TIP3   OH274797   2.911   5.514  13.692 -0.2102 -0.5134 -0.0435
17769TIP3    H174798   2.821   5.512  13.661 -0.4213 -0.9042  0.5816
17769TIP3    H274799   2.905   5.499  13.786  0.3383  1.6595  0.3923
17770TIP3   OH274800   1.648   5.388   2.840  0.6291  0.2943 -0.9829
17770TIP3    H174801   1.721   5.432   2.884  0.8542 -0.1732 -0.8829
17770TIP3    H274802   1.688   5.343   2.766  0.7630 -1.5167  0.1281
17771TIP3   OH274803   0.349   6.423   1.675  0.2516 -0.0757 -0.3059
17771TIP3    H174804   0.261   6.449   1.702 -0.5317 -1.4072 -1.4358
17771TIP3    H274805   0.399   6.504   1.676 -0.5863  0.4943  1.7330
17772TIP3   OH274806   6.347   4.185  13.869  0.0441 -0.3365 -1.0170
17772TIP3    H174807   6.255   4.186  13.843  0.4197 -1.4818 -2.5726
17772TIP3    H274808   6.347   4.143  13.955 -1.0247  1.2459 -0.2021
17773TIP3   OH274809   4.704   3.352  11.064  0.1898  0.8391 -0.5254
17773TIP3    H174810   4.673   3.266  11.034 -0.2612  0.2857  1.3971
17773TIP3    H274811   4.623   3.401  11.083  0.4560  1.3213 -0.6281
17774TIP3   OH274812   4.444   4.040  12.907 -0.8658  0.5311  0.6221
17774TIP3    H174813   4.481   4.034  12.995  0.8668  1.4826  0.0123
17774TIP3    H274814   4.422   4.133  12.897 -0.6499  0.5116 -0.0838
17775TIP3   OH274815   2.003   6.796  13.905  0.1813 -0.2750 -0.0723
17775TIP3    H174816   2.050   6.879  13.903 -0.8405  0.3131 -0.0476
17775TIP3    H274817   1.935   6.808  13.972 -0.1202 -1.0493 -0.2258
17776TIP3   OH274818   3.537   1.993   1.390 -0.8783 -0.5448  0.4776
17776TIP3    H174819   3.559   2.037   1.472  1.8189 -2.0109  0.6361
17776TIP3    H274820   3.590   1.914   1.390 -1.0518 -0.7711 -2.5452
17777TIP3   OH274821   6.506   3.558   4.275 -0.5908  0.6886 -0.3963
17777TIP3    H174822   6.525   3.471   4.311 -0.0882  1.0922  0.3260
17777TIP3    H274823   6.522   3.548   4.181  1.1343  0.4333 -0.1146
17778TIP3   OH274824   2.694   4.594   4.922 -1.1127  0.1189  0.7922
17778TIP3    H174825   2.750   4.558   4.991 -0.6216 -0.6150  0.0404
17778TIP3    H274826   2.733   4.562   4.841 -2.3651 -0.0220  0.2226
17779TIP3   OH274827   0.032   5.964  11.391  0.0681 -0.2129 -0.0163
17779TIP3    H174828   0.110   6.019  11.399 -0.2907  0.2329  0.4698
17779TIP3    H274829   0.026   5.919  11.476  1.2758 -2.2728 -0.9365
17780TIP3   OH274830   0.427   2.224   2.915  0.2130 -0.0445 -0.3333
17780TIP3    H174831   0.339   2.257   2.931  0.3100 -0.4885  1.2421
17780TIP3    H274832   0.432   2.216   2.820 -1.5559 -0.3301 -0.4384
17781TIP3   OH274833   2.240   0.703   1.350 -0.4471 -0.3673  0.1097
17781TIP3    H174834   2.284   0.678   1.269 -0.9603 -1.0044  0.0205
17781TIP3    H274835   2.307   0.750   1.400 -0.0220 -0.2893 -0.5238
17782TIP3   OH274836   0.852   4.933   4.676 -0.2760  0.4188 -0.7737
17782TIP3    H174837   0.810   4.941   4.591  0.0867 -0.8848 -1.1045
17782TIP3    H274838   0.850   4.839   4.695  1.2517  0.4634 -0.1953
17783TIP3   OH274839   1.870   6.305  12.298 -0.1816 -0.4456 -0.4288
17783TIP3    H174840   1.812   6.328  12.370  0.0281 -0.0897 -0.3728
17783TIP3    H274841   1.940   6.371  12.301  0.5329 -1.1880 -0.1373
17784TIP3   OH274842   0.749   3.737   2.216 -0.2373  0.3232  0.1369
17784TIP3    H174843   0.687   3.759   2.286  1.9727  1.5760  1.8404
17784TIP3    H274844   0.712   3.778   2.138 -1.5158  1.1062  1.1070
17785TIP3   OH274845   0.061   6.104   4.426 -0.0739 -0.1440 -0.4576
17785TIP3    H174846  -0.005   6.035   4.426 -1.7300  1.3652  0.3983
17785TIP3    H274847   0.031   6.166   4.360  0.6882  0.3972 -0.3064
17786TIP3   OH274848   6.477   2.524  16.959 -0.3176 -0.4384 -0.2074
17786TIP3    H174849   6.558   2.575  16.965 -1.0961  0.7163  1.0710
17786TIP3    H274850   6.507   2.433  16.953  1.0755  0.0220 -0.7388
17787TIP3   OH274851   1.504   5.390   5.733  0.8790 -0.2527  0.5772
17787TIP3    H174852   1.509   5.441   5.814  2.5663 -0.8704  0.9166
17787TIP3    H274853   1.488   5.454   5.665  0.4149  0.4034  1.2848
17788TIP3   OH274854   0.602   5.889  14.896  0.5489  0.4273 -0.1828
17788TIP3    H174855   0.547   5.965  14.913  0.7955  0.6056 -0.1674
17788TIP3    H274856   0.601   5.880  14.801  0.9190  0.7556 -0.2217
17789TIP3   OH274857   3.868   4.035  16.000 -0.0930 -0.1471  0.7595
17789TIP3    H174858   3.958   4.067  15.994 -0.0840 -0.2693  0.2538
17789TIP3    H274859   3.816   4.100  15.952 -0.0568 -0.9537 -0.4081
17790TIP3   OH274860   4.483   0.005  10.527 -0.4037 -0.5420 -0.5232
17790TIP3    H174861   4.394  -0.003  10.493 -0.9044  0.0848  0.5515
17790TIP3    H274862   4.522  -0.081  10.514 -2.1417 -1.7800  1.5671
17791TIP3   OH274863   0.909   0.821   0.054  0.7336  0.0391  0.0546
17791TIP3    H174864   0.815   0.809   0.064  1.0970 -1.1159  3.4162
17791TIP3    H274865   0.928   0.902   0.101  1.5384 -0.2922  0.3179
17792TIP3   OH274866   0.298   4.071   2.745 -0.3455 -0.1011 -0.0229
17792TIP3    H174867   0.225   4.043   2.691  0.2506 -0.0302 -0.8973
17792TIP3    H274868   0.301   4.166   2.734  0.1154 -0.1439 -0.3232
17793TIP3   OH274869   2.579   2.411   1.736  0.3132 -0.1630  0.4902
17793TIP3    H174870   2.567   2.317   1.725 -1.7533 -0.2922  2.8765
17793TIP3    H274871   2.556   2.448   1.651 -1.3835 -1.7012  0.2093
17794TIP3   OH274872   3.534   4.178   5.143 -0.0189 -0.0616  0.4803
17794TIP3    H174873   3.526   4.158   5.050 -0.4144 -0.7410  0.6585
17794TIP3    H274874   3.567   4.268   5.145  2.2002 -0.7767 -0.3492
17795TIP3   OH274875   3.285   1.836  17.081  0.1646  0.4744  0.2127
17795TIP3    H174876   3.259   1.928  17.082 -0.1620  0.4051  1.8487
17795TIP3    H274877   3.380   1.838  17.084  0.1940  0.7424 -0.5946
17796TIP3   OH274878   4.131   0.782   0.404  0.2190 -0.4186 -0.6391
17796TIP3    H174879   4.206   0.789   0.462  1.5709 -1.6837 -2.1318
17796TIP3    H274880   4.108   0.689   0.404 -0.8814 -0.1644 -0.7759
17797TIP3   OH274881   0.688   6.166   3.999 -0.5568 -0.5568  0.2197
17797TIP3    H174882   0.769   6.130   4.034  0.2329 -0.1432 -1.1194
17797TIP3    H274883   0.688   6.142   3.906 -1.7943 -0.2418  0.1167
17798TIP3   OH274884   2.112   0.819  12.976  0.0553 -0.2417  0.4690
17798TIP3    H174885   2.106   0.764  13.053 -0.4475  0.5738  1.0263
17798TIP3    H274886   2.106   0.909  13.009 -1.7737  0.0957 -0.6317
17799TIP3   OH274887   0.737   3.015  16.001 -0.1771  0.5820  0.0998
17799TIP3    H174888   0.730   2.938  16.057  1.0867 -1.0326 -1.8629
17799TIP3    H274889   0.746   3.088  16.062 -0.6588 -0.8705  2.0004
17800TIP3   OH274890   5.938   2.624  16.588 -0.2663 -0.0080  0.3504
17800TIP3    H174891   5.935   2.629  16.684  0.1391  0.4494  0.3432
17800TIP3    H274892   5.854   2.660  16.559 -0.0887  0.5591  0.5177
17801TIP3   OH274893   6.329   2.960  12.888 -0.1076  0.7235  0.1279
17801TIP3    H174894   6.300   2.880  12.933 -1.2857  1.4206  0.6603
17801TIP3    H274895   6.423   2.947  12.874 -0.1304 -0.4226  0.8777
17802TIP3   OH274896   5.696   3.633  11.410 -0.0974 -0.0091  0.0197
17802TIP3    H174897   5.744   3.592  11.482 -0.0499  2.1252  1.2880
17802TIP3    H274898   5.729   3.590  11.331 -0.0476 -2.3391  1.2173
17803TIP3   OH274899   1.651   5.423   4.384 -0.3442 -0.5055 -0.6341
17803TIP3    H174900   1.649   5.337   4.340 -1.6647  0.2759 -2.2352
17803TIP3    H274901   1.612   5.483   4.320  0.7163  1.3443  0.3750
17804TIP3   OH274902   3.060   1.458  16.788  0.3400  0.1172 -0.6663
17804TIP3    H174903   3.116   1.441  16.712  0.5652 -0.3316 -0.4048
17804TIP3    H274904   3.109   1.522  16.840 -0.4074  1.4150 -1.5425
17805TIP3   OH274905   1.685   3.401  16.317  0.2213  0.6912  0.1929
17805TIP3    H174906   1.772   3.426  16.347  0.5465  0.5801 -0.6255
17805TIP3    H274907   1.680   3.307  16.331 -0.4330  0.9485  1.8586
17806TIP3   OH274908   4.085   2.547  12.035  0.1809  0.0909  0.1703
17806TIP3    H174909   4.012   2.610  12.032 -0.7343 -0.6219  3.5844
17806TIP3    H274910   4.158   2.597  12.070 -0.2248 -0.3888  1.7854
17807TIP3   OH274911   5.670   3.124  13.647 -0.1998 -0.2341  0.6246
17807TIP3    H174912   5.588   3.163  13.678  0.3023 -0.0271  1.7631
17807TIP3    H274913   5.648   3.033  13.629 -0.8085 -0.0430  0.3706
17808TIP3   OH274914   5.620   1.375  12.720 -0.0063 -0.0066 -0.0771
17808TIP3    H174915   5.530   1.386  12.690  0.2011  1.2803 -0.3128
17808TIP3    H274916   5.663   1.457  12.696 -0.0669  1.7067  4.6110
17809TIP3   OH274917   2.656   3.991   0.564 -0.0051  0.5418 -0.1515
17809TIP3    H174918   2.648   4.014   0.471  0.2863  1.0649 -0.0494
17809TIP3    H274919   2.750   3.999   0.583  0.0626 -0.4159 -0.0248
17810TIP3   OH274920   3.113   2.774  15.965  0.0989  0.2416 -0.1935
17810TIP3    H174921   3.154   2.854  15.932  1.3986 -0.9215 -1.5308
17810TIP3    H274922   3.179   2.734  16.021 -0.4504 -0.0058  0.2820
17811TIP3   OH274923   2.529   3.588  15.992  0.3014 -0.1612 -0.4720
17811TIP3    H174924   2.447   3.637  15.993 -0.7555 -1.8401 -0.5967
17811TIP3    H274925   2.596   3.654  15.973 -0.6960  1.6505  1.7738
17812TIP3   OH274926   2.173   5.649  16.805 -0.1892 -0.0838 -0.0121
17812TIP3    H174927   2.108   5.595  16.762  0.1432 -0.5863  0.1089
17812TIP3    H274928   2.167   5.734  16.761 -0.1868 -0.4446 -0.7207
17813TIP3   OH274929   3.231   1.774   3.016  0.0728 -0.0519 -0.3204
17813TIP3    H174930   3.257   1.842   2.954 -0.6663 -0.1133 -0.7019
17813TIP3    H274931   3.303   1.711   3.014  0.2209  0.1278 -0.8442
17814TIP3   OH274932   1.868   4.052   4.899 -0.2824 -0.0806 -0.4543
17814TIP3    H174933   1.835   4.135   4.932  0.9997  0.3622 -0.2171
17814TIP3    H274934   1.792   3.994   4.897 -0.7979  0.4918  1.2953
17815TIP3   OH274935   3.499   4.154  14.927  0.2448 -0.3475 -0.2173
17815TIP3    H174936   3.409   4.172  14.899 -0.4232 -1.6069  0.9554
17815TIP3    H274937   3.520   4.070  14.885  0.1742 -0.9581  0.9130
17816TIP3   OH274938   3.096   2.313   6.154  0.9258 -0.0749 -0.0775
17816TIP3    H174939   3.001   2.314   6.143  0.8030  0.9792  0.8741
17816TIP3    H274940   3.110   2.348   6.242  2.2675  1.6438 -0.9131
17817TIP3   OH274941   1.276   0.212  16.789 -0.3130  0.0054  0.0230
17817TIP3    H174942   1.196   0.264  16.793  0.2992  0.9331  0.7595
17817TIP3    H274943   1.345   0.272  16.818  0.2618 -1.5005  1.9933
17818TIP3   OH274944   1.549   2.081  14.748  0.7636  0.2781  0.2199
17818TIP3    H174945   1.521   1.992  14.770 -0.2745  0.8434  1.2855
17818TIP3    H274946   1.535   2.132  14.828  1.8745  1.2930 -0.1939
17819TIP3   OH274947   0.211   5.245  13.100 -0.2325 -0.2874  0.0524
17819TIP3    H174948   0.152   5.173  13.123 -0.4012  0.4167  2.0875
17819TIP3    H274949   0.152   5.320  13.088  0.0889 -0.0415  0.0073
17820TIP3   OH274950   3.023   3.352   0.150 -0.2109 -0.2185 -0.2119
17820TIP3    H174951   3.036   3.397   0.234  0.4797  1.0667 -0.9725
17820TIP3    H274952   3.084   3.278   0.154  0.5804  0.4310  0.0110
17821TIP3   OH274953   0.987   3.893   3.607  0.0084  0.1481  0.0250
17821TIP3    H174954   0.989   3.882   3.512  0.4245  0.9997 -0.0679
17821TIP3    H274955   0.894   3.885   3.629 -0.1702  0.5726 -0.5348
17822TIP3   OH274956   6.184   2.194  16.405  0.0170  0.1545  0.4239
17822TIP3    H174957   6.225   2.182  16.319 -0.9865 -0.8019  0.0468
17822TIP3    H274958   6.113   2.256  16.389  0.7458  1.1262  0.8885
17823TIP3   OH274959   3.406   4.529  13.054 -0.0365  0.1301 -0.2841
17823TIP3    H174960   3.380   4.597  13.117  1.4283 -0.5526  1.1403
17823TIP3    H274961   3.472   4.572  12.999  1.0354 -0.1299  0.7405
17824TIP3   OH274962   3.928   5.659  12.473  0.1398 -0.0584 -0.7097
17824TIP3    H174963   3.994   5.682  12.539 -0.3702 -1.5319  0.3772
17824TIP3    H274964   3.964   5.582  12.430 -0.8464 -0.8630 -0.1199
17825TIP3   OH274965   6.697   4.392   1.582 -0.5775 -0.4166  0.2011
17825TIP3    H174966   6.775   4.348   1.549 -0.6301 -0.6129  0.3345
17825TIP3    H274967   6.705   4.482   1.551 -0.8698 -0.7110 -0.7846
17826TIP3   OH274968   2.768   3.933  12.860 -0.0119 -0.3352 -0.2572
17826TIP3    H174969   2.701   3.975  12.805 -0.5027 -0.0205  0.5733
17826TIP3    H274970   2.746   3.959  12.949  1.2326 -0.2194  0.0337
17827TIP3   OH274971   5.133   1.072  11.381 -0.7292 -0.3117 -0.3275
17827TIP3    H174972   5.105   0.980  11.378 -0.9574 -0.2284 -1.2555
17827TIP3    H274973   5.052   1.120  11.400 -0.9854 -0.1819 -1.6134
17828TIP3   OH274974   6.323   5.902  14.870  0.0569 -0.2363  0.7645
17828TIP3    H174975   6.323   5.854  14.952  1.3168 -1.8205 -0.0969
17828TIP3    H274976   6.320   5.834  14.802  0.7135  0.9428 -0.5060
17829TIP3   OH274977   0.196   4.635   1.440  0.2874 -0.3067  0.0151
17829TIP3    H174978   0.284   4.640   1.476 -0.1366 -0.7143  1.1441
17829TIP3    H274979   0.206   4.660   1.348  1.2297  1.9068  0.6549
17830TIP3   OH274980   6.662   6.632   6.021 -0.1317  0.5067  0.3482
17830TIP3    H174981   6.697   6.721   6.029 -0.9163  0.7937  0.8048
17830TIP3    H274982   6.643   6.606   6.112 -1.6016  0.5925  0.0945
17831TIP3   OH274983   2.327   2.668   3.393  0.1173 -0.4095 -0.3199
17831TIP3    H174984   2.282   2.685   3.476  0.2704 -0.6096 -0.1976
17831TIP3    H274985   2.419   2.657   3.416  0.3128  0.4529 -0.6241
17832TIP3   OH274986   5.190   5.030   1.135  0.2324 -0.0274 -0.3647
17832TIP3    H174987   5.116   5.073   1.179  0.2111 -1.4357  1.0645
17832TIP3    H274988   5.246   5.001   1.207  2.5978  1.6026 -1.3983
17833TIP3   OH274989   5.775   5.471   5.297  0.7661  0.4579 -0.0741
17833TIP3    H174990   5.719   5.426   5.361  0.4652  0.1484 -0.5547
17833TIP3    H274991   5.718   5.536   5.257  1.6542  2.6631  1.9540
17834TIP3   OH274992   3.202   1.556   5.626 -0.0566 -0.5461  0.9176
17834TIP3    H174993   3.143   1.557   5.551 -1.2597  1.2605  1.8204
17834TIP3    H274994   3.147   1.528   5.699  0.1430  1.2934  1.8093
17835TIP3   OH274995   6.256   6.149  13.606  0.3679  0.1712  0.2560
17835TIP3    H174996   6.278   6.236  13.573 -0.0784  0.7272  1.3576
17835TIP3    H274997   6.339   6.102  13.609  0.5593  0.4240 -0.6857
17836TIP3   OH274998   0.049   4.789  15.496 -0.5034 -0.3745  0.0900
17836TIP3    H174999   0.037   4.884  15.498 -1.6072 -0.4919 -0.3417
17836TIP3    H275000  -0.034   4.755  15.462  0.1777 -1.4391 -0.5657
17837TIP3   OH275001   5.851   3.427   2.312  0.1180 -0.2719 -0.7077
17837TIP3    H175002   5.849   3.337   2.344  0.6198 -0.9973 -2.5737
17837TIP3    H275003   5.770   3.436   2.261 -0.0828  0.4416 -0.2740
17838TIP3   OH275004   4.401   6.079  12.033 -0.2459  0.3078  0.4867
17838TIP3    H175005   4.471   6.074  11.968  0.2668 -1.6056  1.1248
17838TIP3    H275006   4.382   6.172  12.040  1.6360  0.8049 -0.3351
17839TIP3   OH275007   0.942   3.238  15.804 -0.1023  0.2810  0.4955
17839TIP3    H175008   0.879   3.215  15.873 -0.1122  1.4086  0.8983
17839TIP3    H275009   0.901   3.209  15.723  0.2387 -1.7400  1.0119
17840TIP3   OH275010   5.842   1.120  12.117  0.0446 -1.0849 -0.2332
17840TIP3    H175011   5.837   1.117  12.022  1.1975 -0.1350 -0.3462
17840TIP3    H275012   5.925   1.076  12.138 -0.0054 -0.9295  0.3029
17841TIP3   OH275013   2.483   3.763  14.783  0.4446  0.1029 -0.0956
17841TIP3    H175014   2.514   3.833  14.842  0.9349  0.4295 -0.7264
17841TIP3    H275015   2.558   3.705  14.774 -0.3209 -1.1729  1.3610
17842TIP3   OH275016   2.145   4.889   3.401 -0.4314 -0.1783 -0.3323
17842TIP3    H175017   2.115   4.970   3.360 -0.3641 -0.5817 -1.2094
17842TIP3    H275018   2.239   4.885   3.379 -0.9409 -1.7818 -2.6267
17843TIP3   OH275019   4.494   5.267   3.859 -0.1220  0.5645 -0.6035
17843TIP3    H175020   4.443   5.327   3.914 -0.0597  1.0311 -1.0467
17843TIP3    H275021   4.462   5.284   3.770  0.1038  0.1473 -0.7643
17844TIP3   OH275022   0.464   6.265   4.485 -0.0622 -0.4306  0.1601
17844TIP3    H175023   0.405   6.221   4.424  0.6656 -1.4500  0.1643
17844TIP3    H275024   0.492   6.196   4.545 -0.3668  0.4418  1.3532
17845TIP3   OH275025   4.452   2.717   0.455 -0.0157 -0.1440  0.0756
17845TIP3    H175026   4.535   2.671   0.445  0.2850  0.6605 -1.3715
17845TIP3    H275027   4.400   2.691   0.378 -0.5345  0.4913  0.1974
17846TIP3   OH275028   5.830   4.920  10.456 -0.0907  0.7417  0.1791
17846TIP3    H175029   5.816   4.827  10.441  0.3683  0.5920  0.6196
17846TIP3    H275030   5.779   4.939  10.535  1.3531  0.4054  1.2375
17847TIP3   OH275031   6.309   6.093  11.054 -0.0747  0.8675 -0.4463
17847TIP3    H175032   6.307   6.107  10.960 -0.3529 -1.3065 -0.8244
17847TIP3    H275033   6.218   6.079  11.079  0.0575  0.8019  0.0237
17848TIP3   OH275034   4.735   4.071   3.887 -0.1051  0.4494 -0.0032
17848TIP3    H175035   4.748   3.983   3.923  0.7555  0.4403 -0.3182
17848TIP3    H275036   4.685   4.117   3.955 -1.3648 -0.5459 -0.2266
17849TIP3   OH275037   3.346   2.349  13.419  0.6640 -1.0326 -0.0541
17849TIP3    H175038   3.276   2.326  13.358  1.1880 -2.2791 -0.2311
17849TIP3    H275039   3.383   2.264  13.446  2.4229 -0.4051 -0.3567
17850TIP3   OH275040   4.744   5.771   1.931  0.1406 -0.2201  0.4122
17850TIP3    H175041   4.739   5.790   2.024 -1.3667 -0.9475  0.5162
17850TIP3    H275042   4.780   5.682   1.927 -0.3046 -0.4006  0.3408
17851TIP3   OH275043   3.352   1.651   1.973  0.6872 -0.0880  0.1011
17851TIP3    H175044   3.358   1.708   1.896 -0.0618  0.4867  0.4633
17851TIP3    H275045   3.322   1.567   1.938 -1.5103  0.6862 -0.0361
17852TIP3   OH275046   2.184   4.367   2.820  0.0303  0.4908  0.6796
17852TIP3    H175047   2.095   4.379   2.851 -0.8443  1.3534 -1.8715
17852TIP3    H275048   2.187   4.276   2.791 -0.4694  0.7987 -0.3939
17853TIP3   OH275049   4.246   2.761   5.103  0.1621  0.1709  0.1559
17853TIP3    H175050   4.214   2.783   5.190  0.4454 -0.4511  0.4244
17853TIP3    H275051   4.167   2.737   5.055  0.1669 -1.1389  0.7533
17854TIP3   OH275052   2.900   3.022  16.803  0.2692 -0.3913 -1.0389
17854TIP3    H175053   2.970   3.084  16.782  1.0338 -1.2006 -0.9810
17854TIP3    H275054   2.819   3.070  16.787  0.8374  0.6387 -0.9179
17855TIP3   OH275055   4.788   6.755  11.299  0.2343  0.5406 -0.2567
17855TIP3    H175056   4.799   6.695  11.373 -0.5357  0.1105 -0.4810
17855TIP3    H275057   4.698   6.786  11.306 -0.7586 -1.5511 -2.4805
17856TIP3   OH275058   2.947   3.584   5.867 -0.5713 -0.0531 -0.7947
17856TIP3    H175059   2.886   3.536   5.924 -0.7818  1.5971  0.4368
17856TIP3    H275060   3.011   3.622   5.927 -0.7778  1.7162 -1.6407
17857TIP3   OH275061   1.753   5.040   1.939 -0.3052 -0.4128  0.0238
17857TIP3    H175062   1.754   5.009   2.030 -0.1395 -0.3738  0.0352
17857TIP3    H275063   1.812   4.980   1.893 -1.9627 -1.7312 -0.4848
17858TIP3   OH275064   1.545   2.286   3.074  0.0386 -0.1224  0.2267
17858TIP3    H175065   1.544   2.193   3.055 -0.8359 -0.3019  1.0654
17858TIP3    H275066   1.499   2.327   3.000 -3.1743 -0.7885  1.6938
17859TIP3   OH275067   5.286   1.475  11.360 -0.0163 -0.4196  0.0951
17859TIP3    H175068   5.330   1.441  11.438 -0.6087  0.2736  0.7422
17859TIP3    H275069   5.297   1.570  11.365 -0.9442 -0.2902 -0.1134
17860TIP3   OH275070   3.251   5.330   5.583  0.0152 -0.0348  0.2921
17860TIP3    H175071   3.316   5.334   5.653  0.4643  0.5026 -0.1410
17860TIP3    H275072   3.176   5.379   5.617  0.5018  0.8434  0.1295
17861TIP3   OH275073   2.843   0.877   4.657  0.5311 -0.0469  0.0485
17861TIP3    H175074   2.810   0.966   4.652  1.2455  0.2206 -0.0922
17861TIP3    H275075   2.937   0.885   4.640  0.4229 -0.9662 -1.1975
17862TIP3   OH275076   3.846   2.031   1.388  0.0080  0.3335  0.4931
17862TIP3    H175077   3.869   1.943   1.419 -0.7868 -0.3490 -0.7429
17862TIP3    H275078   3.835   2.020   1.294  0.7171  1.9645  0.1995
17863TIP3   OH275079   6.409   0.575  15.359  0.0119 -0.5130  0.0195
17863TIP3    H175080   6.432   0.489  15.323 -0.1395 -0.3715 -0.4348
17863TIP3    H275081   6.388   0.559  15.451  0.0733 -0.9468 -0.0422
17864TIP3   OH275082   6.490   4.262   6.025  0.5124  0.4074  0.1134
17864TIP3    H175083   6.466   4.325   6.093 -0.0887 -0.3103  0.5714
17864TIP3    H275084   6.479   4.177   6.066 -0.6279 -0.0717 -1.1199
17865TIP3   OH275085   1.251   6.719   3.571  0.2082 -0.2716 -0.4315
17865TIP3    H175086   1.267   6.717   3.477 -0.1264 -0.1321 -0.4935
17865TIP3    H275087   1.174   6.775   3.581 -0.1841 -0.8623 -0.1299
17866TIP3   OH275088   6.542   3.366  11.470 -0.1768  0.4549 -0.7263
17866TIP3    H175089   6.482   3.430  11.508 -0.2487  0.1634 -0.3445
17866TIP3    H275090   6.566   3.309  11.543  3.4476  2.6892  0.0459
17867TIP3   OH275091   3.040   0.545  14.708 -0.0379  0.1428 -0.5490
17867TIP3    H175092   3.047   0.523  14.800 -0.1199 -0.3513 -0.6606
17867TIP3    H275093   2.965   0.495  14.677  0.8712 -0.8281 -1.2303
17868TIP3   OH275094   2.837   3.450  11.840 -0.3941 -0.0691  0.0279
17868TIP3    H175095   2.867   3.541  11.844  0.1853 -0.2868  0.9862
17868TIP3    H275096   2.912   3.399  11.869 -1.2338 -0.7345  1.0983
17869TIP3   OH275097   5.989   3.085  12.115 -0.0676  0.0542 -0.3960
17869TIP3    H175098   6.073   3.119  12.086 -0.4222  2.5370  1.1856
17869TIP3    H275099   6.008   3.037  12.195 -0.1489  0.8370  0.1053
17870TIP3   OH275100   1.500   0.590  12.222  0.3762  0.4856 -0.1898
17870TIP3    H175101   1.493   0.598  12.317 -0.3821  0.3616 -0.2275
17870TIP3    H275102   1.555   0.663  12.195 -0.2328  1.1201  0.2462
17871TIP3   OH275103   1.843   2.040  14.043 -0.1858 -0.5378  0.0635
17871TIP3    H175104   1.804   1.954  14.028  1.2363 -0.7074 -3.8478
17871TIP3    H275105   1.801   2.097  13.979  0.6283  1.1212  0.9319
17872TIP3   OH275106   6.242   6.132  12.334 -0.0110  0.6167  0.1155
17872TIP3    H175107   6.236   6.206  12.394  1.1154  2.1858 -1.6157
17872TIP3    H275108   6.282   6.168  12.255  0.0975 -1.7387 -0.9834
17873TIP3   OH275109   2.068   0.470   4.296 -0.3156 -0.4092 -0.0576
17873TIP3    H175110   2.083   0.498   4.386  0.6612 -1.1822  0.0343
17873TIP3    H275111   1.998   0.528   4.264  0.0344  0.5482  0.8599
17874TIP3   OH275112   1.282   0.673  10.728  0.2820  0.0547  0.5054
17874TIP3    H175113   1.286   0.696  10.635  0.5515  0.4564  0.6139
17874TIP3    H275114   1.372   0.651  10.752  0.3687  0.7519  0.8647
17875TIP3   OH275115   4.390   4.422  13.623 -0.4767  0.6351 -0.4825
17875TIP3    H175116   4.352   4.489  13.679  0.9261 -0.4988  1.9629
17875TIP3    H275117   4.326   4.350  13.625 -0.1825  0.3881  0.1157
17876TIP3   OH275118   0.784   4.358  17.030  0.4691 -0.3164 -0.0511
17876TIP3    H175119   0.848   4.288  17.041  1.7545  0.7929 -0.2041
17876TIP3    H275120   0.753   4.349  16.940  0.3988 -0.8652  0.0259
17877TIP3   OH275121   5.466   3.738  15.923  0.5273 -0.2746 -0.6116
17877TIP3    H175122   5.541   3.777  15.968 -0.8930 -0.6764  2.3716
17877TIP3    H275123   5.487   3.745  15.830  3.5545  0.9561  0.0494
17878TIP3   OH275124   3.441   3.638   2.139  0.5373 -0.4935 -0.1195
17878TIP3    H175125   3.425   3.647   2.045  2.4995  0.1756 -0.4207
17878TIP3    H275126   3.534   3.618   2.146  0.6468  0.4754  1.7337
17879TIP3   OH275127   3.836   5.898  11.375  0.2893  0.0722 -0.1034
17879TIP3    H175128   3.776   5.906  11.300 -0.3737 -0.9322  0.3057
17879TIP3    H275129   3.870   5.987  11.387 -1.4091  0.7793 -0.1100
17880TIP3   OH275130   3.654   5.639  12.540 -0.7703  0.1521 -0.0572
17880TIP3    H175131   3.742   5.609  12.518 -1.7223 -1.3306 -2.2057
17880TIP3    H275132   3.666   5.726  12.579  1.5237  0.5933 -1.6340
17881TIP3   OH275133   5.105   1.915   1.933 -0.1883  0.5303  0.3228
17881TIP3    H175134   5.117   2.001   1.974 -1.2949 -0.2421  2.4164
17881TIP3    H275135   5.027   1.925   1.879  1.0199  1.4341 -1.3659
17882TIP3   OH275136   1.284   0.667   0.141  0.2122 -0.2318  0.4746
17882TIP3    H175137   1.234   0.639   0.218  0.9960 -1.2406  0.6348
17882TIP3    H275138   1.366   0.620   0.147  0.3499 -0.2171 -0.9236
17883TIP3   OH275139   0.972   0.457   4.707  0.6420 -0.3598 -0.4126
17883TIP3    H175140   1.045   0.398   4.723  1.7640  0.9667 -0.4502
17883TIP3    H275141   0.925   0.418   4.633  2.6926 -0.0484 -1.9649
17884TIP3   OH275142   0.897   0.345  14.040  0.3303  0.2766  0.2274
17884TIP3    H175143   0.987   0.356  14.009  0.2268  0.6676  0.0601
17884TIP3    H275144   0.900   0.374  14.131  0.4485 -0.0482  0.3282
17885TIP3   OH275145   2.309   6.574  10.788  0.0655 -0.4495 -0.2004
17885TIP3    H175146   2.392   6.537  10.820 -0.9795 -1.6911  1.2793
17885TIP3    H275147   2.247   6.501  10.794 -0.5755 -0.4301 -4.0464
17886TIP3   OH275148   2.281   0.417   5.218  0.0974  0.3904 -0.2759
17886TIP3    H175149   2.320   0.393   5.301 -0.2861  3.3342  0.8809
17886TIP3    H275150   2.314   0.505   5.200 -2.9053  1.4702 -1.1886
17887TIP3   OH275151   4.538   5.248   2.717  0.1921 -0.7344 -0.0963
17887TIP3    H175152   4.607   5.267   2.653 -0.1847  0.8888 -0.0562
17887TIP3    H275153   4.463   5.222   2.664 -0.3234  1.2375 -0.4261
17888TIP3   OH275154   5.846   5.801   1.866  0.6113  0.1235  0.2976
17888TIP3    H175155   5.933   5.792   1.826  0.9820  1.5494  0.7441
17888TIP3    H275156   5.863   5.833   1.954 -0.4100  1.4970  0.0236
17889TIP3   OH275157   3.371   2.463  15.025  0.0638 -0.3463  0.4573
17889TIP3    H175158   3.414   2.547  15.040  0.3923 -0.8549  2.6604
17889TIP3    H275159   3.423   2.399  15.074  0.4491 -2.0823 -1.9935
17890TIP3   OH275160   3.978   2.050   4.922  0.5493 -0.7574  0.0802
17890TIP3    H175161   3.892   2.018   4.950 -0.3513  0.0162 -1.6677
17890TIP3    H275162   4.007   2.104   4.995 -1.3934  0.6112 -0.0771
17891TIP3   OH275163   2.637   5.248   3.060 -0.1568  0.0952  0.5135
17891TIP3    H175164   2.575   5.258   2.988  1.1559  1.2595 -0.4958
17891TIP3    H275165   2.718   5.289   3.029  1.3401 -1.8786  1.5371
17892TIP3   OH275166   6.491   1.671   3.719 -0.5738 -0.0749  0.2101
17892TIP3    H175167   6.578   1.652   3.683 -1.0231 -1.4452 -0.2366
17892TIP3    H275168   6.487   1.766   3.726  0.1978  0.1344 -1.7239
17893TIP3   OH275169   4.499   2.747   4.953 -0.2730  0.0057  0.1992
17893TIP3    H175170   4.430   2.711   5.009 -1.0367 -0.6873 -1.1210
17893TIP3    H275171   4.580   2.729   5.000 -0.8176 -1.4722  0.6294
17894TIP3   OH275172   6.808   6.033  12.018  0.2414  0.1800 -0.0888
17894TIP3    H175173   6.898   6.006  12.035  0.2754 -1.2234 -2.1185
17894TIP3    H275174   6.754   5.968  12.062  0.2237  0.3740  0.1803
17895TIP3   OH275175   1.310   2.209   2.144 -0.5976 -0.3559  0.4183
17895TIP3    H175176   1.251   2.253   2.083 -0.7453 -1.7901 -0.5361
17895TIP3    H275177   1.396   2.217   2.104 -0.6439 -0.9993  0.1664
17896TIP3   OH275178   5.394   5.737   1.952  0.8351 -0.0369  0.4313
17896TIP3    H175179   5.376   5.767   2.041 -1.1468 -1.6913  0.6545
17896TIP3    H275180   5.308   5.728   1.911  1.6414 -0.4352 -1.2796
17897TIP3   OH275181   2.930   1.407  17.034  0.4513  0.0334 -0.6576
17897TIP3    H175182   2.860   1.459  17.073  0.4644 -0.5919  0.2421
17897TIP3    H275183   2.943   1.445  16.948  2.5293  3.5065  0.9737
17898TIP3   OH275184   4.980   1.873   4.598 -0.4900 -0.6456  0.2147
17898TIP3    H175185   5.072   1.851   4.583 -0.6338 -1.3840  0.3722
17898TIP3    H275186   4.959   1.938   4.531  0.7275  1.1538  1.4808
17899TIP3   OH275187   4.740   2.899   0.427  0.3816 -0.3300 -0.0871
17899TIP3    H175188   4.768   2.920   0.338  0.0556 -1.2519 -0.4175
17899TIP3    H275189   4.672   2.964   0.447  0.2336 -0.3189 -0.6279
17900TIP3   OH275190   1.183   3.820  11.395 -0.3025  0.5961 -0.0664
17900TIP3    H175191   1.168   3.903  11.440 -1.8375 -1.0921  2.8273
17900TIP3    H275192   1.269   3.791  11.424 -0.4174  0.4597  0.1360
17901TIP3   OH275193   6.379   6.449   5.906  0.2672 -0.0411  0.0710
17901TIP3    H175194   6.370   6.453   6.001  0.1713 -2.7132  0.2439
17901TIP3    H275195   6.301   6.493   5.872  0.3978  1.1189  1.1716
17902TIP3   OH275196   2.813   2.511  14.916 -0.0265 -0.2190 -0.0686
17902TIP3    H175197   2.877   2.578  14.892 -1.1651  0.7679 -0.4577
17902TIP3    H275198   2.731   2.542  14.878 -0.2471 -2.7989 -1.9660
17903TIP3   OH275199   0.269   3.908  14.139  0.6092  0.7017  0.3848
17903TIP3    H175200   0.214   3.875  14.210 -1.2739 -0.2417 -1.3713
17903TIP3    H275201   0.232   3.994  14.118 -0.2838  0.0676 -0.8005
17904TIP3   OH275202   6.510   3.404  14.523 -0.3510  0.8270 -0.1629
17904TIP3    H175203   6.501   3.412  14.618  0.5182 -0.6874  0.0836
17904TIP3    H275204   6.603   3.386  14.510 -0.3289  1.6762 -1.3787
17905TIP3   OH275205   1.118   2.594  12.061  0.1599 -0.1976  0.0293
17905TIP3    H175206   1.058   2.630  12.126  0.6905  1.1507 -0.1930
17905TIP3    H275207   1.122   2.660  11.992  1.5075 -0.4744 -0.1983
17906TIP3   OH275208   2.893   4.189   5.915 -0.8482 -0.0206  0.0271
17906TIP3    H175209   2.850   4.110   5.947 -1.3625  0.2160 -0.0819
17906TIP3    H275210   2.853   4.206   5.830  0.0044 -0.2368 -0.4330
17907TIP3   OH275211   2.744   2.307   6.571 -0.1543  0.5746 -0.3106
17907TIP3    H175212   2.661   2.271   6.603 -0.7093  1.1887 -1.0226
17907TIP3    H275213   2.811   2.252   6.611 -0.9296 -0.4333 -0.3653
17908TIP3   OH275214   4.716   4.160  14.337 -0.4195  0.4214 -0.5794
17908TIP3    H175215   4.762   4.208  14.269 -0.6694 -0.2001 -1.1976
17908TIP3    H275216   4.723   4.068  14.312 -1.3925  0.2574 -0.3248
17909TIP3   OH275217   2.166   5.648   1.436  0.6666  0.5884 -0.0133
17909TIP3    H175218   2.108   5.683   1.505  0.3974 -1.2873  0.7607
17909TIP3    H275219   2.148   5.704   1.360 -0.0441  1.8479  1.0284
17910TIP3   OH275220   3.975   5.857   0.302  0.2355 -0.2633  0.1895
17910TIP3    H175221   4.008   5.930   0.355 -0.0744 -0.8912  1.2819
17910TIP3    H275222   3.947   5.792   0.366 -1.7228 -0.3710 -0.7154
17911TIP3   OH275223   2.824   6.658  14.496 -0.3555 -0.3870  0.1769
17911TIP3    H175224   2.741   6.632  14.457  0.0593  0.1096 -1.1163
17911TIP3    H275225   2.889   6.601  14.455 -0.0958 -1.1311  1.5670
17912TIP3   OH275226   4.714   5.886  11.233 -0.0593  0.2969  0.1680
17912TIP3    H175227   4.756   5.806  11.201 -0.8144 -0.4677  1.0290
17912TIP3    H275228   4.784   5.933  11.279 -0.0649 -0.8552  1.4001
17913TIP3   OH275229   5.121   5.535  16.200  0.3685 -0.2555 -0.1145
17913TIP3    H175230   5.206   5.574  16.180  0.9127 -1.6567 -0.6424
17913TIP3    H275231   5.130   5.501  16.289  0.0109  0.4617  0.2080
17914TIP3   OH275232   6.578   0.765   3.571 -0.0241 -0.3519 -0.1359
17914TIP3    H175233   6.608   0.701   3.507  0.5915 -1.1533  0.9314
17914TIP3    H275234   6.658   0.802   3.608 -0.3710  0.0280  0.2591
17915TIP3   OH275235   2.249   4.878   1.858 -0.4072  0.3556 -0.3869
17915TIP3    H175236   2.343   4.863   1.846 -0.3703  1.2748 -1.3767
17915TIP3    H275237   2.207   4.829   1.787 -0.5869  1.0305 -0.7511
17916TIP3   OH275238   3.347   0.018  13.954  0.1869  0.2886 -0.2150
17916TIP3    H175239   3.361   0.072  14.031  1.4104  0.9688 -0.8668
17916TIP3    H275240   3.432  -0.025  13.940  0.1243  0.5211 -1.4158
17917TIP3   OH275241   6.543   5.181   0.965  0.0535 -0.0979  0.0026
17917TIP3    H175242   6.529   5.089   0.985  1.2866 -0.3264 -0.1256
17917TIP3    H275243   6.471   5.226   1.009  1.2829 -0.7924  2.9710
17918TIP3   OH275244   6.010   5.216   3.060 -0.0760 -0.1941  0.0480
17918TIP3    H175245   5.994   5.260   2.976  0.8484 -0.5452 -0.3274
17918TIP3    H275246   5.964   5.133   3.053  0.7470 -0.6198 -0.4918
17919TIP3   OH275247   5.371   5.721  15.531  0.1714 -0.4345 -0.1426
17919TIP3    H175248   5.414   5.729  15.445 -0.4862 -3.2271 -0.8298
17919TIP3    H275249   5.371   5.627  15.548 -1.6765 -0.1102  1.9319
17920TIP3   OH275250   5.909   6.220   0.066  0.1372 -0.6560  0.1317
17920TIP3    H175251   5.977   6.254   0.007  0.3122  0.1154  0.7705
17920TIP3    H275252   5.827   6.237   0.019  0.0711  2.1166  1.0541
17921TIP3   OH275253   4.268   5.298  12.820 -0.1295 -0.1959  0.7150
17921TIP3    H175254   4.340   5.250  12.859 -0.4200 -0.5761  0.7888
17921TIP3    H275255   4.304   5.335  12.739  0.0955 -0.5213  0.6669
17922TIP3   OH275256   5.461   6.299  11.046 -0.4187  0.1694  0.1438
17922TIP3    H175257   5.414   6.218  11.064 -0.7599 -0.4068 -2.7955
17922TIP3    H275258   5.522   6.277  10.975  0.1978  2.2440 -0.0603
17923TIP3   OH275259   2.379   2.122  15.625 -0.1302  0.1875 -0.3338
17923TIP3    H175260   2.366   2.058  15.695 -0.0406 -0.1575 -0.6351
17923TIP3    H275261   2.304   2.181  15.632 -1.5998 -1.4273 -1.6787
17924TIP3   OH275262   5.891   3.722  15.230  0.4395  0.8095 -0.1563
17924TIP3    H175263   5.833   3.652  15.203 -0.0654 -0.0095  2.7215
17924TIP3    H275264   5.833   3.787  15.271  1.3344  0.6966  1.3663
17925TIP3   OH275265   1.726   4.172   2.833  0.3119 -0.0852  0.2262
17925TIP3    H175266   1.671   4.115   2.779  2.5882 -1.3864 -0.8441
17925TIP3    H275267   1.807   4.123   2.844  1.1280  1.5736  2.1204
17926TIP3   OH275268   1.164   1.299   6.014 -0.6009  0.3090  0.4800
17926TIP3    H175269   1.188   1.208   6.001 -1.7716 -0.0665  0.8062
17926TIP3    H275270   1.169   1.312   6.109 -2.4872 -0.0495  0.6645
17927TIP3   OH275271   0.391   2.742   4.696 -0.2134  0.0170 -0.1942
17927TIP3    H175272   0.342   2.824   4.708 -0.2896  0.0032 -0.3959
17927TIP3    H275273   0.371   2.691   4.774  1.5016  1.0129  0.9530
17928TIP3   OH275274   6.769   1.534  15.477  0.1315 -0.3134  0.2895
17928TIP3    H175275   6.831   1.461  15.474  0.3545 -0.2666  2.2645
17928TIP3    H275276   6.825   1.612  15.473  0.1003 -0.2710  0.6306
17929TIP3   OH275277   4.549   5.686  15.543 -0.4078  0.6219  0.1122
17929TIP3    H175278   4.493   5.616  15.577  1.2729 -1.4168 -1.0559
17929TIP3    H275279   4.619   5.694  15.608 -0.5484  1.1866  0.2008
17930TIP3   OH275280   0.835   6.541   0.853  0.7344 -0.4396  0.0742
17930TIP3    H175281   0.887   6.614   0.888  1.6387 -0.6247 -0.8278
17930TIP3    H275282   0.745   6.574   0.853  0.8660  0.0114  1.3537
17931TIP3   OH275283   0.605   4.162  16.844 -0.0651  0.2140 -0.1614
17931TIP3    H175284   0.649   4.191  16.764  0.3153 -1.9334 -0.7865
17931TIP3    H275285   0.607   4.239  16.901  1.7421  1.1018 -1.3215
17932TIP3   OH275286   5.394   6.308  12.307 -0.1877  0.0714 -0.1623
17932TIP3    H175287   5.473   6.354  12.336  0.3221 -0.2871 -0.9310
17932TIP3    H275288   5.353   6.277  12.388  0.9304 -0.4903  0.2264
17933TIP3   OH275289   0.320   0.517   3.440 -0.0442  0.1617 -0.2228
17933TIP3    H175290   0.348   0.457   3.509 -0.7390 -0.1679 -0.2171
17933TIP3    H275291   0.394   0.578   3.429  0.7111 -0.7430 -0.2947
17934TIP3   OH275292   4.793   1.019  13.604  0.1967 -0.0927  0.0899
17934TIP3    H175293   4.744   1.090  13.645  0.7719 -0.3759  1.3045
17934TIP3    H275294   4.734   0.986  13.536 -1.7278 -1.0722  2.1158
17935TIP3   OH275295   0.185   1.021  11.420 -0.5767 -0.2503 -0.3828
17935TIP3    H175296   0.119   1.072  11.373  0.0743  0.2426 -0.7718
17935TIP3    H275297   0.210   1.077  11.494 -1.2128 -0.7995  0.2608
17936TIP3   OH275298   3.282   2.036  15.600 -0.1044  0.3902 -0.6230
17936TIP3    H175299   3.257   2.124  15.628  1.2478  0.3010  1.0766
17936TIP3    H275300   3.378   2.037  15.600 -0.0487 -1.2681  0.1591
17937TIP3   OH275301   0.003   1.720  17.177  0.0822  0.4783  0.2196
17937TIP3    H175302   0.075   1.752  17.121 -1.3092  1.5574 -1.0315
17937TIP3    H275303  -0.057   1.676  17.116 -0.5466 -0.0297  1.1818
17938TIP3   OH275304   1.991   4.811  16.564  0.0166  0.1001  0.5610
17938TIP3    H175305   2.018   4.899  16.540  0.9808  0.6433  3.2703
17938TIP3    H275306   1.909   4.823  16.611  0.9161 -0.1762  2.3097
17939TIP3   OH275307   0.772   0.331  15.675  0.4074  0.2679  0.4660
17939TIP3    H175308   0.826   0.410  15.663  2.2048 -0.5540  2.4840
17939TIP3    H275309   0.692   0.363  15.717 -0.0547  1.3049 -1.1039
17940TIP3   OH275310   2.385   2.694   5.328  0.2525 -0.2838 -0.5762
17940TIP3    H175311   2.382   2.788   5.349  1.0089 -0.5137  0.6458
17940TIP3    H275312   2.417   2.653   5.407  0.0778 -1.5806 -1.1554
17941TIP3   OH275313   1.747   1.186   0.175 -0.5884  0.2169  0.2602
17941TIP3    H175314   1.798   1.190   0.256 -0.0701 -0.1871 -0.0371
17941TIP3    H275315   1.812   1.193   0.106 -1.1863  2.5821 -0.1534
17942TIP3   OH275316   3.059   3.882  12.112  0.0452 -0.6322 -0.2494
17942TIP3    H175317   3.025   3.817  12.173 -0.0236 -0.8001 -0.4650
17942TIP3    H275318   3.154   3.874  12.120  0.0558  0.4571  1.0088
17943TIP3   OH275319   4.436   4.045   3.059  0.1798  0.3654  0.4277
17943TIP3    H175320   4.401   4.126   3.022 -0.9478 -0.1664  0.2817
17943TIP3    H275321   4.358   3.991   3.076  0.4969  0.8975  4.4344
17944TIP3   OH275322   6.727   5.964   1.810 -0.2507 -0.5127 -0.0442
17944TIP3    H175323   6.661   5.918   1.758 -1.0290  1.6031 -1.0522
17944TIP3    H275324   6.685   6.046   1.835  1.1846 -0.1548  1.3806
17945TIP3   OH275325   1.490   1.801   3.843  0.0943 -0.3057 -0.1120
17945TIP3    H175326   1.544   1.735   3.800  1.4176 -0.0282  1.0106
17945TIP3    H275327   1.430   1.832   3.776 -0.4838 -2.5518 -0.6974
17946TIP3   OH275328   3.818   5.492  16.930 -0.6256  0.9358 -1.3416
17946TIP3    H175329   3.803   5.398  16.930 -1.3019  0.8720  2.2606
17946TIP3    H275330   3.731   5.530  16.945 -0.0445  1.9141 -0.2367
17947TIP3   OH275331   3.934   6.330   0.681 -0.2339  0.0407  0.4811
17947TIP3    H175332   3.897   6.312   0.595  2.2007 -1.1289 -0.4140
17947TIP3    H275333   3.974   6.417   0.672 -1.0874  0.4808  0.8560
17948TIP3   OH275334   2.636   4.939  12.754  0.0571 -0.4617 -0.6534
17948TIP3    H175335   2.627   4.908  12.843 -0.8016  1.2393 -0.0901
17948TIP3    H275336   2.672   5.028  12.763 -0.5476 -0.0557 -1.9454
17949TIP3   OH275337   5.632   4.188  13.354  0.2610 -0.3028  0.3679
17949TIP3    H175338   5.647   4.154  13.443 -0.2983 -0.5506  0.3686
17949TIP3    H275339   5.664   4.119  13.297  0.0968 -0.3812  0.3725
17950TIP3   OH275340   3.714   6.387   3.698 -0.5279  0.1859 -0.3744
17950TIP3    H175341   3.787   6.448   3.704 -1.4906  1.3215  0.2805
17950TIP3    H275342   3.659   6.420   3.627 -1.3862  0.4812  0.3978
17951TIP3   OH275343   2.970   6.590   4.807 -0.3137  0.1545  0.4168
17951TIP3    H175344   2.973   6.500   4.778  0.1478  0.6158 -1.0240
17951TIP3    H275345   2.960   6.642   4.727 -1.3057  1.3524  1.2650
17952TIP3   OH275346   3.626   3.897   4.410  0.2847 -0.5370 -0.3170
17952TIP3    H175347   3.668   3.811   4.405  1.3523 -0.0844  0.5673
17952TIP3    H275348   3.550   3.883   4.467  0.8089 -0.7572  0.3303
17953TIP3   OH275349   3.186   2.336   3.133 -0.1766 -0.7153 -0.0729
17953TIP3    H175350   3.123   2.355   3.064  0.0808 -0.7132 -0.3063
17953TIP3    H275351   3.261   2.298   3.088  1.0019  1.4951 -0.1385
17954TIP3   OH275352   4.363   1.211   6.663  0.1638 -0.1129 -0.8505
17954TIP3    H175353   4.422   1.140   6.688  1.0543  0.7672 -0.3770
17954TIP3    H275354   4.397   1.288   6.708 -0.8948  0.5853 -1.1959
17955TIP3   OH275355   5.066   5.375   5.801  0.4680 -0.2324 -0.3214
17955TIP3    H175356   5.036   5.284   5.799  3.2254 -1.2196 -1.6733
17955TIP3    H275357   5.159   5.369   5.825  0.3807  2.3822  1.0470
17956TIP3   OH275358   5.783   2.100  12.685 -0.0785  0.0392 -0.2502
17956TIP3    H175359   5.711   2.093  12.623 -0.6449  0.5110  0.3415
17956TIP3    H275360   5.762   2.177  12.738  0.4205 -0.3171  0.4881
17957TIP3   OH275361   3.544   0.115   4.225 -0.2057 -0.7158 -0.4422
17957TIP3    H175362   3.522   0.122   4.132  1.7380  2.4250 -0.8162
17957TIP3    H275363   3.605   0.041   4.230 -0.9785 -1.4510 -1.4624
17958TIP3   OH275364   5.357   0.252   0.136 -0.7375 -0.0954  0.1360
17958TIP3    H175365   5.445   0.245   0.099 -0.4386 -2.7056  1.1349
17958TIP3    H275366   5.299   0.258   0.060  0.1635 -0.2511 -0.5816
17959TIP3   OH275367   3.726   5.445   2.740  0.4325 -0.2843 -0.4078
17959TIP3    H175368   3.750   5.524   2.787 -1.5367 -0.3218  0.7752
17959TIP3    H275369   3.674   5.476   2.666 -1.0405 -0.4552  0.5143
17960TIP3   OH275370   2.803   4.430  12.220 -1.0895 -0.2908  0.0007
17960TIP3    H175371   2.823   4.524  12.222 -0.8663 -0.2880  2.7831
17960TIP3    H275372   2.732   4.421  12.157 -2.0526  1.9890  0.6714
17961TIP3   OH275373   0.906   6.238  14.068  0.0002 -0.1979 -0.3888
17961TIP3    H175374   0.963   6.271  13.998 -0.2156  1.9349  0.3818
17961TIP3    H275375   0.818   6.239  14.030  0.0001  0.1050 -0.3840
17962TIP3   OH275376   6.575   6.744  13.415  0.5001 -0.5556  0.3180
17962TIP3    H175377   6.498   6.707  13.372 -0.7576  0.2438  1.7832
17962TIP3    H275378   6.598   6.820  13.361  0.6164 -1.1254 -0.4455
17963TIP3   OH275379   4.911   0.595   2.699  0.4742 -0.5266  0.2074
17963TIP3    H175380   4.908   0.574   2.793 -1.3326 -2.8652 -0.2824
17963TIP3    H275381   4.875   0.518   2.656 -2.4409  1.9479 -2.2165
17964TIP3   OH275382   1.412   5.011   1.065  0.4384 -0.0612 -0.1143
17964TIP3    H175383   1.432   5.048   0.979 -0.2886 -0.4334 -0.4515
17964TIP3    H275384   1.428   4.917   1.055 -0.6195 -0.2488 -0.1478
17965TIP3   OH275385   2.621   4.760   1.635 -0.1876 -0.6199 -0.2747
17965TIP3    H175386   2.552   4.807   1.588  1.0710  0.9697 -0.5889
17965TIP3    H275387   2.699   4.772   1.582  1.0951  0.5076  1.7674
17966TIP3   OH275388   2.994   3.691  12.294 -0.8532  0.8496 -0.2086
17966TIP3    H175389   2.979   3.703  12.388 -2.8453 -0.5704 -0.2990
17966TIP3    H275390   3.034   3.604  12.287 -1.7725  0.4578 -0.7397
17967TIP3   OH275391   6.012   1.839   2.352 -0.1666 -0.2115  0.0400
17967TIP3    H175392   6.070   1.834   2.427 -0.6123 -0.5876  0.3620
17967TIP3    H275393   5.929   1.801   2.382 -1.1263  1.7882  0.1183
17968TIP3   OH275394   0.700   0.567   0.259  0.2810 -0.3889  0.2065
17968TIP3    H175395   0.690   0.656   0.226 -1.1781 -1.3042 -2.0542
17968TIP3    H275396   0.614   0.544   0.294  0.1228 -1.4504 -0.7985
17969TIP3   OH275397   1.620   3.715  14.150  1.1150  0.1826 -0.3582
17969TIP3    H175398   1.618   3.657  14.075 -1.0339 -0.9017  0.4391
17969TIP3    H275399   1.661   3.664  14.220  3.2308  1.2290 -0.7550
17970TIP3   OH275400   1.951   5.833  14.906  0.0327 -0.0748 -0.1368
17970TIP3    H175401   1.887   5.899  14.879  0.8173  1.4990  1.6616
17970TIP3    H275402   1.899   5.768  14.954 -0.3441  0.8236  0.7018
17971TIP3   OH275403   2.520   4.637   0.824 -0.7289  0.9682 -0.3967
17971TIP3    H175404   2.536   4.712   0.882  1.9264  0.9858 -1.0498
17971TIP3    H275405   2.483   4.676   0.745 -0.1445  1.4831 -0.4175
17972TIP3   OH275406   4.062   1.986   0.132 -0.3940 -0.4192  0.2333
17972TIP3    H175407   3.983   2.036   0.113  0.1481 -0.1267 -1.4512
17972TIP3    H275408   4.121   2.050   0.172 -0.4539 -0.2182  0.0095
17973TIP3   OH275409   6.525   0.124  16.137  0.3244 -0.0997  0.5445
17973TIP3    H175410   6.461   0.076  16.188  0.6504  0.8461  1.8815
17973TIP3    H275411   6.586   0.057  16.107 -0.3163 -0.7748  0.7043
17974TIP3   OH275412   4.091   0.804   6.420 -0.0456  0.3718 -0.0532
17974TIP3    H175413   4.146   0.876   6.452 -0.7634  0.6659  0.5234
17974TIP3    H275414   4.004   0.842   6.411  0.0950  0.2957 -2.3405
17975TIP3   OH275415   0.065   5.986  16.177  0.5908  0.6963  0.1213
17975TIP3    H175416   0.142   5.947  16.216  0.6297 -0.8975 -1.3832
17975TIP3    H275417   0.099   6.043  16.108  0.4552  0.8035  0.1421
17976TIP3   OH275418   3.185   2.052  11.669 -0.1075 -0.1316  0.4385
17976TIP3    H175419   3.108   2.027  11.720 -0.2237 -1.4250 -0.3345
17976TIP3    H275420   3.176   2.147  11.657 -1.3829 -0.2118  0.6505
17977TIP3   OH275421   6.790   1.651   5.250 -0.1196  0.2992  0.5416
17977TIP3    H175422   6.772   1.703   5.328 -1.2563  0.3154  0.2873
17977TIP3    H275423   6.704   1.636   5.211  0.3859 -0.1312 -0.4394
17978TIP3   OH275424   0.747   6.717  13.235 -0.2271 -0.5312 -0.5894
17978TIP3    H175425   0.728   6.807  13.263 -0.3913 -0.5002 -0.7941
17978TIP3    H275426   0.712   6.662  13.305  1.3216 -0.3962  0.3505
17979TIP3   OH275427   4.485   5.144   4.573  0.0776  0.9466  0.2873
17979TIP3    H175428   4.485   5.235   4.542 -1.0865  1.3052  1.2572
17979TIP3    H275429   4.421   5.143   4.644  0.8098 -0.4118  0.9668
17980TIP3   OH275430   2.512   6.232  13.839  0.1792  0.3424 -0.3215
17980TIP3    H175431   2.586   6.213  13.781  0.5737  0.7995  0.0243
17980TIP3    H275432   2.537   6.194  13.923  0.1693  0.7783 -0.1169
17981TIP3   OH275433   5.713   0.367   0.915 -0.4395  0.4469 -0.3516
17981TIP3    H175434   5.719   0.318   0.833 -1.5442 -1.7203  0.7679
17981TIP3    H275435   5.619   0.377   0.930 -0.2378  1.7070  0.1815
17982TIP3   OH275436   0.163   0.763   3.376 -0.1814  0.0928 -0.1293
17982TIP3    H175437   0.223   0.835   3.397 -1.3026  1.1253 -0.3544
17982TIP3    H275438   0.215   0.684   3.388  1.1484  0.9487 -0.0823
17983TIP3   OH275439   4.394   1.313   0.958  0.3366 -0.1868  0.1011
17983TIP3    H175440   4.367   1.312   0.866 -0.7253 -0.0107  0.4001
17983TIP3    H275441   4.325   1.361   1.003  1.0963  0.1627  0.9274
17984TIP3   OH275442   1.274   2.126  13.593  0.1093 -0.4470  0.0102
17984TIP3    H175443   1.259   2.048  13.541 -0.5694 -0.3281  0.0260
17984TIP3    H275444   1.267   2.096  13.684  3.6454 -1.1837  0.2033
17985TIP3   OH275445   6.257   0.620  17.155  0.2467 -0.0484  0.2245
17985TIP3    H175446   6.279   0.600  17.246  0.7005  1.0754  0.3816
17985TIP3    H275447   6.191   0.554  17.131  0.3466 -0.5461  1.2625
17986TIP3   OH275448   0.837   5.292   3.114 -0.8583 -0.4152  0.1148
17986TIP3    H175449   0.789   5.236   3.175 -1.7524 -1.2376 -1.2589
17986TIP3    H275450   0.928   5.264   3.122 -1.1527 -1.4036  0.1698
17987TIP3   OH275451   6.701   5.162  11.043  0.1364  0.3482  0.8208
17987TIP3    H175452   6.714   5.201  11.130  1.3796  1.3990  0.2073
17987TIP3    H275453   6.670   5.235  10.989  0.0456 -0.1204  0.2336
17988TIP3   OH275454   0.078   6.531   1.221 -0.1002 -0.2724  0.3875
17988TIP3    H175455   0.039   6.471   1.158  0.2237  1.4641 -1.5860
17988TIP3    H275456   0.005   6.585   1.251  0.0556  0.1644 -0.0076
17989TIP3   OH275457   1.691   4.064  16.080 -0.0903 -0.6125  0.4987
17989TIP3    H175458   1.630   4.121  16.127  1.2484  0.6080  0.8296
17989TIP3    H275459   1.729   4.120  16.012  0.7013 -1.3184  0.3379
17990TIP3   OH275460   3.351   3.321  11.158 -0.0598 -0.3033  0.1925
17990TIP3    H175461   3.286   3.383  11.125 -0.2927  0.3103  1.6904
17990TIP3    H275462   3.396   3.289  11.080 -0.6477  0.9631 -0.7078
17991TIP3   OH275463   2.832   1.241  11.164  0.0932  0.6404  0.2282
17991TIP3    H175464   2.829   1.171  11.230  0.4955  0.9555  0.5814
17991TIP3    H275465   2.740   1.253  11.138  0.0466 -0.1964 -0.0216
17992TIP3   OH275466   4.866   3.992  15.165 -0.1892 -0.4926  0.3020
17992TIP3    H175467   4.954   3.982  15.203 -0.7222 -0.4138  1.6020
17992TIP3    H275468   4.880   3.985  15.071  1.0876 -1.4736  0.5360
17993TIP3   OH275469   1.912   1.116  11.996 -0.2180 -1.4634  0.2016
17993TIP3    H175470   2.001   1.111  11.960  0.5055  1.9593  1.1055
17993TIP3    H275471   1.855   1.086  11.925  1.4885 -0.3119 -1.7401
17994TIP3   OH275472   5.912   1.448  11.333  0.0492  0.0968 -0.1596
17994TIP3    H175473   5.931   1.443  11.427 -0.1484 -0.9067 -0.1666
17994TIP3    H275474   5.842   1.513  11.326  0.2021  0.3227  0.3652
17995TIP3   OH275475   0.987   3.838   1.143  0.2912 -0.0450  0.0009
17995TIP3    H175476   1.009   3.929   1.159  1.7573  0.1051 -2.4238
17995TIP3    H275477   0.898   3.828   1.178 -0.0367  2.3650  0.0209
17996TIP3   OH275478   1.359   0.078   6.030 -0.1335 -0.3384 -0.2524
17996TIP3    H175479   1.290   0.051   6.090  1.2026 -0.4401  1.3230
17996TIP3    H275480   1.348   0.173   6.022  0.6674 -0.0362  1.5720
17997TIP3   OH275481   5.362   0.908  14.416  0.6345 -0.1071 -0.3714
17997TIP3    H175482   5.278   0.921  14.459  0.8167  0.2821 -0.1330
17997TIP3    H275483   5.382   0.992  14.375  2.1126  0.6422  1.6927
17998TIP3   OH275484   0.429   0.252  16.301 -0.2608  0.0794 -0.5935
17998TIP3    H175485   0.341   0.214  16.296 -0.3967  0.1320  1.0273
17998TIP3    H275486   0.414   0.346  16.289 -0.3941  0.0659 -0.5396
17999TIP3   OH275487   4.722   6.099   1.778 -0.3629 -0.8223  0.0289
17999TIP3    H175488   4.748   6.084   1.687  0.1928 -1.7567  0.3193
17999TIP3    H275489   4.632   6.069   1.782 -0.6921  0.0739 -0.4124
18000TIP3   OH275490   1.880   5.930   4.136 -0.0683  0.1896 -0.4313
18000TIP3    H175491   1.959   5.920   4.190  0.4385  0.4281 -1.1131
18000TIP3    H275492   1.824   5.988   4.187 -0.3838 -1.0241  0.6736
18001TIP3   OH275493   0.523   6.648   1.641  0.4042 -0.6554  0.3869
18001TIP3    H175494   0.613   6.632   1.614  0.0537 -0.2121 -1.1447
18001TIP3    H275495   0.524   6.737   1.676 -0.1984  1.3282 -3.9385
18002TIP3   OH275496   3.867   6.203  12.890  0.3424 -0.0077  0.3028
18002TIP3    H175497   3.857   6.123  12.837  2.0992 -0.1218  0.0880
18002TIP3    H275498   3.931   6.180  12.956 -1.0344  0.4804  1.8737
18003TIP3   OH275499   4.917   4.536   5.271 -0.7695  0.2970 -0.6510
18003TIP3    H175500   4.959   4.570   5.350 -2.7505  1.0963  0.1036
18003TIP3    H275501   4.989   4.528   5.208  0.9178 -0.7613  1.3194
18004TIP3   OH275502   5.604   5.952  14.515  0.4642 -0.6305 -0.9458
18004TIP3    H175503   5.600   5.941  14.420 -1.7781 -0.7458 -0.9011
18004TIP3    H275504   5.521   5.994  14.538  1.2095 -0.0508  0.9137
18005TIP3   OH275505   1.319   0.464  13.339 -0.2458 -0.5398  0.5467
18005TIP3    H175506   1.366   0.548  13.339  0.2064 -0.5372 -3.8518
18005TIP3    H275507   1.227   0.489  13.340 -0.1299  0.1882 -1.3180
18006TIP3   OH275508   2.214   6.066  12.070  0.2748 -0.6109 -0.5779
18006TIP3    H175509   2.163   6.035  11.996  1.3045 -3.5896 -0.1584
18006TIP3    H275510   2.290   6.108  12.031  0.5603 -1.7163 -1.2516
18007TIP3   OH275511   5.335   3.709  11.050 -0.2354  0.0077  0.9683
18007TIP3    H175512   5.258   3.671  11.092 -0.3546 -0.0069  0.7408
18007TIP3    H275513   5.388   3.634  11.023 -1.0302 -0.0564 -0.5306
18008TIP3   OH275514   5.301   0.406   6.502  0.6711 -0.2402 -0.1238
18008TIP3    H175515   5.320   0.450   6.584 -0.2088 -0.8308  0.4104
18008TIP3    H275516   5.372   0.343   6.491  0.6492 -0.3458  0.3270
18009TIP3   OH275517   1.674   4.433   4.454 -0.4891 -0.9158 -0.1991
18009TIP3    H175518   1.707   4.445   4.365 -1.2476 -1.4842 -0.5715
18009TIP3    H275519   1.587   4.394   4.442  0.0626 -2.5394  0.8303
18010TIP3   OH275520   4.154   2.027   0.823 -0.0485 -0.4027 -0.2840
18010TIP3    H175521   4.197   1.973   0.756 -0.2192 -1.1087  0.1594
18010TIP3    H275522   4.121   2.103   0.775 -0.7080 -1.1950 -1.1229
18011TIP3   OH275523   4.436   5.540  11.534 -0.0721 -0.1767 -0.1899
18011TIP3    H175524   4.409   5.471  11.474  3.4526 -2.0388  0.1180
18011TIP3    H275525   4.494   5.595  11.482  1.3928 -0.6191  0.9260
18012TIP3   OH275526   1.228   0.879   0.796  0.5302  0.1888 -0.5852
18012TIP3    H175527   1.265   0.962   0.765 -0.1135  0.8227  0.3112
18012TIP3    H275528   1.221   0.890   0.890  1.1339 -1.1850 -0.3676
18013TIP3   OH275529   1.405   3.184  15.264 -0.3692 -1.5217  0.4058
18013TIP3    H175530   1.482   3.230  15.231  0.4434 -2.3160  1.1426
18013TIP3    H275531   1.343   3.254  15.286 -0.4829 -0.9398 -1.6142
18014TIP3   OH275532   6.147   4.169  13.581 -0.0505  0.5078  0.2147
18014TIP3    H175533   6.220   4.108  13.580 -2.0830 -2.0991  1.3285
18014TIP3    H275534   6.115   4.169  13.671 -2.1811  0.5846 -0.4763
18015TIP3   OH275535   0.763   6.291  11.813 -0.7617  0.2471 -0.1605
18015TIP3    H175536   0.728   6.374  11.844  2.4188  1.2412  1.1897
18015TIP3    H275537   0.858   6.301  11.820 -0.0492 -2.0139 -3.9545
18016TIP3   OH275538   6.052   3.253   4.827  0.6202  0.7924  0.1728
18016TIP3    H175539   5.998   3.332   4.815 -0.4715 -0.1878 -1.8664
18016TIP3    H275540   6.041   3.205   4.745 -0.8420 -2.7738  2.2480
18017TIP3   OH275541   5.555   1.338   5.852  0.0688 -0.3153 -0.1266
18017TIP3    H175542   5.626   1.307   5.908  0.7948  0.9967 -0.2981
18017TIP3    H275543   5.532   1.262   5.798  1.3749 -0.7486 -0.1031
18018TIP3   OH275544   5.574   3.266   3.081 -0.2947 -0.0418  0.2384
18018TIP3    H175545   5.558   3.188   3.134  0.6092  0.3535  1.1109
18018TIP3    H275546   5.494   3.317   3.089 -0.5963 -0.5125  0.2874
18019TIP3   OH275547   1.011   3.240  13.366  0.0725 -0.4351  0.1849
18019TIP3    H175548   0.966   3.201  13.292  0.9819 -0.1097 -0.5584
18019TIP3    H275549   1.092   3.276  13.329 -0.7171  2.2061  0.8148
18020TIP3   OH275550   6.626   6.156  13.170  0.2657  0.0133  0.2781
18020TIP3    H175551   6.543   6.203  13.181  0.9725  0.8590  2.7367
18020TIP3    H275552   6.603   6.064  13.185 -0.5387 -0.0402 -1.1016
18021TIP3   OH275553   2.676   6.418   3.749  0.4992 -0.0806 -0.0365
18021TIP3    H175554   2.662   6.353   3.818  1.4569 -1.4635 -1.1029
18021TIP3    H275555   2.592   6.421   3.703  0.2619 -0.1230  0.3886
18022TIP3   OH275556   3.330   5.395  13.059 -0.7083  0.2772 -0.1374
18022TIP3    H175557   3.292   5.396  13.147  0.3027 -0.4408  0.3249
18022TIP3    H275558   3.360   5.484  13.044 -1.0329  0.4384  0.1856
18023TIP3   OH275559   1.180   3.856  11.108  0.2827 -0.7111  0.1048
18023TIP3    H175560   1.201   3.863  11.201  0.2227 -1.0777  0.1453
18023TIP3    H275561   1.232   3.782  11.077  0.2744 -0.6131 -0.1441
18024TIP3   OH275562   3.837   0.504  13.577 -0.0903 -0.7605  0.4125
18024TIP3    H175563   3.784   0.551  13.513 -1.6067 -2.9386 -0.0475
18024TIP3    H275564   3.803   0.532  13.662  0.9057  0.9860  0.2856
18025TIP3   OH275565   0.680   2.451   4.322  0.7988 -0.0727  0.0497
18025TIP3    H175566   0.728   2.534   4.321 -1.2475  1.1853 -1.3617
18025TIP3    H275567   0.683   2.421   4.231  2.0004 -1.9129  0.6329
18026TIP3   OH275568   3.070   4.293   4.762 -0.1403 -0.5409  0.8417
18026TIP3    H175569   2.983   4.303   4.722  0.7789  0.1525 -1.0959
18026TIP3    H275570   3.080   4.372   4.816 -0.5457 -0.4120  0.7381
18027TIP3   OH275571   0.472   0.564   4.339  0.3513 -0.6691 -0.0174
18027TIP3    H175572   0.502   0.474   4.325 -0.7693 -1.2540  1.1609
18027TIP3    H275573   0.397   0.556   4.397  0.5049  1.0773  0.4911
18028TIP3   OH275574   3.603   0.950   6.281 -0.3417 -0.3195 -0.2337
18028TIP3    H175575   3.547   0.967   6.206 -2.0179 -1.5501  0.6673
18028TIP3    H275576   3.544   0.952   6.357  1.3355  1.1541  1.1192
18029TIP3   OH275577   3.579   6.620  12.136  0.2200 -0.1487  0.2576
18029TIP3    H175578   3.626   6.604  12.054 -0.6760  0.9457 -0.4805
18029TIP3    H275579   3.492   6.650  12.109 -0.6005 -1.1721  1.6058
18030TIP3   OH275580   3.272   3.445   3.281  0.3143  0.4484 -0.0091
18030TIP3    H175581   3.234   3.358   3.293  1.5965 -0.5112 -2.1823
18030TIP3    H275582   3.335   3.454   3.352 -1.1431  0.4299  1.3357
18031TIP3   OH275583   0.281   5.304  15.892 -0.0876  0.3968 -0.4503
18031TIP3    H175584   0.256   5.310  15.985  0.0931  0.4542 -0.4054
18031TIP3    H275585   0.295   5.395  15.865 -0.9393  0.4449 -0.7557
18032TIP3   OH275586   3.257   3.235  15.541  0.8837  0.0046 -0.0016
18032TIP3    H175587   3.284   3.250  15.631  2.0515  1.5077 -0.5750
18032TIP3    H275588   3.311   3.161  15.512  1.5161  0.4152  0.1088
18033TIP3   OH275589   5.072   0.067   5.422 -0.3720  0.1850 -0.5410
18033TIP3    H175590   5.092  -0.023   5.450 -0.1811  0.3802 -0.0441
18033TIP3    H275591   5.156   0.112   5.424 -0.8330  1.0627  1.7321
18034TIP3   OH275592   4.079   6.210   1.787 -0.4931  0.1932  0.3025
18034TIP3    H175593   3.996   6.248   1.760 -1.1038 -0.6787  0.8895
18034TIP3    H275594   4.082   6.223   1.882  0.8692  1.7727  0.0957
18035TIP3   OH275595   0.101   0.044   5.237 -0.4516  0.1830  0.1517
18035TIP3    H175596   0.119  -0.041   5.197  0.5235 -0.1320  1.2147
18035TIP3    H275597   0.152   0.044   5.317 -2.6147  0.6415  1.6203
18036TIP3   OH275598   1.378   1.108   0.723  0.2910  0.0363  0.3547
18036TIP3    H175599   1.448   1.174   0.720  0.6904 -0.3964  0.0845
18036TIP3    H275600   1.315   1.137   0.656  0.3978  0.2158  0.3301
18037TIP3   OH275601   4.371   6.445  11.285 -0.2292  0.4339  0.4657
18037TIP3    H175602   4.357   6.523  11.232 -0.1582 -0.1097 -0.3641
18037TIP3    H275603   4.312   6.380  11.247 -1.0684  0.3737  1.8066
18038TIP3   OH275604   1.411   2.315   2.821 -0.4856 -0.1396 -0.0297
18038TIP3    H175605   1.366   2.243   2.777  0.0294  0.0191 -0.8587
18038TIP3    H275606   1.484   2.336   2.762  0.3285 -0.0209  0.9906
18039TIP3   OH275607   5.522   6.413   4.074 -0.1310  0.0117 -0.3428
18039TIP3    H175608   5.448   6.393   4.016 -1.3971  1.7413  0.5890
18039TIP3    H275609   5.598   6.414   4.016 -1.0849 -0.1214 -1.6394
18040TIP3   OH275610   4.742   4.072  11.586  0.0300 -0.2905  0.0406
18040TIP3    H175611   4.810   4.009  11.561 -0.0011 -0.1001 -0.5479
18040TIP3    H275612   4.724   4.053  11.678  0.5671 -0.6335  0.0798
18041TIP3   OH275613   1.610   0.058  14.479  0.6952  0.1827  0.2179
18041TIP3    H175614   1.605  -0.011  14.412 -3.7549 -0.5700  1.0019
18041TIP3    H275615   1.566   0.133  14.440  0.8499  0.8004  1.1975
18042TIP3   OH275616   3.660   1.208  16.899 -0.2484  0.2270  0.7267
18042TIP3    H175617   3.588   1.198  16.836  0.3927  0.6205 -0.0810
18042TIP3    H275618   3.632   1.156  16.975  0.2438 -2.6910 -0.9379
18043TIP3   OH275619   4.684   2.618   3.036 -0.4821 -0.2619 -0.8106
18043TIP3    H175620   4.732   2.694   3.005 -0.4708  0.3467  0.6606
18043TIP3    H275621   4.596   2.651   3.056 -0.2830 -0.4591  0.4890
18044TIP3   OH275622   4.485   4.718   4.615  0.3380  0.0098  0.4614
18044TIP3    H175623   4.470   4.626   4.639  0.9632 -0.7191 -1.6839
18044TIP3    H275624   4.554   4.747   4.674  0.9540 -1.2853  0.4278
18045TIP3   OH275625   6.500   5.521   1.391 -0.0210  0.0515  0.2595
18045TIP3    H175626   6.524   5.465   1.465 -1.3300  0.2060  0.8145
18045TIP3    H275627   6.580   5.571   1.373  0.2284  0.2518  1.7720
18046TIP3   OH275628   5.840   1.424  14.368 -0.4869 -0.1778  0.5177
18046TIP3    H175629   5.879   1.491  14.424 -0.4401 -0.4083  0.7687
18046TIP3    H275630   5.845   1.459  14.280  0.6120 -0.3477  0.4945
18047TIP3   OH275631   1.294   0.403   4.093 -0.0133 -0.5409  0.0524
18047TIP3    H175632   1.365   0.421   4.155 -0.1645 -0.0368  0.0770
18047TIP3    H275633   1.247   0.329   4.132 -0.7044  0.3944  1.0541
18048TIP3   OH275634   4.187   2.739  16.035  0.5087  0.3734  0.3992
18048TIP3    H175635   4.171   2.803  15.966 -2.5888 -0.2195  0.4302
18048TIP3    H275636   4.232   2.667  15.990 -0.2738  0.5608 -0.7319
18049TIP3   OH275637   5.723   2.160  14.031 -0.6770  0.0352 -0.0437
18049TIP3    H175638   5.776   2.228  14.072 -1.2026  0.1762  0.4192
18049TIP3    H275639   5.687   2.201  13.953  1.0957 -0.5235 -1.2130
18050TIP3   OH275640   3.188   6.557  15.425  0.1312  0.1148  0.1838
18050TIP3    H175641   3.184   6.649  15.400 -0.0937 -0.0574 -0.4135
18050TIP3    H275642   3.230   6.513  15.352 -2.1811 -0.6823 -0.7762
18051TIP3   OH275643   2.911   3.232  14.062 -0.4250 -0.2140  0.8830
18051TIP3    H175644   2.870   3.294  14.002  1.6026  0.1961 -0.1317
18051TIP3    H275645   2.838   3.177  14.091 -2.1258  1.9611  1.0476
18052TIP3   OH275646   1.101   0.106   1.156  0.6975  0.1178  0.1678
18052TIP3    H175647   1.037   0.036   1.169  2.7700 -1.7825  0.6860
18052TIP3    H275648   1.085   0.166   1.229  1.5027 -1.9984  2.2453
18053TIP3   OH275649   5.760   2.576   3.585  0.2101  0.2632 -0.3562
18053TIP3    H175650   5.799   2.515   3.522  0.9148 -0.3462  0.6439
18053TIP3    H275651   5.781   2.663   3.550  0.6341 -0.0642 -0.9391
18054TIP3   OH275652   1.012   2.409  13.613  0.8819 -0.3119 -0.0477
18054TIP3    H175653   1.032   2.375  13.701  1.3553  1.7533  0.7022
18054TIP3    H275654   0.931   2.365  13.589  1.5398 -2.0724  0.7518
18055TIP3   OH275655   5.997   3.658  11.060  0.4106 -0.1631  0.3309
18055TIP3    H175656   6.077   3.611  11.037  0.6331  1.2089 -2.0003
18055TIP3    H275657   5.977   3.711  10.983 -0.3917  2.7901  2.4099
18056TIP3   OH275658   5.816   6.557   2.248  0.5318  0.2748 -0.1104
18056TIP3    H175659   5.781   6.607   2.322  1.8256  1.7634 -0.4593
18056TIP3    H275660   5.812   6.466   2.277 -0.7629  0.6556  1.0264
18057TIP3   OH275661   3.150   2.580  11.497 -0.2253 -0.6801 -0.0138
18057TIP3    H175662   3.244   2.566  11.489 -0.0797 -0.8639  1.6568
18057TIP3    H275663   3.137   2.607  11.588 -1.5963  1.0120 -0.6541
18058TIP3   OH275664   4.261   1.019   6.486  0.4650 -0.2055  0.1587
18058TIP3    H175665   4.333   0.977   6.437  0.9159  1.1371 -0.3721
18058TIP3    H275666   4.304   1.088   6.537 -0.5098  1.0607 -0.6797
18059TIP3   OH275667   0.400   4.883   3.719  0.1726  0.7253 -0.2857
18059TIP3    H175668   0.345   4.875   3.796  0.8457  1.6503  0.3052
18059TIP3    H275669   0.421   4.792   3.696  2.5381  0.4129  2.5383
18060TIP3   OH275670   5.704   5.036   5.016  0.2621 -0.2240 -0.2253
18060TIP3    H175671   5.614   5.038   4.984  0.3160 -1.4674 -0.5064
18060TIP3    H275672   5.750   4.980   4.954  0.9030 -0.7274  0.6738
18061TIP3   OH275673   3.790   5.795  11.999 -0.1321  0.2878 -0.2034
18061TIP3    H175674   3.859   5.836  12.051  0.0140  0.3760 -0.4636
18061TIP3    H275675   3.816   5.811  11.908 -0.6493  0.5827 -0.3043
18062TIP3   OH275676   6.434   0.684  11.461  0.1016 -0.2790 -0.8088
18062TIP3    H175677   6.355   0.690  11.515  0.8831  0.9513  0.2310
18062TIP3    H275678   6.500   0.647  11.519  0.5364 -0.4712 -1.4162
18063TIP3   OH275679   4.192   5.645  16.415  0.9638  0.3527  0.3094
18063TIP3    H175680   4.253   5.596  16.360  0.7273  1.7929 -1.3394
18063TIP3    H275681   4.237   5.727  16.434  0.5293  0.3924  1.2022
18064TIP3   OH275682   4.560   3.897  11.217  0.5990  1.0917  0.0792
18064TIP3    H175683   4.513   3.872  11.138  0.2020  0.0878  0.6232
18064TIP3    H275684   4.652   3.902  11.190  0.3496  1.8872 -0.7001
18065TIP3   OH275685   4.341   2.050  13.759  0.2831 -0.1777 -0.2338
18065TIP3    H175686   4.360   1.961  13.789  1.4612 -0.0740 -0.6284
18065TIP3    H275687   4.363   2.049  13.665  0.6941  0.6252 -0.1587
18066TIP3   OH275688   2.933   4.227  16.089  0.2315  0.3218 -0.1808
18066TIP3    H175689   2.917   4.322  16.084 -0.2047  0.2139 -1.0689
18066TIP3    H275690   2.884   4.191  16.015 -0.4808 -0.7193  0.7629
18067TIP3   OH275691   2.094   5.109   0.136  0.5515  0.1463  0.9687
18067TIP3    H175692   2.135   5.179   0.187  0.7652  1.3821 -0.8059
18067TIP3    H275693   2.166   5.071   0.085 -0.1110  1.0077 -0.6799
18068TIP3   OH275694   4.411   0.237  14.164  0.0821  0.1008 -0.1541
18068TIP3    H175695   4.407   0.305  14.231  0.3548 -0.9182  0.9390
18068TIP3    H275696   4.436   0.283  14.084  0.3631  1.2667  0.5827
18069TIP3   OH275697   0.204   0.719  10.947 -0.1671 -0.5733 -0.2991
18069TIP3    H175698   0.260   0.766  11.008 -0.0237 -1.2364  0.0948
18069TIP3    H275699   0.166   0.787  10.892 -2.0112  0.3394  1.8939
18070TIP3   OH275700   4.356   0.210   3.503  0.7072 -0.4557  0.2581
18070TIP3    H175701   4.317   0.205   3.416  1.6151  0.4502 -0.2274
18070TIP3    H275702   4.290   0.173   3.561 -0.8264  0.9026 -0.5332
18071TIP3   OH275703   2.300   3.977   2.731 -0.0764 -0.0766  0.2600
18071TIP3    H175704   2.264   3.903   2.682 -0.9320 -0.9576  2.1317
18071TIP3    H275705   2.377   3.941   2.776 -1.3180 -0.2966  2.3419
18072TIP3   OH275706   1.530   5.178   1.246 -0.4278 -0.3431 -0.0462
18072TIP3    H175707   1.457   5.184   1.307 -0.1588  0.4823  0.2113
18072TIP3    H275708   1.501   5.115   1.180 -1.1728 -0.3918  0.3128
18073TIP3   OH275709   4.286   3.591  11.273 -0.1546 -0.0884  0.1107
18073TIP3    H175710   4.220   3.660  11.272 -0.2277 -0.1619 -1.1055
18073TIP3    H275711   4.242   3.517  11.315 -0.3392  0.3441  0.6936
18074TIP3   OH275712   4.989   4.311   1.051  0.0677 -0.2351  0.0738
18074TIP3    H175713   4.910   4.257   1.060 -1.2055  1.6332  0.4897
18074TIP3    H275714   5.038   4.294   1.132 -1.1753  0.5446  1.0129
18075TIP3   OH275715   1.352   0.872   1.816 -0.1361  0.4852  0.4519
18075TIP3    H175716   1.404   0.931   1.761  1.3358  1.6101  2.8712
18075TIP3    H275717   1.408   0.855   1.892 -1.2231 -2.7162  0.6605
18076TIP3   OH275718   2.660   1.132  17.107 -0.0730 -0.2143  0.3318
18076TIP3    H175719   2.596   1.166  17.170  1.4260  1.7318  0.8815
18076TIP3    H275720   2.652   1.190  17.032 -0.2218 -1.1126 -0.3627
18077TIP3   OH275721   5.511   6.330   5.799 -0.1490  0.5438 -0.5069
18077TIP3    H175722   5.540   6.413   5.837  1.1765  0.3421 -1.0396
18077TIP3    H275723   5.513   6.268   5.872  0.4208  0.6195 -0.4548
18078TIP3   OH275724   0.825   4.762   6.267 -0.0015  0.4227 -0.2107
18078TIP3    H175725   0.776   4.725   6.194 -1.1583 -1.1564  1.2587
18078TIP3    H275726   0.858   4.686   6.314  0.2143  1.3523  1.2155
18079TIP3   OH275727   1.851   4.797  13.163  0.3255  0.1699  0.2188
18079TIP3    H175728   1.761   4.779  13.189 -0.8946  0.6764 -3.1669
18079TIP3    H275729   1.899   4.717  13.183 -1.4792 -1.0854 -0.2619
18080TIP3   OH275730   4.745   1.078   1.221 -0.0743 -0.1931  0.3165
18080TIP3    H175731   4.663   1.033   1.243 -0.3130  0.6280  1.1624
18080TIP3    H275732   4.812   1.009   1.226 -0.8542 -1.1784 -1.6825
18081TIP3   OH275733   3.624   4.958   3.123 -0.2695 -0.0074  0.3787
18081TIP3    H175734   3.632   4.932   3.031 -1.0439 -5.0447  1.4379
18081TIP3    H275735   3.533   4.986   3.132 -0.2075  0.4626 -0.3476
18082TIP3   OH275736   5.162   0.198   6.344  0.3827 -0.0179  0.2085
18082TIP3    H175737   5.176   0.103   6.336  2.5954  0.3067 -0.7802
18082TIP3    H275738   5.236   0.228   6.397 -1.8752  0.8599  3.0653
18083TIP3   OH275739   5.292   3.891  12.174  0.2754  0.0621  0.0174
18083TIP3    H175740   5.212   3.911  12.126 -1.7703 -0.3154  3.0521
18083TIP3    H275741   5.325   3.811  12.133 -1.9447 -0.8266 -0.1581
18084TIP3   OH275742   0.923   1.718  15.473 -0.2380 -0.3995 -0.1036
18084TIP3    H175743   0.934   1.759  15.558  1.4604 -0.0120 -0.4703
18084TIP3    H275744   0.829   1.701  15.466 -0.2106 -2.4893  2.7856
18085TIP3   OH275745   5.059   5.909  12.607 -0.1702  0.5631 -0.5417
18085TIP3    H175746   4.976   5.868  12.584 -0.4290  1.1787 -0.7159
18085TIP3    H275747   5.067   5.982  12.546  1.1244 -0.2526 -1.4272
18086TIP3   OH275748   4.396   4.581  11.752 -0.0011  0.0320 -0.0511
18086TIP3    H175749   4.486   4.596  11.721  0.5571 -0.7591  1.1217
18086TIP3    H275750   4.379   4.654  11.812  0.2852 -0.4089  0.5806
18087TIP3   OH275751   6.816   3.901   4.536 -0.4319  0.0562 -0.1783
18087TIP3    H175752   6.733   3.853   4.534 -0.2151 -0.3136 -0.5072
18087TIP3    H275753   6.815   3.949   4.618 -1.2164  0.4902 -0.4327
18088TIP3   OH275754   6.457   0.531   1.789 -0.0087  0.3280  0.0544
18088TIP3    H175755   6.365   0.507   1.791  0.2831 -0.8002  0.8898
18088TIP3    H275756   6.480   0.529   1.696 -0.7467  0.3389 -0.1358
18089TIP3   OH275757   0.955   3.471   0.586  0.0797 -0.1345 -0.5160
18089TIP3    H175758   0.932   3.526   0.511  1.5571  0.4231 -0.6009
18089TIP3    H275759   1.038   3.507   0.617 -0.6115 -0.1994  1.5596
18090TIP3   OH275760   4.051   2.604   3.297  0.0266  0.4536 -0.0314
18090TIP3    H175761   4.131   2.621   3.347 -0.1458  2.3544 -0.3479
18090TIP3    H275762   3.987   2.666   3.332 -1.1598 -0.6337 -0.1894
18091TIP3   OH275763   2.532   3.194   2.131 -0.2300 -0.2397 -0.0111
18091TIP3    H175764   2.558   3.197   2.039 -0.1159  1.7116  0.0562
18091TIP3    H275765   2.445   3.154   2.130 -0.1091 -0.5017 -0.9343
18092TIP3   OH275766   3.133   4.549   3.761  0.0044  0.6918  0.1262
18092TIP3    H175767   3.181   4.596   3.829  1.0709 -0.9367  0.5467
18092TIP3    H275768   3.085   4.481   3.808  2.4433 -1.8511 -0.8552
18093TIP3   OH275769   2.113   2.780  12.363 -0.3115  0.3330  0.1031
18093TIP3    H175770   2.169   2.733  12.301 -0.3557 -1.8843  1.6282
18093TIP3    H275771   2.069   2.711  12.412  0.3409  1.9167  3.1532
18094TIP3   OH275772   1.272   3.035  12.169 -0.0914 -0.5308  0.5779
18094TIP3    H175773   1.353   2.987  12.152  0.7829  1.3128 -0.8051
18094TIP3    H275774   1.271   3.105  12.104 -2.7144 -0.3508  0.6851
18095TIP3   OH275775   2.555   4.846   3.490 -0.0033 -0.4739 -0.0059
18095TIP3    H175776   2.613   4.835   3.414  1.5208  0.8431  0.8900
18095TIP3    H275777   2.499   4.920   3.468 -1.3153 -1.6583 -0.8145
18096TIP3   OH275778   5.425   2.908  11.074  0.1503  0.0887 -0.5318
18096TIP3    H175779   5.445   2.898  10.981  1.4757 -0.6316 -0.1952
18096TIP3    H275780   5.359   2.842  11.092 -0.2591  0.3700 -1.0075
18097TIP3   OH275781   5.510   1.270   3.036 -0.0521 -0.1661  0.2388
18097TIP3    H175782   5.478   1.349   3.079 -0.3288  0.2172 -0.6445
18097TIP3    H275783   5.605   1.282   3.033 -0.1055  0.2009 -0.0249
18098TIP3   OH275784   4.364   0.331  15.950  0.7040  0.0687  0.0519
18098TIP3    H175785   4.285   0.314  16.000  0.9434  1.3717  0.9193
18098TIP3    H275786   4.345   0.298  15.862  0.1320 -1.9055  0.8518
18099TIP3   OH275787   0.844   3.701  14.786 -0.2217 -0.2983  0.0254
18099TIP3    H175788   0.766   3.672  14.835  1.0757 -4.2181  0.0952
18099TIP3    H275789   0.836   3.658  14.701  0.7593  1.2295 -0.8879
18100TIP3   OH275790   1.980   3.930   3.394  0.4347  0.0683 -0.2239
18100TIP3    H175791   1.933   4.012   3.380  2.9538  1.3028 -2.3209
18100TIP3    H275792   1.930   3.885   3.462 -1.3780  3.0563  0.6089
18101TIP3   OH275793   1.608   0.183   2.648  0.0054 -0.9086 -0.0429
18101TIP3    H175794   1.701   0.183   2.669 -0.3166 -0.0293  1.5794
18101TIP3    H275795   1.594   0.265   2.601 -0.2337 -0.1247  1.3327
18102TIP3   OH275796   1.651   1.020   4.160 -0.0436 -0.0400  0.1170
18102TIP3    H175797   1.732   1.068   4.143 -0.0944 -0.5135 -1.5630
18102TIP3    H275798   1.587   1.056   4.098 -0.4704 -1.2650 -0.1937
18103TIP3   OH275799   4.995   5.587  15.529  0.3962 -0.2456 -0.1174
18103TIP3    H175800   4.901   5.571  15.537  0.1355  0.3378 -1.6346
18103TIP3    H275801   5.000   5.674  15.489  1.5925 -0.3015 -0.1011
18104TIP3   OH275802   3.690   2.828   1.883  0.4989  0.0244 -0.5371
18104TIP3    H175803   3.663   2.801   1.796  2.3437 -1.2973 -0.7511
18104TIP3    H275804   3.613   2.812   1.938  0.0510 -1.3240 -1.5058
18105TIP3   OH275805   3.294   6.696  12.512 -0.0046  0.0111  0.5043
18105TIP3    H175806   3.231   6.713  12.582 -2.1394  0.8415 -1.4902
18105TIP3    H275807   3.282   6.768  12.451  3.3241  0.4691  0.2457
18106TIP3   OH275808   0.308   2.861   3.691 -0.0738  0.0081  0.3100
18106TIP3    H175809   0.342   2.790   3.637  0.0838 -0.6407  1.2364
18106TIP3    H275810   0.212   2.851   3.685 -0.0827  0.6114 -0.7057
18107TIP3   OH275811   6.732   1.069  15.774  0.3917 -0.0818  0.1096
18107TIP3    H175812   6.713   0.991  15.722 -0.5302 -0.4526  0.9729
18107TIP3    H275813   6.773   1.035  15.854 -0.7303  0.2274  0.8369
18108TIP3   OH275814   5.503   3.392   4.252 -0.2701 -0.1838 -0.3845
18108TIP3    H175815   5.436   3.379   4.320 -0.0682  1.3882  0.1463
18108TIP3    H275816   5.452   3.400   4.171 -1.0341  3.1624  0.2587
18109TIP3   OH275817   6.689   4.534   0.499  0.2658  0.5443  0.2307
18109TIP3    H175818   6.782   4.526   0.477 -0.0747 -0.5897 -0.9225
18109TIP3    H275819   6.683   4.503   0.590  0.2736 -5.6577 -1.4582
18110TIP3   OH275820   5.085   4.693  11.952  0.3760 -0.1616  0.3570
18110TIP3    H175821   5.014   4.647  11.908  0.2801  0.7084 -0.4263
18110TIP3    H275822   5.147   4.624  11.976 -0.5492 -0.8859  0.7266
18111TIP3   OH275823   5.536   0.052   6.232  0.9045  0.1915 -0.2645
18111TIP3    H175824   5.512   0.025   6.143  0.2684  0.5532 -0.2056
18111TIP3    H275825   5.604  -0.010   6.258  0.5399 -0.4012 -0.7042
18112TIP3   OH275826   2.957   1.599  11.739 -0.2001  0.2468 -0.5564
18112TIP3    H175827   2.916   1.520  11.704 -0.9352  0.3329  0.0855
18112TIP3    H275828   3.038   1.568  11.780  0.4708  0.0898 -1.9321
18113TIP3   OH275829   2.315   5.910   1.866  0.0823  0.4610  0.2593
18113TIP3    H175830   2.309   5.836   1.927  3.6328  0.4648  0.8101
18113TIP3    H275831   2.332   5.871   1.781  0.4536  0.6190  0.2618
18114TIP3   OH275832   3.750   3.831  15.102  0.1079 -0.2317  0.3866
18114TIP3    H175833   3.809   3.883  15.046 -1.8531  2.8660  0.9850
18114TIP3    H275834   3.791   3.834  15.188 -0.0440  0.5287  0.4462
18115TIP3   OH275835   3.431   1.803  11.293 -0.0898 -0.2207 -0.1915
18115TIP3    H175836   3.378   1.870  11.336  0.9414  1.4083 -1.3264
18115TIP3    H275837   3.437   1.832  11.202  2.0803 -0.7472 -0.2826
18116TIP3   OH275838   3.613   0.781  12.348 -0.3484 -0.3279 -0.1125
18116TIP3    H175839   3.589   0.803  12.438  0.5545 -1.8191  0.5320
18116TIP3    H275840   3.662   0.858  12.317 -0.3496  0.0588  0.7983
18117TIP3   OH275841   0.711   0.366   3.598 -0.8152  0.2698  0.6505
18117TIP3    H175842   0.674   0.329   3.517 -0.2528 -0.6997  0.8186
18117TIP3    H275843   0.651   0.338   3.667 -0.8312  0.3741  0.6797
18118TIP3   OH275844   0.285   2.684  16.104 -0.1854  0.0580 -0.2481
18118TIP3    H175845   0.283   2.671  16.199 -0.2007  2.8653  0.2219
18118TIP3    H275846   0.370   2.648  16.077  0.0960 -0.2039  0.9224
18119TIP3   OH275847   5.238   5.899   3.649  0.6167  0.6407 -0.6319
18119TIP3    H175848   5.278   5.940   3.726  0.2601  2.1151 -1.2045
18119TIP3    H275849   5.286   5.817   3.638 -0.2390 -0.3070  1.9732
18120TIP3   OH275850   3.307   5.651   3.271 -0.9587 -0.0886 -0.7750
18120TIP3    H175851   3.281   5.596   3.198  0.6756 -1.0997 -0.6633
18120TIP3    H275852   3.300   5.594   3.348  2.6012 -0.9347 -0.8844
18121TIP3   OH275853   0.849   4.845   3.141 -0.3625 -0.4296 -0.2431
18121TIP3    H175854   0.912   4.910   3.110 -1.2741  0.8868  0.5646
18121TIP3    H275855   0.776   4.850   3.079 -0.8367  0.0064  0.3308
18122TIP3   OH275856   1.233   2.274  11.824  0.0977  0.6680  0.2610
18122TIP3    H175857   1.147   2.237  11.845 -0.5604  1.5544 -0.8160
18122TIP3    H275858   1.255   2.328  11.900  0.0014 -0.0496  0.8119
18123TIP3   OH275859   5.035   4.900  16.610 -0.2266 -0.4373 -0.1239
18123TIP3    H175860   5.009   4.874  16.698 -0.3517 -0.4904 -0.1761
18123TIP3    H275861   5.031   4.996  16.611  0.1769 -0.4206  0.0492
18124TIP3   OH275862   0.158   3.565  14.118 -0.1803 -0.4299 -0.0301
18124TIP3    H175863   0.209   3.583  14.197 -0.7838 -0.1692  0.3022
18124TIP3    H275864   0.089   3.506  14.147  0.0925 -0.9984 -0.5359
18125TIP3   OH275865   5.402   5.309  12.569 -0.0931 -0.2278  0.0010
18125TIP3    H175866   5.496   5.293  12.556 -0.0901  1.0156 -1.7606
18125TIP3    H275867   5.361   5.225  12.548  0.5863 -0.7651  0.7165
18126TIP3   OH275868   1.796   1.939  14.725  0.0533  0.0685  0.6404
18126TIP3    H175869   1.818   1.889  14.803 -1.2565  0.6786  1.4366
18126TIP3    H275870   1.733   2.005  14.755  0.3025  0.9892 -0.7321
18127TIP3   OH275871   3.830   3.081  14.680 -0.3774  0.0007 -1.0092
18127TIP3    H175872   3.879   3.022  14.622  1.8883 -0.6061  1.3660
18127TIP3    H275873   3.758   3.028  14.713  0.5197 -0.8394 -0.3808
18128TIP3   OH275874   0.264   0.162   1.772 -0.1617  0.0823  0.3213
18128TIP3    H175875   0.192   0.165   1.835 -0.3144 -0.5220  0.1780
18128TIP3    H275876   0.222   0.166   1.686  0.1149  2.7782  0.2110
18129TIP3   OH275877   0.571   4.956   6.189  0.1258  0.4043  0.3174
18129TIP3    H175878   0.481   4.955   6.157  0.4704 -2.6251 -0.9663
18129TIP3    H275879   0.624   4.976   6.112  0.6389 -0.4849  0.4150
18130TIP3   OH275880   0.050   2.227  14.999  0.4454  0.1451  0.2531
18130TIP3    H175881   0.042   2.146  14.949 -2.2962  1.5340 -1.8632
18130TIP3    H275882   0.103   2.285  14.944  1.1892  0.2973  1.0956
18131TIP3   OH275883   5.310   5.217  16.652  0.0752  0.0114  0.2748
18131TIP3    H175884   5.333   5.274  16.579  2.0601  0.1125  0.9127
18131TIP3    H275885   5.220   5.189  16.634  0.4876  0.0435 -2.1754
18132TIP3   OH275886   1.462   3.204   1.003 -0.2032 -0.6032  0.0175
18132TIP3    H175887   1.518   3.187   1.079  0.3485 -3.3247 -0.8725
18132TIP3    H275888   1.377   3.228   1.040  0.6119  0.1945  1.4377
18133TIP3   OH275889   4.664   2.433  16.412  0.3651  0.0142 -0.0020
18133TIP3    H175890   4.623   2.509  16.453 -0.3053  0.3007 -1.1577
18133TIP3    H275891   4.751   2.428  16.452  0.1262  0.9148  0.6567
18134TIP3   OH275892   6.277   5.104   5.122  0.7734  0.1421  0.2207
18134TIP3    H175893   6.230   5.043   5.179  0.6297  0.1740  0.1369
18134TIP3    H275894   6.245   5.084   5.034  0.2793  0.7450  0.2586
18135TIP3   OH275895   1.525   3.868   6.263 -0.6811 -0.5512 -0.2827
18135TIP3    H175896   1.567   3.829   6.187 -1.5024 -2.3633  0.1457
18135TIP3    H275897   1.437   3.831   6.264 -1.2736  0.8035  0.5711
18136TIP3   OH275898   1.125   6.749   4.292  0.1906  0.4810  0.1629
18136TIP3    H175899   1.110   6.698   4.212 -0.2618  1.8691 -0.6659
18136TIP3    H275900   1.213   6.722   4.321  0.8342  0.7541 -1.4262
18137TIP3   OH275901   4.887   6.267  13.509 -0.5041  0.0149  0.3005
18137TIP3    H175902   4.842   6.351  13.515  0.0844  0.5619 -2.0872
18137TIP3    H275903   4.980   6.289  13.516 -0.2649 -0.2132 -1.5773
18138TIP3   OH275904   5.857   6.278  14.798 -0.2176  0.8583 -0.6025
18138TIP3    H175905   5.902   6.336  14.860 -0.2695  1.5386 -1.1822
18138TIP3    H275906   5.882   6.190  14.825 -0.9067  1.1030  0.8918
18139TIP3   OH275907   1.585   3.298  15.104  0.6257  0.2359 -0.2909
18139TIP3    H175908   1.559   3.347  15.025  1.8507  0.5203 -0.5399
18139TIP3    H275909   1.675   3.325  15.120  1.2374 -1.6860 -0.2294
18140TIP3   OH275910   5.804   1.238  15.570 -0.3456  0.4315  0.2209
18140TIP3    H175911   5.834   1.297  15.639  0.3783  0.8737 -0.4496
18140TIP3    H275912   5.845   1.154  15.590 -1.1152  0.2310  0.9961
18141TIP3   OH275913   1.854   1.430  15.852  0.8032 -0.2404 -0.0200
18141TIP3    H175914   1.773   1.403  15.896  0.1400 -0.1444 -1.1362
18141TIP3    H275915   1.852   1.525  15.852 -0.3439 -0.2039 -2.1920
18142TIP3   OH275916   6.067   3.510   4.159 -0.7840 -0.4000 -0.4198
18142TIP3    H175917   6.138   3.446   4.169 -0.2576  0.0850 -0.9914
18142TIP3    H275918   5.989   3.456   4.146 -0.4850 -0.9404 -0.0253
18143TIP3   OH275919   3.925   6.469  12.307 -0.6094  0.3142 -0.8860
18143TIP3    H175920   3.928   6.550  12.255 -3.4235  0.9933 -0.1510
18143TIP3    H275921   3.900   6.401  12.244  0.4544  0.2392 -1.2475
18144TIP3   OH275922   2.424   1.919   4.331 -0.1444 -0.2018  0.2052
18144TIP3    H175923   2.352   1.978   4.306 -1.6231 -1.4745  1.2698
18144TIP3    H275924   2.502   1.974   4.327 -1.0346  1.0576 -1.7061
18145TIP3   OH275925   0.464   2.686   2.466  1.0228 -0.0063  0.0639
18145TIP3    H175926   0.495   2.704   2.378 -0.2730  0.3568 -0.3464
18145TIP3    H275927   0.414   2.764   2.491 -0.0088 -0.7670  0.4531
18146TIP3   OH275928   6.347   1.236  15.841  0.1311  0.1337 -0.2004
18146TIP3    H175929   6.419   1.268  15.787  0.7023 -0.6262  0.0946
18146TIP3    H275930   6.294   1.184  15.781  1.0795 -1.1895  0.0786
18147TIP3   OH275931   3.783   3.557  11.542 -0.0570 -0.6680  0.2754
18147TIP3    H175932   3.824   3.581  11.624  0.0991 -0.3634  0.1114
18147TIP3    H275933   3.756   3.640  11.503 -0.5306 -0.8384  0.2248
18148TIP3   OH275934   4.899   2.610  11.660  0.3502  0.0435 -0.4130
18148TIP3    H175935   4.942   2.682  11.613  0.1225  0.5754  0.1742
18148TIP3    H275936   4.914   2.533  11.605  1.6958  0.2907 -0.4377
18149TIP3   OH275937   4.882   3.528  14.546  0.4596 -0.4395  0.2486
18149TIP3    H175938   4.844   3.561  14.628 -1.0953 -1.6322  0.0718
18149TIP3    H275939   4.871   3.433  14.552  0.8266 -0.5820 -1.1091
18150TIP3   OH275940   2.942   1.270   0.754 -0.5651  0.3097  0.7385
18150TIP3    H175941   2.954   1.364   0.762 -1.8903  0.8852 -2.5027
18150TIP3    H275942   3.013   1.242   0.696 -2.0607 -0.0067 -1.0375
18151TIP3   OH275943   4.115   6.160   3.311  0.1603  0.1887  0.1212
18151TIP3    H175944   4.115   6.253   3.332 -0.5399  0.8519 -2.3861
18151TIP3    H275945   4.039   6.125   3.356 -0.1954  1.0747  0.2253
18152TIP3   OH275946   3.675   3.438   5.641 -0.1896  0.1357 -0.0027
18152TIP3    H175947   3.608   3.378   5.674 -0.2756 -0.2042 -0.7774
18152TIP3    H275948   3.660   3.442   5.547 -0.0316  1.1973  0.0069
18153TIP3   OH275949   0.946   0.289   4.221 -0.0598 -0.6082  0.8476
18153TIP3    H175950   1.039   0.271   4.209 -0.3585 -0.9887 -1.2845
18153TIP3    H275951   0.942   0.346   4.298  2.0201  0.2497  0.3701
18154TIP3   OH275952   0.650   3.386   3.894  0.0038 -0.1990 -0.0307
18154TIP3    H175953   0.700   3.312   3.862 -0.5216 -0.1605 -0.9832
18154TIP3    H275954   0.630   3.438   3.816  0.3655  0.9555  0.6117
18155TIP3   OH275955   3.439   3.166  16.562 -0.3082 -0.0316  0.0968
18155TIP3    H175956   3.431   3.219  16.642 -0.6368  0.1137 -0.0292
18155TIP3    H275957   3.390   3.086  16.581  0.9466 -0.7055  0.6230
18156TIP3   OH275958   6.583   5.675   0.739 -0.1942 -0.0073  0.0517
18156TIP3    H175959   6.588   5.636   0.827 -0.6135 -1.3971 -0.5173
18156TIP3    H275960   6.590   5.601   0.679 -0.7786  0.8273 -1.0894
18157TIP3   OH275961   5.870   0.012   2.376 -0.5820 -0.1625  0.0641
18157TIP3    H175962   5.883   0.079   2.309  0.0580  0.9163  1.2167
18157TIP3    H275963   5.783   0.029   2.411 -1.0723 -0.9627 -0.7097
18158TIP3   OH275964   0.375   5.191  14.929  0.6926  0.1440 -0.2114
18158TIP3    H175965   0.457   5.216  14.971  0.5812 -0.2074  0.2280
18158TIP3    H275966   0.399   5.166  14.840  1.8114 -4.1558  1.0627
18159TIP3   OH275967   3.065   2.391  16.412  0.2312 -0.1941 -0.1930
18159TIP3    H175968   3.003   2.367  16.481 -0.6634  0.4273 -0.7542
18159TIP3    H275969   3.104   2.308  16.385  0.4335 -0.4688  0.9018
18160TIP3   OH275970   4.319   4.162  13.336 -0.5828  0.0006  0.2584
18160TIP3    H175971   4.400   4.213  13.337 -1.6632  1.8641 -0.6047
18160TIP3    H275972   4.310   4.130  13.426  0.6279  0.5394  0.5992
18161TIP3   OH275973   6.343   2.857  16.819  0.0819  0.1470  0.5313
18161TIP3    H175974   6.344   2.797  16.745 -0.7533  1.4397 -0.5698
18161TIP3    H275975   6.427   2.902  16.815 -0.9932  2.1734 -1.3650
18162TIP3   OH275976   3.869   2.336  11.794 -0.0196 -0.9555  0.0442
18162TIP3    H175977   3.857   2.419  11.747  0.4874 -0.4633  0.7573
18162TIP3    H275978   3.835   2.269  11.735  0.8044 -0.3824 -1.1071
18163TIP3   OH275979   6.037   0.983   1.945  0.1462 -0.1708  0.2210
18163TIP3    H175980   6.105   1.013   2.005 -1.6190  1.8760  1.3512
18163TIP3    H275981   6.024   1.056   1.885 -1.2373 -0.3936  0.2167
18164TIP3   OH275982   4.423   4.957   2.493  0.4203 -0.2537  0.1644
18164TIP3    H175983   4.346   4.987   2.543  0.3735  2.3145 -1.3118
18164TIP3    H275984   4.395   4.959   2.402  1.3672 -2.2010 -0.2193
18165TIP3   OH275985   4.622   1.514  12.422  0.2848 -0.4407 -0.5895
18165TIP3    H175986   4.553   1.565  12.380  0.8611  0.3820 -0.5612
18165TIP3    H275987   4.660   1.462  12.351 -0.4392 -1.0173 -0.5778
18166TIP3   OH275988   2.745   2.324   3.512 -0.1670 -0.2659  0.6974
18166TIP3    H175989   2.719   2.406   3.472  2.4115  0.8166  1.0411
18166TIP3    H275990   2.825   2.298   3.466 -1.5290 -3.2649 -0.2070
18167TIP3   OH275991   3.339   4.760  17.101 -0.2220  0.3031 -0.0254
18167TIP3    H175992   3.291   4.701  17.043 -1.1168  1.1054 -0.1213
18167TIP3    H275993   3.331   4.720  17.187 -0.9292  0.3354 -0.0701
18168TIP3   OH275994   6.261   6.723  11.649 -0.2909  0.4845  0.5582
18168TIP3    H175995   6.205   6.797  11.674 -0.9640  0.7411 -1.5228
18168TIP3    H275996   6.303   6.751  11.568  0.6898 -0.8263  0.5752
18169TIP3   OH275997   3.304   3.515  13.321  1.0590  0.2056  0.2301
18169TIP3    H175998   3.345   3.602  13.318  0.5010  0.4577 -0.2182
18169TIP3    H275999   3.268   3.509  13.409  0.0344  0.9318 -0.1273
18170TIP3   OH276000   3.398   2.604  14.660 -0.1111  0.2916  0.1719
18170TIP3    H176001   3.334   2.658  14.706  0.7478  1.1106  0.4155
18170TIP3    H276002   3.364   2.599  14.570  0.0402  1.6368  0.0183
18171TIP3   OH276003   1.579   2.058   1.289  0.0221  0.3055  0.1498
18171TIP3    H176004   1.582   2.077   1.383  0.7762  1.9038 -0.1695
18171TIP3    H276005   1.667   2.026   1.269  0.5298  1.9642 -0.3807
18172TIP3   OH276006   1.327   4.200  11.595  0.7764 -0.2172  0.7123
18172TIP3    H176007   1.311   4.204  11.689 -1.9053  3.0966  0.3118
18172TIP3    H276008   1.247   4.164  11.558  0.2011  2.1090 -0.4694
18173TIP3   OH276009   6.351   1.427   3.145  0.3214  0.5980 -0.0209
18173TIP3    H176010   6.381   1.408   3.234 -0.3596 -1.5214 -0.2023
18173TIP3    H276011   6.376   1.350   3.094 -3.2273 -0.2765 -0.6798
18174TIP3   OH276012   3.389   1.997   4.288 -0.2417  0.3969  0.2279
18174TIP3    H176013   3.419   2.063   4.351  0.0031 -0.4618  1.0397
18174TIP3    H276014   3.413   1.914   4.328 -1.4796 -0.2270 -0.2863
18175TIP3   OH276015   0.398   6.340   0.943  0.3498  0.0814 -0.4308
18175TIP3    H176016   0.435   6.314   1.027  0.1150  0.0499 -0.3366
18175TIP3    H276017   0.416   6.434   0.937  2.8976 -0.3951 -1.6294
18176TIP3   OH276018   0.791   1.547  13.558  0.4072 -0.2203  0.4933
18176TIP3    H176019   0.780   1.630  13.605  2.0249 -0.4579  1.3973
18176TIP3    H276020   0.703   1.515  13.543 -0.2150  1.1482  1.0728
18177TIP3   OH276021   5.296   5.736  14.417  0.0306 -0.2566  0.2889
18177TIP3    H176022   5.249   5.813  14.384  0.0206 -1.0305 -1.6388
18177TIP3    H276023   5.383   5.769  14.437 -0.0393  0.3193 -0.3038
18178TIP3   OH276024   4.615   5.532  14.481 -0.9382  0.2209  0.0797
18178TIP3    H176025   4.549   5.487  14.532 -0.1465 -0.3433  0.6313
18178TIP3    H276026   4.651   5.598  14.541 -1.5312  1.0606 -0.4635
18179TIP3   OH276027   0.984   5.950   3.188 -0.0941 -0.1550 -0.2481
18179TIP3    H176028   0.984   6.005   3.266 -0.2942 -0.2351 -0.1906
18179TIP3    H276029   1.028   6.003   3.121 -1.2721  0.5230 -0.5090
18180TIP3   OH276030   6.418   6.320  13.220 -0.2942 -0.3537 -0.8336
18180TIP3    H176031   6.435   6.365  13.303  1.9064  0.2011 -1.5220
18180TIP3    H276032   6.386   6.389  13.162  0.1729 -0.3046 -1.0337
18181TIP3   OH276033   4.077   2.357   0.214 -0.0990  0.4062 -0.0703
18181TIP3    H176034   4.001   2.299   0.202 -0.8318  1.1220  1.0004
18181TIP3    H276035   4.071   2.387   0.304  1.0168  1.1186 -0.2118
18182TIP3   OH276036   3.100   3.105   1.928 -0.4373 -0.0991 -0.6473
18182TIP3    H176037   3.175   3.160   1.906 -1.2158  1.7816  1.1190
18182TIP3    H276038   3.123   3.019   1.893  2.5886  0.3739 -0.1128
18183TIP3   OH276039   1.769   1.602   5.792 -0.0273 -0.3468  0.1955
18183TIP3    H176040   1.777   1.668   5.861  0.0096  0.4949 -0.5921
18183TIP3    H276041   1.825   1.530   5.821  2.1994  1.1057 -0.2372
18184TIP3   OH276042   3.602   4.641   4.911 -0.6069  0.4606 -0.5659
18184TIP3    H176043   3.582   4.632   5.003  2.1646  0.3927  0.1369
18184TIP3    H276044   3.645   4.727   4.904  1.9423 -0.7702 -1.1496
18185TIP3   OH276045   3.744   4.668   0.287 -0.2150  0.0846  0.3706
18185TIP3    H176046   3.834   4.677   0.319 -0.4161  2.5370  0.4028
18185TIP3    H276047   3.737   4.732   0.216 -1.9946  0.0678  0.4921
18186TIP3   OH276048   5.307   0.238   5.993  0.0786  0.0702 -0.0451
18186TIP3    H176049   5.244   0.170   5.970  0.6291 -0.7583  0.8164
18186TIP3    H276050   5.303   0.243   6.089  0.1596  1.1446 -0.0879
18187TIP3   OH276051   4.728   6.397   1.727  0.1368  0.4384 -0.3225
18187TIP3    H176052   4.763   6.335   1.662  0.7358 -0.4554  0.7967
18187TIP3    H276053   4.730   6.482   1.683 -0.8842 -0.3412 -1.9746
18188TIP3   OH276054   5.538   2.038   1.087  1.0185 -0.0745 -0.2661
18188TIP3    H176055   5.568   2.022   1.177  0.7133 -0.9252 -0.2991
18188TIP3    H276056   5.445   2.014   1.089  0.6261  1.3480 -0.4521
18189TIP3   OH276057   1.507   4.873  12.131  0.2362  0.1096  0.0083
18189TIP3    H176058   1.522   4.967  12.141  0.7611  0.0358 -0.0850
18189TIP3    H276059   1.413   4.862  12.148  0.3157  0.5471  0.8062
18190TIP3   OH276060   2.106   4.742  16.788 -0.2405 -0.1115 -0.4298
18190TIP3    H176061   2.038   4.675  16.782 -1.0908  0.6671  0.1619
18190TIP3    H276062   2.089   4.800  16.713 -2.1827  1.7954  1.3650
18191TIP3   OH276063   5.141   2.957   1.614 -0.1892 -0.0595 -0.0867
18191TIP3    H176064   5.219   2.999   1.579  0.3920  0.1617  1.4135
18191TIP3    H276065   5.076   2.967   1.545  0.3069  2.1458 -0.3009
18192TIP3   OH276066   6.575   2.948   4.641  0.4799  0.3350  0.1655
18192TIP3    H176067   6.528   2.895   4.577 -1.5222  1.8502  0.2949
18192TIP3    H276068   6.604   2.886   4.707  1.0589 -1.0125 -1.2910
18193TIP3   OH276069   1.940   3.503  13.446  0.0539 -0.1167 -0.6170
18193TIP3    H176070   2.030   3.528  13.467  0.1695 -0.2118 -1.0036
18193TIP3    H276071   1.893   3.513  13.529  0.7770 -1.7222  0.0229
18194TIP3   OH276072   3.241   5.722   4.883  0.1949  0.9462  0.4438
18194TIP3    H176073   3.185   5.647   4.861 -0.0713  1.3834 -0.4147
18194TIP3    H276074   3.296   5.733   4.806 -0.8434  2.6013 -0.1218
18195TIP3   OH276075   2.657   0.298  17.116 -0.2711 -0.1137  0.0550
18195TIP3    H176076   2.571   0.278  17.153  0.1417 -1.8483  0.1755
18195TIP3    H276077   2.639   0.330  17.028 -1.1915  2.8605  1.2002
18196TIP3   OH276078   4.480   5.346   1.917  0.3280  0.2309  0.5271
18196TIP3    H176079   4.512   5.402   1.847 -0.1480 -1.1558 -0.8834
18196TIP3    H276080   4.445   5.406   1.983  1.1125  1.5910 -0.2650
18197TIP3   OH276081   2.312   6.013  16.776  0.1645  0.3650 -0.4471
18197TIP3    H176082   2.357   5.935  16.744  0.0235  0.1975 -0.2454
18197TIP3    H276083   2.319   6.007  16.872 -0.3182  0.3112 -0.4128
18198TIP3   OH276084   0.623   4.528   0.799 -0.1827 -0.1437  0.1724
18198TIP3    H176085   0.698   4.502   0.745 -0.2609 -0.1901  0.0863
18198TIP3    H276086   0.568   4.450   0.802 -2.3992  1.0421 -3.3193
18199TIP3   OH276087   4.365   4.828  11.843  0.3556 -0.0510 -0.8428
18199TIP3    H176088   4.390   4.815  11.934  1.9295  1.1762 -1.0486
18199TIP3    H276089   4.419   4.902  11.814  0.2520 -0.7174 -2.8921
18200TIP3   OH276090   3.796   6.627  15.978  0.5905  0.5804  0.3183
18200TIP3    H176091   3.868   6.575  16.013 -0.3072 -1.2997 -0.4781
18200TIP3    H276092   3.722   6.566  15.972 -0.8840  2.2605  0.4503
18201TIP3   OH276093   3.961   6.097   4.047  0.1921 -0.0532 -0.9424
18201TIP3    H176094   3.964   6.171   4.107  0.4752  1.4868 -2.7697
18201TIP3    H276095   3.871   6.066   4.052  0.4619 -0.7023  1.0554
18202TIP3   OH276096   3.889   6.085   6.077 -0.4499  0.4270 -0.4253
18202TIP3    H176097   3.913   6.173   6.105 -1.5291  1.0283 -1.2893
18202TIP3    H276098   3.897   6.032   6.156 -1.0569  1.5671  0.4384
18203TIP3   OH276099   4.268   5.587   1.900 -0.9493  0.1700 -0.3583
18203TIP3    H176100   4.179   5.575   1.933 -1.0420  2.2354  0.3417
18203TIP3    H276101   4.262   5.666   1.847  0.2176 -0.4060 -1.3676
18204TIP3   OH276102   2.442   2.158   0.662 -0.2251 -0.6399  0.0984
18204TIP3    H176103   2.442   2.207   0.579  1.8437  0.1983  0.5140
18204TIP3    H276104   2.368   2.194   0.711 -1.0556 -0.6592 -1.0968
18205TIP3   OH276105   6.145   0.784  12.405  0.4104 -0.5630  0.1914
18205TIP3    H176106   6.181   0.706  12.449  2.8115  0.0342 -0.5519
18205TIP3    H276107   6.141   0.851  12.473  0.6169 -0.6747  0.3151
18206TIP3   OH276108   0.778   5.971   5.328  0.6116  0.0468  0.1444
18206TIP3    H176109   0.699   5.976   5.380 -0.8476 -1.4736 -1.7707
18206TIP3    H276110   0.793   6.061   5.298  0.1102  0.4906  1.1940
18207TIP3   OH276111   3.188   2.587   3.431 -0.0991 -0.3630 -0.2232
18207TIP3    H176112   3.277   2.608   3.402  0.4554  0.4161  1.8378
18207TIP3    H276113   3.137   2.583   3.350  1.9357 -1.6272 -1.5422
18208TIP3   OH276114   5.938   3.774   2.641  0.0323 -0.2081 -0.3306
18208TIP3    H176115   5.999   3.845   2.620  1.0403 -1.2870 -1.1592
18208TIP3    H276116   5.903   3.746   2.556  3.1260 -3.7141 -0.7036
18209TIP3   OH276117   4.115   5.867   5.500 -0.1967  0.5926 -0.7472
18209TIP3    H176118   4.134   5.839   5.589 -1.6991  0.7396 -0.3586
18209TIP3    H276119   4.024   5.895   5.502  0.0635  1.6811 -2.0665
18210TIP3   OH276120   6.635   4.955   2.425 -0.3088 -0.3431  0.4066
18210TIP3    H176121   6.658   4.914   2.508  1.9515  0.1468  0.1085
18210TIP3    H276122   6.647   4.886   2.360  0.3729 -0.0884  0.2492
18211TIP3   OH276123   1.761   0.223  13.339 -0.3809 -0.0279 -0.5086
18211TIP3    H176124   1.782   0.205  13.247  0.1447  0.1099 -0.4210
18211TIP3    H276125   1.752   0.318  13.343 -0.3380 -0.0284 -0.4049
18212TIP3   OH276126   1.612   0.945   3.635  0.7654 -0.1481 -0.2938
18212TIP3    H176127   1.620   1.040   3.626  0.4317 -0.0790  0.1282
18212TIP3    H276128   1.537   0.922   3.580  1.6896 -0.3550 -1.5102
18213TIP3   OH276129   4.267   3.490  12.955 -0.1573  0.3625 -0.2487
18213TIP3    H176130   4.173   3.474  12.955 -0.1644  0.3862 -0.7050
18213TIP3    H276131   4.278   3.572  13.003 -0.3052  0.0280  0.3667
18214TIP3   OH276132   2.755   2.654  11.109  0.5620 -0.1577  0.3392
18214TIP3    H176133   2.700   2.582  11.140 -0.1062  0.9327  1.8144
18214TIP3    H276134   2.828   2.657  11.170  0.4620  0.5518  0.4346
18215TIP3   OH276135   0.810   3.103  15.577  0.3098 -0.2408 -0.1049
18215TIP3    H176136   0.727   3.097  15.623  0.9180  0.1301  1.0783
18215TIP3    H276137   0.786   3.102  15.484 -0.8562 -2.5127  0.1474
18216TIP3   OH276138   0.991   4.250   2.378 -0.3086  0.0258 -0.8117
18216TIP3    H176139   0.997   4.226   2.286 -1.8720 -1.1745 -0.6545
18216TIP3    H276140   0.939   4.180   2.417 -2.4468  2.0960  0.3193
18217TIP3   OH276141   1.939   2.463   3.905 -0.1968  0.2353 -0.4559
18217TIP3    H176142   1.999   2.418   3.964  0.9839 -0.4838 -2.1435
18217TIP3    H276143   1.938   2.553   3.937  0.3040 -0.1550  0.7298
18218TIP3   OH276144   2.245   3.212  14.959 -0.1967 -0.1184 -0.2390
18218TIP3    H176145   2.206   3.271  15.024 -1.1696 -0.4812 -0.4863
18218TIP3    H276146   2.313   3.266  14.917 -0.7130  0.6607 -0.1000
18219TIP3   OH276147   5.077   0.182   2.903  0.0919  0.2311 -0.8688
18219TIP3    H176148   5.116   0.114   2.957 -0.2969  0.7682  0.0973
18219TIP3    H276149   4.984   0.183   2.926  0.0386  0.9018 -1.0706
18220TIP3   OH276150   3.142   3.948   1.866 -0.3642  0.3021  0.6527
18220TIP3    H176151   3.157   4.015   1.932  0.4389  1.4261 -0.6284
18220TIP3    H276152   3.140   3.995   1.783  2.5293 -1.4409 -0.5694
18221TIP3   OH276153   4.100   6.746  16.415  0.4099  0.5183 -0.6871
18221TIP3    H176154   4.040   6.710  16.480  1.9981 -0.8792  0.0701
18221TIP3    H276155   4.164   6.795  16.466  0.5462  1.0709 -1.3805
18222TIP3   OH276156   1.761   5.194   1.092 -0.2871  0.7946 -0.1946
18222TIP3    H176157   1.686   5.200   1.150  0.6199  1.3904  0.9557
18222TIP3    H276158   1.743   5.257   1.022 -1.7848 -0.5439 -1.0910
18223TIP3   OH276159   0.498   5.987   4.104 -0.1975  0.0370  0.8183
18223TIP3    H176160   0.562   6.036   4.053 -1.7765  0.8440 -0.4806
18223TIP3    H276161   0.525   5.999   4.195 -0.2414  2.9774  0.5303
18224TIP3   OH276162   1.880   5.317   3.617  0.2012  0.6448  0.6175
18224TIP3    H176163   1.875   5.281   3.528  0.0981  0.8337  0.5469
18224TIP3    H276164   1.810   5.273   3.664  0.8599 -0.1751  0.8659
18225TIP3   OH276165   3.663   1.539  16.747  0.1563 -0.3259 -0.2822
18225TIP3    H176166   3.722   1.478  16.702  0.6732  0.9339 -1.3609
18225TIP3    H276167   3.655   1.503  16.835  1.3282 -1.3512 -0.5631
18226TIP3   OH276168   6.500   4.767   1.243 -0.6738 -0.0142 -0.1673
18226TIP3    H176169   6.457   4.831   1.186  2.2213  2.5915  0.2576
18226TIP3    H276170   6.531   4.699   1.183  0.4725  1.6012 -1.5181
18227TIP3   OH276171   2.720   0.786   0.141  0.0052  0.1932 -0.1032
18227TIP3    H176172   2.633   0.815   0.114 -1.1865 -1.3506  1.7548
18227TIP3    H276173   2.724   0.694   0.114  0.2644 -0.2836  1.4228
18228TIP3   OH276174   0.876   2.796  12.838  0.2255 -0.1847 -0.2740
18228TIP3    H176175   0.865   2.801  12.743  1.5149  2.1103 -0.3572
18228TIP3    H276176   0.961   2.754  12.850  0.2470 -0.1040 -0.1446
18229TIP3   OH276177   4.701   2.757   3.318 -0.2232  0.2483 -0.1812
18229TIP3    H176178   4.663   2.681   3.363 -0.1854  0.6188  0.4846
18229TIP3    H276179   4.632   2.823   3.319  0.1980  0.6831  0.4207
18230TIP3   OH276180   0.472   3.748   3.692  0.0645  0.3157 -0.2090
18230TIP3    H176181   0.426   3.755   3.776 -0.5717  2.2878 -0.6624
18230TIP3    H276182   0.406   3.773   3.626  0.3495 -1.8579 -1.4021
18231TIP3   OH276183   6.676   2.324   3.681  0.2612 -0.1663 -0.0440
18231TIP3    H176184   6.706   2.310   3.591  2.6436 -0.7901  0.7842
18231TIP3    H276185   6.676   2.419   3.692  4.3878 -0.0764  0.5574
18232TIP3   OH276186   6.560   5.276  15.373 -0.3376  0.2753  0.9489
18232TIP3    H176187   6.549   5.186  15.343 -1.1359 -0.0683  2.2107
18232TIP3    H276188   6.534   5.274  15.465  1.0483  1.4959  1.4077
18233TIP3   OH276189   1.750   6.054  13.433  0.0955 -0.2240 -0.0056
18233TIP3    H176190   1.835   6.084  13.400  0.7413 -0.6423  1.2093
18233TIP3    H276191   1.711   6.132  13.473  0.1507 -0.1563 -0.0827
18234TIP3   OH276192   4.184   4.872   3.845 -0.4563 -0.2191 -0.2620
18234TIP3    H176193   4.206   4.891   3.754 -0.7764  1.5601 -0.0054
18234TIP3    H276194   4.254   4.911   3.896 -1.1292  0.2691  0.3178
18235TIP3   OH276195   6.637   5.097   3.028  0.0243  0.0209 -0.3309
18235TIP3    H176196   6.728   5.089   3.055  0.7614  3.0425 -1.4947
18235TIP3    H276197   6.641   5.115   2.934 -1.4266  3.5684  0.1298
18236TIP3   OH276198   4.243   1.158  12.922  0.2122 -0.1245  0.2968
18236TIP3    H176199   4.156   1.142  12.959  0.0361  1.0899  0.4695
18236TIP3    H276200   4.276   1.072  12.899  0.4720 -1.0650  3.6532
18237TIP3   OH276201   0.359   4.965   5.956 -0.1564 -0.6053  0.3438
18237TIP3    H176202   0.390   5.011   5.878 -1.2841 -0.4864 -0.0465
18237TIP3    H276203   0.372   4.873   5.936  1.1367 -0.5273  0.7126
18238TIP3   OH276204   3.000   6.601  14.734  0.1932 -0.4976  0.2713
18238TIP3    H176205   2.908   6.608  14.711  0.1632 -0.7942  0.2937
18238TIP3    H276206   3.008   6.646  14.818  0.3051  0.6079 -0.3179
18239TIP3   OH276207   6.773   0.908  15.087  0.0447 -0.4952  0.0752
18239TIP3    H176208   6.681   0.921  15.066  0.6295  1.6225 -1.5222
18239TIP3    H276209   6.797   0.984  15.139  0.9505 -0.9428  0.3421
18240TIP3   OH276210   6.450   6.733   4.475  0.2963  0.3493  0.1333
18240TIP3    H176211   6.445   6.813   4.528  2.2405  1.8126 -1.6970
18240TIP3    H276212   6.540   6.704   4.483 -0.2136 -1.3109  0.2179
18241TIP3   OH276213   0.810   6.710  11.672  0.0331 -0.0451  0.2861
18241TIP3    H176214   0.740   6.774  11.658  1.0232  1.0795  0.3196
18241TIP3    H276215   0.891   6.758  11.654  0.8035 -1.3600  0.0693
18242TIP3   OH276216   3.352   4.634   2.978  0.0929 -0.2559  0.5966
18242TIP3    H176217   3.373   4.552   3.022 -0.6186 -0.6742  0.1740
18242TIP3    H276218   3.367   4.617   2.885 -1.3698 -0.3566  0.3512
18243TIP3   OH276219   2.312   0.685  13.796 -0.1277  0.0046 -0.2717
18243TIP3    H176220   2.272   0.645  13.873  0.0193 -2.2257 -1.2634
18243TIP3    H276221   2.404   0.697  13.820 -0.5928  1.8475  0.7766
18244TIP3   OH276222   4.451   0.714  12.768  0.4887  0.5225  0.1477
18244TIP3    H176223   4.468   0.665  12.687  0.0576  0.9525 -0.2154
18244TIP3    H276224   4.512   0.678  12.832 -1.0801 -1.7863  0.4349
18245TIP3   OH276225   0.358   2.058   0.612 -0.7293  0.0574  0.4101
18245TIP3    H176226   0.361   2.043   0.706  1.0027  2.9620  0.9198
18245TIP3    H276227   0.441   2.024   0.579 -0.3383  1.0687  0.3185
18246TIP3   OH276228   3.183   4.035  16.513  0.3205  0.7379 -0.0693
18246TIP3    H176229   3.227   4.119  16.499  0.4259  0.7041  0.0617
18246TIP3    H276230   3.133   4.020  16.432 -0.5508  1.4449  0.3120
18247TIP3   OH276231   1.051   6.284  11.846  0.7096 -0.5125  0.2477
18247TIP3    H176232   1.130   6.285  11.791  0.6038  0.8902  0.0882
18247TIP3    H276233   1.059   6.204  11.897  1.3616 -1.2927 -1.0284
18248TIP3   OH276234   3.770   0.504  12.922  0.2920  0.5084  0.2702
18248TIP3    H176235   3.830   0.463  12.984 -1.1000 -0.1250  1.2719
18248TIP3    H276236   3.745   0.432  12.863  0.4455  0.7486 -0.0913
18249TIP3   OH276237   5.731   3.520   2.910  0.0590  0.2943  0.2038
18249TIP3    H176238   5.801   3.574   2.948  0.5884  1.7121 -2.5211
18249TIP3    H276239   5.650   3.557   2.946  0.4852  2.1496 -0.6034
18250TIP3   OH276240   3.053   4.396   2.497 -0.1662  0.7654  0.3561
18250TIP3    H176241   3.058   4.485   2.532 -1.3870  1.3406 -0.8940
18250TIP3    H276242   3.074   4.405   2.404  0.4716 -0.3847  0.3656
18251TIP3   OH276243   3.122   0.786  10.535  0.0675  0.6871 -0.4461
18251TIP3    H176244   3.051   0.757  10.478 -0.1091 -1.6899  0.8552
18251TIP3    H276245   3.155   0.706  10.574  1.5820  2.0272  1.1760
18252TIP3   OH276246   4.737   5.437   1.461  0.4324 -0.0309  0.4237
18252TIP3    H176247   4.744   5.367   1.396 -1.3703  0.0628  0.0906
18252TIP3    H276248   4.828   5.458   1.483  1.0409 -1.2639 -0.7635
18253TIP3   OH276249   1.556   2.124   2.063  0.5033 -0.2096  0.2336
18253TIP3    H176250   1.616   2.087   2.128  0.9440 -0.2440 -0.1971
18253TIP3    H276251   1.589   2.095   1.979 -0.2165 -0.3696 -0.0014
18254TIP3   OH276252   5.890   6.174   2.416 -0.1763 -0.0816  0.4731
18254TIP3    H176253   5.891   6.079   2.426 -1.4002 -0.1530  0.1249
18254TIP3    H276254   5.821   6.191   2.352  1.0352  0.9581 -0.6053
18255TIP3   OH276255   2.836   1.846   3.338 -0.2154  0.4348  0.4405
18255TIP3    H176256   2.828   1.770   3.395 -2.4653  0.8534  0.7563
18255TIP3    H276257   2.858   1.919   3.397  3.7323 -0.1309 -0.0483
18256TIP3   OH276258   6.588   6.518  14.097 -0.7140  0.1874 -0.2296
18256TIP3    H176259   6.530   6.556  14.163 -1.8276  0.6725 -1.4485
18256TIP3    H276260   6.607   6.591  14.037  1.8491  0.2657  0.5606
18257TIP3   OH276261   0.054   0.366  11.626 -0.4269  0.0468 -0.0792
18257TIP3    H176262   0.053   0.270  11.625 -1.0124  0.0210  1.1135
18257TIP3    H276263   0.146   0.390  11.619 -0.1743 -0.6398  0.7742
18258TIP3   OH276264   5.414   1.532  12.286 -0.7090 -0.1791 -0.4791
18258TIP3    H176265   5.440   1.444  12.260 -2.6360 -1.6429  2.0536
18258TIP3    H276266   5.393   1.576  12.203  0.0908 -2.1409 -1.7979
18259TIP3   OH276267   4.643   6.090   3.306 -0.1989 -0.5035 -0.0406
18259TIP3    H176268   4.552   6.071   3.328 -0.7878  1.1628 -0.9084
18259TIP3    H276269   4.692   6.068   3.386 -1.6965  1.0126  1.3768
18260TIP3   OH276270   2.886   1.694  11.197 -0.0934  0.1675  0.0680
18260TIP3    H176271   2.931   1.736  11.270  0.4538  0.4280 -0.4088
18260TIP3    H276272   2.930   1.610  11.186 -2.2607 -1.3536  2.0977
18261TIP3   OH276273   2.887   2.447   4.183 -0.3346 -0.1844 -0.1440
18261TIP3    H176274   2.973   2.427   4.147 -1.4689 -1.7140 -2.2899
18261TIP3    H276275   2.852   2.513   4.123 -0.9436 -0.1473  0.2481
18262TIP3   OH276276   5.953   2.464   0.255 -0.4850 -0.3479 -0.0189
18262TIP3    H176277   5.874   2.429   0.295 -1.3283 -1.8834 -2.7212
18262TIP3    H276278   5.930   2.474   0.162  1.3462  2.7723 -0.2831
18263TIP3   OH276279   4.428   0.031   4.759 -0.0616 -0.2035 -0.4329
18263TIP3    H176280   4.340   0.032   4.722  0.6251  0.9690 -2.1230
18263TIP3    H276281   4.482   0.077   4.696  1.6239 -0.1123  0.9879
18264TIP3   OH276282   0.828   2.445   5.163  0.0420 -0.2894  0.0281
18264TIP3    H176283   0.802   2.358   5.134  0.3726 -0.1405 -0.7525
18264TIP3    H276284   0.768   2.465   5.235  0.2088 -1.3028  0.4610
18265TIP3   OH276285   4.586   0.859  14.736 -0.4354 -0.8078 -0.6546
18265TIP3    H176286   4.650   0.789  14.751 -0.7563 -0.6838  1.8496
18265TIP3    H276287   4.557   0.883  14.824 -2.3864  0.5844 -1.6021
18266TIP3   OH276288   5.484   4.031   2.010  0.8287 -0.4742  0.2252
18266TIP3    H176289   5.461   4.115   1.970  2.4752  0.2220  0.6774
18266TIP3    H276290   5.487   3.970   1.936 -0.6263 -0.2121 -0.0719
18267TIP3   OH276291   2.310   3.638   0.181 -0.0201  0.4823  0.2455
18267TIP3    H176292   2.356   3.573   0.234 -1.3044  1.6373  2.9802
18267TIP3    H276293   2.324   3.721   0.228 -0.5024  1.7724 -1.7611
18268TIP3   OH276294   4.232   5.829  12.037  0.0305  0.1624  0.0460
18268TIP3    H176295   4.273   5.914  12.025  0.1447  0.0505 -0.3846
18268TIP3    H276296   4.304   5.766  12.031  0.0307  0.0687  0.9409
18269TIP3   OH276297   5.159   1.978   4.036  0.0916 -0.6503  0.1089
18269TIP3    H176298   5.122   2.066   4.045  0.4873 -0.4602 -0.1041
18269TIP3    H276299   5.148   1.957   3.944 -0.3987 -1.0035  0.2465
18270TIP3   OH276300   2.999   0.875  12.225 -0.2002 -0.7486  0.2936
18270TIP3    H176301   2.955   0.871  12.140  0.1914 -0.4445  0.0675
18270TIP3    H276302   3.007   0.784  12.253  0.3905 -0.9174 -0.3822
18271TIP3   OH276303   5.667   2.065   5.914 -0.1644 -0.0800  0.5883
18271TIP3    H176304   5.613   1.990   5.937 -0.1038 -0.5754 -0.8500
18271TIP3    H276305   5.727   2.033   5.847 -0.1231  1.2338 -0.0340
18272TIP3   OH276306   6.068   0.659  15.223 -0.2097 -0.0955  0.1962
18272TIP3    H176307   5.998   0.638  15.285 -0.9288 -0.7233 -0.8011
18272TIP3    H276308   6.023   0.676  15.141  0.5801  2.6539  0.2586
18273TIP3   OH276309   0.345   1.412   0.553  0.1210  0.2937 -0.0637
18273TIP3    H176310   0.274   1.462   0.593  1.5996  1.4279  1.2444
18273TIP3    H276311   0.331   1.323   0.583 -0.3119  0.6459  0.8148
18274TIP3   OH276312   0.759   3.826  15.564  0.5294 -0.6156  0.4383
18274TIP3    H176313   0.747   3.919  15.585 -1.9698 -0.3799 -1.5385
18274TIP3    H276314   0.827   3.796  15.624  0.6642  2.2265  1.8558
18275TIP3   OH276315   3.988   5.570   1.470 -0.1493 -0.0680  0.3841
18275TIP3    H176316   3.938   5.639   1.513 -0.7267 -1.1042  1.4327
18275TIP3    H276317   3.995   5.501   1.535  2.3910 -0.1201  0.1481
18276TIP3   OH276318   5.796   5.393   1.286  0.6259 -0.0766  0.2033
18276TIP3    H176319   5.792   5.309   1.332  1.2108 -0.8573 -1.0908
18276TIP3    H276320   5.880   5.391   1.241  1.1940  1.7577  1.1174
18277TIP3   OH276321   5.503   5.535   1.386  0.0911 -0.5898 -0.1546
18277TIP3    H176322   5.521   5.523   1.292  1.0990  1.2024 -0.2314
18277TIP3    H276323   5.570   5.597   1.416 -2.1395  1.4458  0.9975
18278TIP3   OH276324   6.449   1.104  13.218  0.5076 -0.4642  0.0428
18278TIP3    H176325   6.493   1.025  13.250  0.1901 -0.3344  0.8407
18278TIP3    H276326   6.400   1.075  13.141  1.3543 -0.7775 -0.3831
18279TIP3   OH276327   2.540   3.248   3.665  0.3311 -0.3898  0.2284
18279TIP3    H176328   2.621   3.228   3.619  0.1254  0.5834 -0.6137
18279TIP3    H276329   2.472   3.202   3.616  0.1693  0.2740 -0.1966
18280TIP3   OH276330   2.876   3.860  15.778 -0.2176 -0.4061  0.3594
18280TIP3    H176331   2.867   3.784  15.720 -0.1185 -0.5046  0.4727
18280TIP3    H276332   2.958   3.901  15.751  2.2431 -2.9443  3.3006
18281TIP3   OH276333   0.440   1.808  13.541 -0.1456 -0.1507 -0.1187
18281TIP3    H176334   0.532   1.827  13.527 -0.5477  1.9335 -0.2669
18281TIP3    H276335   0.430   1.803  13.636 -0.0356  0.6450 -0.0571
18282TIP3   OH276336   6.075   6.766  14.040 -0.1559  0.4784  0.2643
18282TIP3    H176337   6.074   6.853  14.079  1.6126  0.6125  0.0796
18282TIP3    H276338   6.127   6.776  13.960  0.4619 -0.8487  0.4810
18283TIP3   OH276339   6.151   6.149   4.972 -0.2206 -0.7133 -0.2403
18283TIP3    H176340   6.072   6.171   4.923 -0.3160 -1.2988 -0.3515
18283TIP3    H276341   6.138   6.059   5.000  0.5159 -0.8957 -0.4697
18284TIP3   OH276342   0.895   2.292  15.669 -0.7286  0.4397  0.0979
18284TIP3    H176343   0.914   2.221  15.608  2.8335 -1.5074  3.0271
18284TIP3    H276344   0.816   2.265  15.715 -0.7494 -0.4712 -0.4519
18285TIP3   OH276345   4.650   5.107   6.513  0.6246 -1.2746 -0.5113
18285TIP3    H176346   4.705   5.059   6.451  0.5929 -1.0828 -0.6920
18285TIP3    H276347   4.711   5.158   6.566  0.9233 -3.7912  1.7341
18286TIP3   OH276348   1.318   1.722   5.475 -0.3457  0.1787 -0.5315
18286TIP3    H176349   1.375   1.743   5.401  2.4558  0.1405  1.4237
18286TIP3    H276350   1.309   1.627   5.471  2.4480 -0.2543  0.7683
18287TIP3   OH276351   5.745   3.311  14.700 -0.1059  0.2550  0.3997
18287TIP3    H176352   5.686   3.361  14.757 -1.1904  2.1374 -2.1862
18287TIP3    H276353   5.832   3.345  14.720 -0.5683  1.5113  0.4071
18288TIP3   OH276354   0.947   2.003  14.921 -0.5390 -0.6775 -0.0033
18288TIP3    H176355   1.031   2.047  14.910 -0.0750 -1.7057 -0.7520
18288TIP3    H276356   0.883   2.064  14.883  0.0037 -0.3812 -0.4573
18289TIP3   OH276357   6.415   0.359  17.014 -0.4393 -0.8291 -0.5650
18289TIP3    H176358   6.408   0.454  17.019  0.0855 -0.7956 -0.4069
18289TIP3    H276359   6.502   0.342  16.979 -0.4129 -1.2542 -0.3141
18290TIP3   OH276360   4.396   2.425  11.412  0.1504 -0.2987 -0.6982
18290TIP3    H176361   4.464   2.492  11.422 -0.2353 -0.1724  1.8179
18290TIP3    H276362   4.376   2.399  11.502 -3.2756 -0.2054 -1.3274
18291TIP3   OH276363   2.398   5.440  13.486 -0.0952  0.7771  0.8775
18291TIP3    H176364   2.376   5.419  13.577 -2.1199 -0.5725  0.1616
18291TIP3    H276365   2.332   5.505  13.460  0.4666  1.1532  0.3644
18292TIP3   OH276366   4.059   2.132   3.457  0.2845  0.7914 -0.1060
18292TIP3    H176367   4.041   2.109   3.366 -0.6246 -0.3954  0.3447
18292TIP3    H276368   3.981   2.105   3.505  0.2847  2.4142  0.8988
18293TIP3   OH276369   4.348   6.783   5.175  0.1770  0.1179  0.2187
18293TIP3    H176370   4.366   6.690   5.164  1.9506  0.4745 -0.1499
18293TIP3    H276371   4.265   6.786   5.223  0.4978 -1.6530  0.9585
18294TIP3   OH276372   1.128   1.364   5.479 -0.6007  0.1528  0.2941
18294TIP3    H176373   1.155   1.276   5.505  0.4111  1.1936  3.0880
18294TIP3    H276374   1.034   1.357   5.463 -0.1359 -1.9409 -2.2791
18295TIP3   OH276375   1.433   2.239  15.025 -0.0711  0.0447 -0.1759
18295TIP3    H176376   1.490   2.165  15.046  0.0378  0.4606  1.0602
18295TIP3    H276377   1.344   2.204  15.035 -0.0924 -0.7080 -2.4670
18296TIP3   OH276378   2.826   1.148  16.804 -0.1605 -0.1885 -0.4724
18296TIP3    H176379   2.852   1.236  16.778  0.3053 -0.3801 -0.6691
18296TIP3    H276380   2.825   1.150  16.900 -0.0436 -0.0043 -0.4749
18297TIP3   OH276381   1.952   1.876  13.697 -0.0830  0.1459  0.4009
18297TIP3    H176382   1.931   1.785  13.720 -0.3386  0.1336  0.1325
18297TIP3    H276383   2.036   1.869  13.651 -0.9741 -0.2042 -1.2755
18298TIP3   OH276384   1.088   4.077  11.480 -1.2673 -0.5711 -0.2358
18298TIP3    H176385   1.017   4.113  11.426 -0.4527  0.5105 -0.6156
18298TIP3    H276386   1.065   4.103  11.569 -0.9596  0.4902 -0.4459
18299TIP3   OH276387   3.230   0.456  13.117 -0.0306  0.5680  0.1497
18299TIP3    H176388   3.211   0.549  13.131 -3.3376  0.1152 -0.5273
18299TIP3    H276389   3.287   0.455  13.040  0.6946  2.0320  0.6259
18300TIP3   OH276390   1.971   5.086   4.133 -0.1829  0.4082 -0.0003
18300TIP3    H176391   2.053   5.049   4.165 -0.4954 -1.0399 -0.8006
18300TIP3    H276392   1.993   5.124   4.048 -0.3990 -0.3868 -0.4301
18301TIP3   OH276393   3.953   3.567  16.326  0.6581 -0.5912  0.5592
18301TIP3    H176394   3.941   3.545  16.234  0.6595 -1.0019  0.6571
18301TIP3    H276395   3.975   3.660  16.326  0.5124 -0.5565  0.1568
18302TIP3   OH276396   0.574   3.569  16.043  0.6476 -0.2013  0.1504
18302TIP3    H176397   0.562   3.582  15.949 -0.2447 -2.8935 -0.1717
18302TIP3    H276398   0.498   3.518  16.070  1.3293 -0.2227  2.1788
18303TIP3   OH276399   3.525   0.374  15.182 -0.0588  0.1567 -0.3132
18303TIP3    H176400   3.540   0.370  15.088 -0.5329 -0.6329 -0.3684
18303TIP3    H276401   3.564   0.457  15.209  1.3528 -0.2568 -0.9657
18304TIP3   OH276402   2.009   4.279  13.818 -0.4940  0.6774 -0.1100
18304TIP3    H176403   2.099   4.312  13.809 -0.5543  0.9557  0.3039
18304TIP3    H276404   2.021   4.187  13.843 -0.3246  0.6189 -0.3995
18305TIP3   OH276405   4.002   5.070   1.320 -0.0662 -0.6754 -0.1555
18305TIP3    H176406   4.031   5.003   1.382 -0.2086 -1.2162 -0.6727
18305TIP3    H276407   3.927   5.112   1.364  0.6672 -0.1337  0.6220
18306TIP3   OH276408   2.136   1.866  16.716  0.8472  0.0164 -0.0600
18306TIP3    H176409   2.056   1.917  16.726  0.6222 -0.4353  0.5159
18306TIP3    H276410   2.174   1.897  16.634  1.0510  1.5756  0.5780
18307TIP3   OH276411   0.737   0.898  15.199 -0.7552 -0.1598 -0.3385
18307TIP3    H176412   0.677   0.824  15.197  0.9175 -1.5821 -0.3695
18307TIP3    H276413   0.732   0.930  15.289 -0.5512 -1.1510  0.0362
18308TIP3   OH276414   4.997   1.995  11.048  0.0022  0.1337 -0.0037
18308TIP3    H176415   5.085   2.009  11.082 -0.4889  1.6700  0.7653
18308TIP3    H276416   4.982   2.070  10.990 -1.3963  0.8580  1.2308
18309TIP3   OH276417   0.945   2.388   3.797 -0.0545 -1.0052  0.1586
18309TIP3    H176418   0.932   2.307   3.747  0.3506 -1.8289  1.3210
18309TIP3    H276419   1.040   2.403   3.794 -0.2012 -0.1789 -0.6182
18310TIP3   OH276420   1.561   2.865  16.811 -0.0369  0.1401  0.6041
18310TIP3    H176421   1.646   2.887  16.772 -0.2400 -0.1385 -0.0105
18310TIP3    H276422   1.535   2.944  16.859  0.4221  0.3340  0.5418
18311TIP3   OH276423   4.433   4.024  14.156 -0.2068 -0.0826  0.2329
18311TIP3    H176424   4.392   3.938  14.153 -1.6119  0.4829  1.5806
18311TIP3    H276425   4.526   4.006  14.168 -0.5722 -1.4355  1.4053
18312TIP3   OH276426   0.865   4.966  12.508  0.1326 -0.2849 -0.3130
18312TIP3    H176427   0.820   5.044  12.476 -0.1363 -0.4696 -0.3921
18312TIP3    H276428   0.806   4.930  12.575  0.5418 -0.0758  0.1637
18313TIP3   OH276429   1.142   3.479  12.927  0.2989 -0.3834 -0.4589
18313TIP3    H176430   1.172   3.465  12.838  1.6395  1.2818 -0.3168
18313TIP3    H276431   1.104   3.566  12.926 -0.3557 -0.6438  0.4436
18314TIP3   OH276432   0.336   4.632   5.432  0.1424  0.6197  0.1706
18314TIP3    H176433   0.414   4.625   5.486  0.1028  3.6722  0.8079
18314TIP3    H276434   0.368   4.659   5.346 -0.0871 -0.1568 -0.1652
18315TIP3   OH276435   6.050   3.214  16.965 -0.6361  0.2127 -0.1651
18315TIP3    H176436   6.024   3.135  16.917 -1.1818  0.2425  0.0734
18315TIP3    H276437   6.142   3.227  16.942 -0.4574 -0.6640  0.0434
18316TIP3   OH276438   4.542   5.894  17.074 -0.2722 -0.2419 -0.4971
18316TIP3    H176439   4.594   5.972  17.090 -1.2850 -0.0078  2.2086
18316TIP3    H276440   4.569   5.832  17.142 -1.6671 -1.0687 -0.6359
18317TIP3   OH276441   4.791   6.640  13.100  0.2340  0.1279 -0.5587
18317TIP3    H176442   4.708   6.658  13.055 -1.2778 -1.0771  1.5415
18317TIP3    H276443   4.795   6.545  13.106  1.8446  0.1577 -0.6946
18318TIP3   OH276444   6.727   1.542   5.810 -0.4028  0.2234  0.0514
18318TIP3    H176445   6.754   1.570   5.898  1.1190 -0.6112 -0.1031
18318TIP3    H276446   6.753   1.614   5.753  0.8846 -0.2416  0.0091
18319TIP3   OH276447   4.722   6.079   3.866  0.1874  0.3951  0.2757
18319TIP3    H176448   4.811   6.110   3.884  0.0009  1.4097 -0.4473
18319TIP3    H276449   4.673   6.100   3.945  0.5776 -0.1239  0.6605
18320TIP3   OH276450   6.083   5.009  14.964  0.5576 -0.5167 -0.2761
18320TIP3    H176451   6.171   5.035  14.992 -0.1661  1.8596  0.0608
18320TIP3    H276452   6.037   4.990  15.046  0.6777 -1.5459 -0.4378
18321TIP3   OH276453   0.699   3.806  16.768  0.0115  0.3448  0.3042
18321TIP3    H176454   0.693   3.849  16.854 -0.1112  0.0686  0.4344
18321TIP3    H276455   0.611   3.813  16.732 -0.2005 -0.4586  0.6496
18322TIP3   OH276456   3.127   6.617  16.001 -0.5832  0.5065 -0.1385
18322TIP3    H176457   3.219   6.633  16.025 -0.2203 -0.4825 -0.8222
18322TIP3    H276458   3.101   6.696  15.953  0.4662  0.0874 -1.4666
18323TIP3   OH276459   0.636   3.669   0.470  0.0976 -0.5453  0.5999
18323TIP3    H176460   0.613   3.752   0.511 -0.1065 -0.5720  0.5411
18323TIP3    H276461   0.565   3.652   0.408  0.8026 -0.1184 -0.3444
18324TIP3   OH276462   1.321   2.455   5.331  0.1262 -0.0480  0.1283
18324TIP3    H176463   1.249   2.481   5.388  1.1504  3.2597  0.0902
18324TIP3    H276464   1.370   2.535   5.315  2.4424 -1.6977 -1.8467
18325TIP3   OH276465   4.250   2.904   6.336  0.3162  0.4071  0.0374
18325TIP3    H176466   4.199   2.853   6.273 -1.0116  0.3169  1.1462
18325TIP3    H276467   4.186   2.936   6.399  0.9091  4.2872 -1.0687
18326TIP3   OH276468   0.063   3.017   3.583  0.1201  0.3099 -0.6349
18326TIP3    H176469  -0.017   3.003   3.532  0.4179 -1.1410 -0.7639
18326TIP3    H276470   0.132   3.021   3.517  0.3961 -0.6428 -0.4155
18327TIP3   OH276471   1.089   2.113  16.558  0.1794 -0.1849  0.8206
18327TIP3    H176472   1.034   2.185  16.529  1.3619 -0.1357 -1.5267
18327TIP3    H276473   1.029   2.053  16.602 -0.9528  1.8051  2.1103
18328TIP3   OH276474   1.043   5.846  11.376 -0.2777 -0.4684 -0.1811
18328TIP3    H176475   0.971   5.816  11.320 -0.0276  0.6353 -1.1496
18328TIP3    H276476   1.122   5.808  11.337  0.0941  1.6537 -1.6921
18329TIP3   OH276477   3.243   4.971   1.221 -0.4160 -0.2815 -0.1382
18329TIP3    H176478   3.332   4.967   1.257 -0.5114 -0.5040  0.0754
18329TIP3    H276479   3.247   4.917   1.142 -0.1912  0.2557 -0.5032
18330TIP3   OH276480   4.631   0.850  11.249  0.4042 -0.4499  0.5620
18330TIP3    H176481   4.556   0.868  11.305 -1.0133  0.0598 -1.4061
18330TIP3    H276482   4.642   0.755  11.254 -0.1248 -0.4857  1.1504
18331TIP3   OH276483   5.446   2.832  11.959 -0.4646 -0.0479 -0.1788
18331TIP3    H176484   5.387   2.894  12.002  0.9032  1.7718 -0.8193
18331TIP3    H276485   5.523   2.883  11.936  0.3944 -1.8080 -1.4863
18332TIP3   OH276486   2.046   5.869   3.926  0.1448  0.0805  0.2921
18332TIP3    H176487   1.975   5.886   3.989 -0.0007 -0.0109  0.1546
18332TIP3    H276488   2.122   5.850   3.981 -0.0296 -0.2015  0.4422
18333TIP3   OH276489   0.097   0.475  10.955  0.2478  0.0539  0.1435
18333TIP3    H176490   0.162   0.408  10.932 -0.4959 -0.3227 -0.9838
18333TIP3    H276491   0.144   0.558  10.948  0.6063 -0.2082 -0.7156
18334TIP3   OH276492   1.726   5.189   4.969  0.0975  0.1714  0.9625
18334TIP3    H176493   1.747   5.126   4.900  0.3734  0.4449  0.7937
18334TIP3    H276494   1.720   5.273   4.924  1.1562  0.4999  1.3988
18335TIP3   OH276495   0.468   3.160   2.812  0.4905  0.2260 -0.0186
18335TIP3    H176496   0.445   3.138   2.722  1.9292  1.6762 -0.7914
18335TIP3    H276497   0.398   3.217   2.843  0.6059  0.7175 -0.6573
18336TIP3   OH276498   3.983   5.491  15.353 -0.1965  0.0456 -0.0676
18336TIP3    H176499   3.987   5.513  15.259 -1.4032  1.5877  0.2026
18336TIP3    H276500   3.982   5.576  15.397 -0.8313 -0.6440  1.2907
18337TIP3   OH276501   2.430   1.975  11.664  0.1808  0.1929 -0.0615
18337TIP3    H176502   2.476   1.921  11.728 -1.0711 -0.7384  0.0902
18337TIP3    H276503   2.338   1.966  11.687 -0.2552  0.2385 -1.6827
18338TIP3   OH276504   3.282   2.500  12.388 -0.0006 -0.0173 -0.0047
18338TIP3    H176505   3.209   2.454  12.430 -0.7578 -0.9520 -2.1616
18338TIP3    H276506   3.278   2.589  12.424 -1.3361 -0.4267  0.9558
18339TIP3   OH276507   0.663   1.497  11.591 -0.4815 -0.1670  0.0883
18339TIP3    H176508   0.693   1.427  11.649 -0.8965 -0.1614  0.3110
18339TIP3    H276509   0.736   1.511  11.531 -0.8516 -1.6396 -0.7499
18340TIP3   OH276510   0.110   6.700   5.904 -0.3181 -0.0382  0.6192
18340TIP3    H176511   0.040   6.754   5.941 -0.9498 -0.4084 -0.0260
18340TIP3    H276512   0.187   6.724   5.956 -1.3659 -1.3013  2.9383
18341TIP3   OH276513   5.626   4.452  14.358 -0.6760 -0.1939 -0.3746
18341TIP3    H176514   5.618   4.436  14.453 -0.3889  1.9964  0.0727
18341TIP3    H276515   5.550   4.408  14.320 -0.5534 -1.5045  0.7946
18342TIP3   OH276516   5.191   4.792  14.104  0.1417 -0.4915 -0.8460
18342TIP3    H176517   5.277   4.806  14.144 -0.4002  1.1426 -0.1568
18342TIP3    H276518   5.160   4.710  14.141 -0.3129  0.9086  2.1469
18343TIP3   OH276519   1.651   4.409  16.941  0.3364 -0.1062 -0.1140
18343TIP3    H176520   1.612   4.478  16.888 -0.8771  0.0884  0.9598
18343TIP3    H276521   1.653   4.332  16.884  0.6054  0.5166 -0.9527
18344TIP3   OH276522   0.462   1.847  14.913 -0.5113 -0.0542  0.7727
18344TIP3    H176523   0.447   1.872  14.822 -0.0888  0.1967  0.7726
18344TIP3    H276524   0.391   1.889  14.962 -1.4148 -1.1226  0.4191
18345TIP3   OH276525   6.625   2.683   4.198 -0.1527 -0.4028  0.3216
18345TIP3    H176526   6.706   2.634   4.209  0.5699  1.1034  2.3703
18345TIP3    H276527   6.562   2.618   4.165  1.8170 -1.6053 -1.2676
18346TIP3   OH276528   3.555   0.692  15.572 -0.0450  0.1609 -0.3520
18346TIP3    H176529   3.525   0.703  15.662 -0.5628  0.0241 -0.5013
18346TIP3    H276530   3.650   0.700  15.577 -0.0106 -0.4914  0.3023
18347TIP3   OH276531   5.265   1.330   4.921  0.1558 -0.5772 -0.0432
18347TIP3    H176532   5.208   1.284   4.859 -0.1901  1.4378 -1.3257
18347TIP3    H276533   5.212   1.338   5.001 -0.3926 -0.9587 -0.3620
18348TIP3   OH276534   3.011   3.805  16.534  0.0970  0.1030  0.1773
18348TIP3    H176535   2.938   3.850  16.576 -0.2019  0.2889 -0.5148
18348TIP3    H276536   3.078   3.873  16.522 -0.1877  0.2759 -0.4839
18349TIP3   OH276537   6.696   1.477   2.693 -0.4430 -0.7754 -0.0223
18349TIP3    H176538   6.654   1.541   2.751 -0.8832 -1.6480  0.6505
18349TIP3    H276539   6.782   1.464   2.732  0.3300  0.6806 -1.1498
18350TIP3   OH276540   1.337   4.455  14.025  0.1420  0.1286 -0.0589
18350TIP3    H176541   1.269   4.410  13.974 -0.8698  1.0994  0.3834
18350TIP3    H276542   1.367   4.390  14.088 -0.5514 -0.2418 -0.1043
18351TIP3   OH276543   3.166   2.336  16.849 -0.3870 -0.0419 -0.7564
18351TIP3    H176544   3.076   2.370  16.854 -0.2907 -0.0169  1.5148
18351TIP3    H276545   3.158   2.258  16.794 -1.7587  0.0497 -0.7375
18352TIP3   OH276546   4.613   3.381   5.399 -0.5371  0.3590 -0.5338
18352TIP3    H176547   4.610   3.337   5.314 -0.3893  0.3809 -0.5494
18352TIP3    H276548   4.668   3.458   5.385  0.7799 -0.4609 -0.0384
18353TIP3   OH276549   6.022   6.069   0.549  0.0813 -0.3799  0.5123
18353TIP3    H176550   6.116   6.050   0.544 -0.0301 -0.6842 -0.7967
18353TIP3    H276551   6.008   6.136   0.482 -0.7194 -0.7073  0.3439
18354TIP3   OH276552   1.848   1.438   4.279  0.4039 -0.7773  0.5086
18354TIP3    H176553   1.893   1.397   4.205 -0.9025 -0.6960 -0.3761
18354TIP3    H276554   1.784   1.373   4.307 -1.6091  0.4943 -0.8325
18355TIP3   OH276555   3.779   0.979  12.342 -0.5461  0.6195  0.1424
18355TIP3    H176556   3.855   0.968  12.400  1.3765  1.0983 -2.1085
18355TIP3    H276557   3.812   1.033  12.269 -2.7602 -0.0247 -1.4482
18356TIP3   OH276558   1.712   2.523   0.610  0.0235 -0.0630 -0.6449
18356TIP3    H176559   1.730   2.438   0.569  1.7329  0.0089 -0.1106
18356TIP3    H276560   1.796   2.569   0.607 -0.9602  1.7850 -1.2853
18357TIP3   OH276561   5.095   1.145  15.948 -0.5335 -0.8125 -0.6451
18357TIP3    H176562   5.068   1.074  15.889  1.9817 -0.8737 -1.8776
18357TIP3    H276563   5.155   1.198  15.894 -1.0881  1.3296  0.7473
18358TIP3   OH276564   2.367   1.820  13.939  0.2931  0.5250  0.3562
18358TIP3    H176565   2.323   1.739  13.914 -0.1038  0.4477  1.2692
18358TIP3    H276566   2.316   1.889  13.896 -1.5767  0.5372  2.4344
18359TIP3   OH276567   2.275   2.631   4.915 -0.1404 -0.2029  0.0552
18359TIP3    H176568   2.211   2.562   4.898 -0.6380  0.2740 -0.0097
18359TIP3    H276569   2.332   2.630   4.838  0.6218 -1.3797  0.6134
18360TIP3   OH276570   6.598   6.019   5.798 -0.2673  0.3326  1.1642
18360TIP3    H176571   6.542   5.949   5.832 -1.6492  1.3231  0.9931
18360TIP3    H276572   6.610   5.996   5.705 -0.6731  0.2966  1.1197
18361TIP3   OH276573   0.031   5.698   3.716  0.2610 -0.4815 -0.3573
18361TIP3    H176574   0.045   5.604   3.710 -0.4610 -1.0211  3.4916
18361TIP3    H276575  -0.063   5.710   3.698  0.3633 -0.4701 -0.8954
18362TIP3   OH276576   3.369   5.408  14.321  0.4499 -0.4487  0.4438
18362TIP3    H176577   3.286   5.361  14.323  0.0100  0.2725  0.0114
18362TIP3    H276578   3.421   5.363  14.254  0.7764 -1.4816  1.3834
18363TIP3   OH276579   5.054   0.419   0.923  0.0304 -0.2585 -0.5288
18363TIP3    H176580   4.991   0.361   0.882  1.9427 -1.7599 -1.5051
18363TIP3    H276581   5.095   0.366   0.991  0.3447  0.6457  0.0118
18364TIP3   OH276582   2.671   0.170  13.150 -0.2310 -0.0333 -0.0560
18364TIP3    H176583   2.679   0.231  13.223 -0.0306 -1.8305  1.4878
18364TIP3    H276584   2.609   0.212  13.090 -0.8823  1.2114  1.4313
18365TIP3   OH276585   1.752   0.311  11.078 -0.2859  0.1435 -0.4618
18365TIP3    H176586   1.685   0.276  11.136 -0.3725  1.7294  0.4636
18365TIP3    H276587   1.708   0.381  11.029  0.3834  0.4043 -0.7083
18366TIP3   OH276588   1.590   5.135  12.077  0.1132 -0.1518 -0.3580
18366TIP3    H176589   1.679   5.131  12.041  0.0697 -0.8490 -0.3896
18366TIP3    H276590   1.587   5.220  12.121  0.8439 -0.1803 -0.2242
18367TIP3   OH276591   2.687   3.946  15.586 -0.1642  0.2512 -0.0594
18367TIP3    H176592   2.598   3.911  15.598 -1.1533  1.7573 -2.2870
18367TIP3    H276593   2.724   3.949  15.674 -1.8030 -1.6725  0.7834
18368TIP3   OH276594   6.350   5.055   3.038 -0.1950  0.2746  0.1854
18368TIP3    H176595   6.307   5.022   3.117 -2.5428  0.2257 -1.0351
18368TIP3    H276596   6.441   5.069   3.065 -0.3679 -1.8816  2.2756
18369TIP3   OH276597   0.467   2.479  15.675  0.4209  0.0624 -0.2031
18369TIP3    H176598   0.426   2.563  15.653  2.2668  1.0513 -0.0757
18369TIP3    H276599   0.438   2.419  15.606 -1.7039  0.4955  0.2245
18370TIP3   OH276600   3.021   2.199   4.966  0.5319  0.6357  0.5691
18370TIP3    H176601   2.951   2.252   5.003  1.2556  0.3459  2.5005
18370TIP3    H276602   3.088   2.197   5.035  0.8228 -2.1764  0.3142
18371TIP3   OH276603   1.347   2.790  14.051  0.3443 -0.5387  0.8498
18371TIP3    H176604   1.275   2.852  14.040  0.7326 -0.1546  0.4388
18371TIP3    H276605   1.304   2.705  14.066 -0.2115  0.0256  2.8056
18372TIP3   OH276606   1.508   0.192  14.260 -0.1148  0.0775 -0.6756
18372TIP3    H176607   1.591   0.239  14.253  0.7112 -1.1039  0.4733
18372TIP3    H276608   1.501   0.142  14.179  0.6365 -0.2811 -0.5354
18373TIP3   OH276609   3.809   6.472  12.785 -0.1907  1.0225  0.6255
18373TIP3    H176610   3.834   6.394  12.834 -0.7299  0.7423  0.4597
18373TIP3    H276611   3.861   6.468  12.705 -0.3723  0.7193  0.5215
18374TIP3   OH276612   3.749   1.754   1.472  0.4189 -0.3321 -0.3604
18374TIP3    H176613   3.766   1.726   1.382  1.1733 -0.4445 -0.1922
18374TIP3    H276614   3.757   1.674   1.524 -1.6685 -0.5887 -0.3731
18375TIP3   OH276615   5.681   1.883  12.512  0.1752 -0.2464  0.0641
18375TIP3    H176616   5.686   1.874  12.417  1.3261  0.9429 -0.0129
18375TIP3    H276617   5.750   1.826  12.546 -0.0364 -0.4402  0.1685
18376TIP3   OH276618   6.722   4.157  15.099 -0.2656 -1.0031  0.5488
18376TIP3    H176619   6.691   4.076  15.140 -2.1636 -0.8178 -0.4030
18376TIP3    H276620   6.644   4.193  15.055  0.4794  1.4344  1.0861
18377TIP3   OH276621   0.920   2.129  17.187  0.3632 -0.3972 -0.7521
18377TIP3    H176622   0.831   2.126  17.220  0.6322  1.9029  0.3259
18377TIP3    H276623   0.915   2.182  17.107  0.5616 -1.5090 -1.5278
18378TIP3   OH276624   1.930   0.531  16.394  0.1527  0.1522 -0.0150
18378TIP3    H176625   1.851   0.546  16.446  0.4491 -0.6986  0.7016
18378TIP3    H276626   1.900   0.535  16.303 -0.2980  2.0681  0.1795
18379TIP3   OH276627   3.333   5.961  14.210  0.1825 -0.6243  0.1053
18379TIP3    H176628   3.246   5.928  14.234 -0.1376 -0.1836 -0.4265
18379TIP3    H276629   3.369   5.992  14.293 -0.9615  0.9769  0.0580
18380TIP3   OH276630   2.629   5.812   3.099 -0.5391 -0.0699 -0.5987
18380TIP3    H176631   2.565   5.840   3.164  1.0621 -2.2465  2.1245
18380TIP3    H276632   2.670   5.893   3.069 -1.8312  1.0583  0.5693
18381TIP3   OH276633   3.793   3.164   3.881 -0.0921  0.1415  0.0595
18381TIP3    H176634   3.740   3.222   3.935 -0.2471  1.6198 -1.5943
18381TIP3    H276635   3.875   3.211   3.867  0.7038 -1.0534  0.5481
18382TIP3   OH276636   0.924   0.153  13.794  0.0200  0.0483  0.9812
18382TIP3    H176637   0.970   0.219  13.742  0.0149  1.1751  2.3583
18382TIP3    H276638   0.834   0.157  13.762 -0.0827  1.0513  1.3683
18383TIP3   OH276639   0.697   1.144  13.024 -0.2285 -0.1831  0.4445
18383TIP3    H176640   0.732   1.091  12.952  0.3347  0.7506  0.0171
18383TIP3    H276641   0.722   1.097  13.103  0.3491 -0.5025  0.0759
18384TIP3   OH276642   4.440   5.733  13.710 -0.7260  0.0688 -0.9620
18384TIP3    H176643   4.409   5.675  13.640 -2.6506  2.2502 -2.0144
18384TIP3    H276644   4.473   5.810  13.664 -1.7649  1.4326  0.4938
18385TIP3   OH276645   6.563   2.583  15.009 -0.3060  0.4415 -0.6323
18385TIP3    H176646   6.512   2.507  15.035 -0.1310  0.2474 -0.8572
18385TIP3    H276647   6.574   2.633  15.090 -1.2259  0.7102 -0.6597
18386TIP3   OH276648   4.560   6.361   3.250 -0.3300 -0.1007 -0.1234
18386TIP3    H176649   4.543   6.385   3.341  0.2224 -0.8946  0.2025
18386TIP3    H276650   4.539   6.268   3.245 -0.7392  0.0231 -0.9150
18387TIP3   OH276651   4.483   6.617   3.169 -0.3011 -0.2255  0.1527
18387TIP3    H176652   4.534   6.536   3.171  1.6519  0.9335 -0.1932
18387TIP3    H276653   4.392   6.588   3.176  0.4118 -2.3361  1.8036
18388TIP3   OH276654   0.014   0.838   4.527  1.2059  0.1479  0.1550
18388TIP3    H176655   0.017   0.762   4.469 -2.6422  0.8817 -1.3640
18388TIP3    H276656   0.089   0.892   4.501  2.6910 -2.0260 -0.2858
18389TIP3   OH276657   1.970   4.284   0.124 -0.4251 -0.4593  0.1963
18389TIP3    H176658   2.058   4.298   0.087 -0.0894 -1.9156  0.3883
18389TIP3    H276659   1.936   4.372   0.137  0.3522  0.1374 -1.4308
18390TIP3   OH276660   6.560   0.811   1.337 -0.4561  0.2753 -0.3322
18390TIP3    H176661   6.566   0.882   1.273 -0.7644  0.2050 -0.4412
18390TIP3    H276662   6.500   0.844   1.404 -0.4120  0.2119 -0.2621
18391TIP3   OH276663   5.244   4.429  13.025 -0.0243  0.0324  0.2008
18391TIP3    H176664   5.233   4.374  12.947 -1.3791  0.9396 -0.2770
18391TIP3    H276665   5.155   4.450  13.053  0.4559  0.6818  1.3228
18392TIP3   OH276666   2.681   0.398   3.364 -0.0529  0.0032  0.6419
18392TIP3    H176667   2.645   0.467   3.309 -0.2865  0.2201  1.0675
18392TIP3    H276668   2.776   0.407   3.355 -0.0882  0.1666  0.4358
18393TIP3   OH276669   1.383   0.434   2.591  0.0705  0.5101 -0.1030
18393TIP3    H176670   1.336   0.516   2.607  1.2591  0.7374  2.7842
18393TIP3    H276671   1.348   0.373   2.655  1.7235 -0.1402  0.2328
18394TIP3   OH276672   4.146   0.038   3.628 -0.5523  0.1145  0.5051
18394TIP3    H176673   4.128   0.087   3.708 -0.6954  1.1762 -0.1549
18394TIP3    H276674   4.060   0.024   3.588 -0.3321  1.5797 -0.5755
18395TIP3   OH276675   3.942   1.386   0.368 -0.3140  0.2011 -0.1834
18395TIP3    H176676   3.921   1.293   0.360 -4.2031  0.7945  0.7269
18395TIP3    H276677   3.924   1.406   0.460  0.3093  1.8750 -0.3902
18396TIP3   OH276678   1.637   2.374  11.136 -0.0439 -0.2097  0.1224
18396TIP3    H176679   1.548   2.395  11.107  0.3815 -1.6923 -2.5708
18396TIP3    H276680   1.691   2.443  11.099 -0.0120  0.7844  1.9027
18397TIP3   OH276681   2.731   2.774   1.085 -0.1472 -0.3754  0.2529
18397TIP3    H176682   2.677   2.695   1.080  0.1749 -0.5477 -0.6690
18397TIP3    H276683   2.700   2.819   1.164 -0.4025 -1.3679  0.7323
18398TIP3   OH276684   3.176   6.609   6.310  0.4849 -0.3633  0.9176
18398TIP3    H176685   3.227   6.652   6.241  3.3546  1.8110  4.0671
18398TIP3    H276686   3.105   6.671   6.329 -0.4061 -1.0375 -0.0354
18399TIP3   OH276687   0.871   0.242  10.819  0.2897  0.0168  0.1214
18399TIP3    H176688   0.905   0.158  10.787 -0.7529 -0.5546  0.4362
18399TIP3    H276689   0.783   0.247  10.782  0.2813  0.8957  0.2472
18400TIP3   OH276690   2.052   6.092  12.498 -0.0952 -0.2026  0.1738
18400TIP3    H176691   2.129   6.035  12.494  0.7880  0.9665 -0.2424
18400TIP3    H276692   1.978   6.034  12.483  0.4904 -1.7376  2.6696
18401TIP3   OH276693   3.438   5.729  13.690  0.3519  0.1383 -0.8411
18401TIP3    H176694   3.427   5.799  13.754  2.4023  0.9536 -1.2782
18401TIP3    H276695   3.422   5.648  13.738 -2.2558  0.8480 -0.3657
18402TIP3   OH276696   1.219   1.802   3.750  0.3921 -0.2227  0.5402
18402TIP3    H176697   1.245   1.717   3.715 -0.6331 -1.2550  2.1645
18402TIP3    H276698   1.241   1.797   3.843  0.3284  1.3182  0.6596
18403TIP3   OH276699   1.863   0.925  16.877 -0.2532  0.5473 -0.1997
18403TIP3    H176700   1.939   0.973  16.910  0.4786 -0.8471  0.2438
18403TIP3    H276701   1.883   0.906  16.786  0.8786 -1.4875  0.4061
18404TIP3   OH276702   1.384   6.294   3.421  0.0725 -0.1690 -0.0602
18404TIP3    H176703   1.316   6.230   3.401  0.4884 -0.3093 -1.0425
18404TIP3    H276704   1.457   6.242   3.453 -0.7261  0.0747  2.3697
18405TIP3   OH276705   3.983   4.779   0.649 -0.4635  0.1658  0.1330
18405TIP3    H176706   3.964   4.718   0.577 -2.2427 -0.6366  1.2005
18405TIP3    H276707   4.058   4.741   0.693  0.4276  0.4784 -1.0714
18406TIP3   OH276708   3.406   5.915  17.104 -0.5994  0.3016 -0.3651
18406TIP3    H176709   3.499   5.892  17.107 -0.8219 -0.5520  0.8408
18406TIP3    H276710   3.405   6.007  17.077  0.7044  0.8337  1.2075
18407TIP3   OH276711   6.807   3.415   2.405  0.2213  0.2417 -0.0697
18407TIP3    H176712   6.861   3.447   2.477 -1.4994  1.3656  0.7896
18407TIP3    H276713   6.845   3.455   2.327  2.8749 -1.9558 -0.0799
18408TIP3   OH276714   3.960   2.087  14.292  0.1724  0.0512  0.3370
18408TIP3    H176715   3.971   1.995  14.318 -0.5216 -0.3274 -0.6317
18408TIP3    H276716   3.866   2.103  14.302  0.0595  0.2123 -0.8491
18409TIP3   OH276717   5.082   1.168  10.978  0.0627 -0.0231 -0.6310
18409TIP3    H176718   5.084   1.219  11.058 -0.1205  2.5708 -2.1631
18409TIP3    H276719   5.173   1.148  10.959  0.1007 -0.7248  0.2248
18410TIP3   OH276720   4.845   0.181   0.041  0.3454 -1.0418  0.0979
18410TIP3    H176721   4.805   0.100   0.071  1.8638 -1.8392  0.0572
18410TIP3    H276722   4.885   0.159  -0.043 -1.4997  0.4627 -1.2862
18411TIP3   OH276723   2.610   3.315   0.509 -0.3192  0.2439 -0.3377
18411TIP3    H176724   2.580   3.340   0.596  0.3223  1.1199 -0.3506
18411TIP3    H276725   2.664   3.238   0.524 -1.1643 -0.3166 -0.1136
18412TIP3   OH276726   4.350   0.129  15.424 -0.2620 -0.2130 -0.2114
18412TIP3    H176727   4.305   0.045  15.416  0.2422 -0.5042 -0.0678
18412TIP3    H276728   4.423   0.123  15.362  1.0869 -0.7788  1.3416
18413TIP3   OH276729   6.752   2.166  16.016  0.1764 -0.0118 -0.2515
18413TIP3    H176730   6.777   2.211  15.934  0.9036  0.7877  0.3869
18413TIP3    H276731   6.670   2.122  15.995  0.7188 -0.4184 -1.6248
18414TIP3   OH276732   2.294   4.872  10.670  0.1249  0.0829  0.0971
18414TIP3    H176733   2.294   4.800  10.607  2.1245 -0.6631  0.8727
18414TIP3    H276734   2.385   4.883  10.695 -0.1017  2.9807 -0.0195
18415TIP3   OH276735   0.245   1.633   0.981  0.5716  0.3565  0.2232
18415TIP3    H176736   0.211   1.620   1.070 -1.0668 -2.2576 -0.6894
18415TIP3    H276737   0.295   1.553   0.963  2.1313  1.4915 -0.7222
18416TIP3   OH276738   6.045   2.556   6.333 -0.3586  0.1210  0.1615
18416TIP3    H176739   6.009   2.522   6.415 -3.3953  0.8083 -0.7359
18416TIP3    H276740   6.092   2.482   6.295  0.9080 -0.2776  2.3513
18417TIP3   OH276741   3.258   1.290  15.075  0.2439  0.6948 -0.0735
18417TIP3    H176742   3.209   1.216  15.038  0.4365  0.2374  0.5673
18417TIP3    H276743   3.237   1.363  15.017 -1.0421  0.4630  0.0574
18418TIP3   OH276744   0.394   4.667   5.904 -0.3710 -0.7192  0.1978
18418TIP3    H176745   0.342   4.610   5.961 -0.6537  0.8681  1.6455
18418TIP3    H276746   0.474   4.618   5.887  0.1640 -0.9341  2.8335
18419TIP3   OH276747   1.140   2.883   3.931 -0.1320  0.0856 -0.2069
18419TIP3    H176748   1.169   2.974   3.928 -0.8819  0.4114  1.3114
18419TIP3    H276749   1.074   2.877   3.862 -0.1963  0.7496 -0.2165
18420TIP3   OH276750   1.260   6.174  13.381 -0.6848 -0.5574  0.3081
18420TIP3    H176751   1.309   6.113  13.326  0.5225 -0.5792  1.3617
18420TIP3    H276752   1.291   6.155  13.470 -0.0032  1.8084  0.6279
18421TIP3   OH276753   5.952   6.767  12.153 -0.3507  0.2719  0.1385
18421TIP3    H176754   5.971   6.853  12.116  1.9737  0.4387  1.5942
18421TIP3    H276755   5.944   6.781  12.247  0.3464 -1.1186  0.4441
18422TIP3   OH276756   5.411   5.802  15.786  0.1424 -0.4604 -0.1930
18422TIP3    H176757   5.497   5.841  15.771 -0.6501  1.4868  0.0974
18422TIP3    H276758   5.380   5.778  15.699  0.2691  0.4266 -0.4907
18423TIP3   OH276759   3.101   3.640  14.840  0.4907 -0.1503 -0.0751
18423TIP3    H176760   3.175   3.694  14.867  0.6715 -0.6759  0.5155
18423TIP3    H276761   3.055   3.693  14.776  2.9078 -0.8520 -2.5996
18424TIP3   OH276762   1.225   4.423  13.298 -0.7409  0.1531  0.4008
18424TIP3    H176763   1.177   4.341  13.284  0.3026 -0.5706  0.9144
18424TIP3    H276764   1.276   4.407  13.378 -0.6576  1.3792  0.6119
18425TIP3   OH276765   0.028   5.297   4.248 -0.4061 -0.2450  0.0119
18425TIP3    H176766  -0.014   5.383   4.252  0.2803  0.1655 -1.2137
18425TIP3    H276767   0.121   5.315   4.263 -0.5322 -1.1014  2.2902
18426TIP3   OH276768   0.595   3.132  10.394  0.5234  0.4552  0.0458
18426TIP3    H176769   0.597   3.100  10.484  0.0806  0.7489  0.1659
18426TIP3    H276770   0.631   3.061  10.342 -2.8635 -1.4292 -0.0387
18427TIP3   OH276771   0.622   0.119  16.442 -0.4109  0.0928 -0.6477
18427TIP3    H176772   0.573   0.157  16.369 -0.5825 -0.6660 -0.9356
18427TIP3    H276773   0.618   0.025  16.427 -0.0229 -0.0442  0.0736
18428TIP3   OH276774   6.237   6.015  10.413  0.1184 -0.1662  0.4269
18428TIP3    H176775   6.316   6.034  10.362 -1.2171  0.0204 -1.6789
18428TIP3    H276776   6.226   5.921  10.405  0.6333 -0.3467  1.5726
18429TIP3   OH276777   6.448   1.524   4.741  0.1398 -0.1537  0.0038
18429TIP3    H176778   6.442   1.443   4.792  3.0689 -0.5210 -0.0718
18429TIP3    H276779   6.538   1.553   4.753 -0.2511  1.9938 -1.6774
18430TIP3   OH276780   4.397   6.158   0.560  0.6717  0.3040  0.3214
18430TIP3    H176781   4.323   6.188   0.507 -0.4611  0.8081  2.0905
18430TIP3    H276782   4.468   6.220   0.539  0.2268  0.5623 -0.4787
18431TIP3   OH276783   4.213   0.573   1.866 -0.4601 -0.0825 -0.0609
18431TIP3    H176784   4.231   0.625   1.787  2.0602  0.6611  0.9057
18431TIP3    H276785   4.202   0.638   1.935 -0.6444 -0.7699  0.5638
18432TIP3   OH276786   3.754   5.828   0.737 -0.4003  0.1720  0.0050
18432TIP3    H176787   3.668   5.831   0.780 -0.1281 -2.1327  0.8342
18432TIP3    H276788   3.761   5.738   0.705  2.5607 -0.3744  1.8508
18433TIP3   OH276789   1.568   0.107  10.855  0.3732 -0.3324 -0.1471
18433TIP3    H176790   1.473   0.111  10.846  0.3563 -0.1979  0.0694
18433TIP3    H276791   1.597   0.197  10.838  0.4450 -0.3393 -0.0621
18434TIP3   OH276792   6.687   3.842   0.673  0.0622  0.1777  0.1737
18434TIP3    H176793   6.635   3.902   0.725 -0.9404 -0.1767 -0.3987
18434TIP3    H276794   6.701   3.888   0.590 -0.6986 -0.3652 -0.2619
18435TIP3   OH276795   6.485   6.365  13.853 -0.3938 -0.1996  0.7430
18435TIP3    H176796   6.492   6.456  13.821 -0.2437 -0.3638  0.2953
18435TIP3    H276797   6.506   6.371  13.946  0.4565  0.1002  0.5365
18436TIP3   OH276798   4.002   0.955  15.533 -0.0417  0.5423 -0.2278
18436TIP3    H176799   4.001   0.893  15.460 -1.1972  0.1614  0.0976
18436TIP3    H276800   3.972   0.904  15.608 -2.7062  1.8519 -0.2905
18437TIP3   OH276801   0.226   4.755   2.375 -0.3701 -0.1182  0.0188
18437TIP3    H176802   0.245   4.664   2.396 -0.4245 -0.5612 -1.6810
18437TIP3    H276803   0.234   4.760   2.279 -0.9996  1.5109  0.0132
18438TIP3   OH276804   3.977   4.288  16.325  0.0633 -0.6805  0.7647
18438TIP3    H176805   3.973   4.201  16.364  2.7050 -0.2325  2.2902
18438TIP3    H276806   4.027   4.340  16.388  0.4849  1.3445 -1.1231
18439TIP3   OH276807   5.254   6.314   4.276 -0.8328 -0.5230  0.3494
18439TIP3    H176808   5.265   6.223   4.247  0.0799 -0.1652 -0.4601
18439TIP3    H276809   5.159   6.324   4.287 -0.9527 -1.5359  0.3305
18440TIP3   OH276810   0.413   1.893  14.652 -0.7131  0.1958 -0.9189
18440TIP3    H176811   0.370   1.970  14.614  1.2609  2.4637  1.1039
18440TIP3    H276812   0.488   1.877  14.595 -0.0115  1.0746 -0.2740
18441TIP3   OH276813   2.349   6.719  16.720  0.1254 -0.4866  0.6846
18441TIP3    H176814   2.298   6.639  16.726  0.6931 -0.8690  0.4598
18441TIP3    H276815   2.430   6.699  16.767  0.0203  0.1605  1.1591
18442TIP3   OH276816   2.990   4.051  13.378  0.5320 -0.1162 -0.2554
18442TIP3    H176817   3.015   4.050  13.286  1.4316 -1.0769 -0.0230
18442TIP3    H276818   3.046   3.985  13.419  0.3995  0.5374  1.0505
18443TIP3   OH276819   1.393   1.443   4.453  0.4915 -0.1335  0.0691
18443TIP3    H176820   1.371   1.355   4.421  3.0701 -1.1505  0.8302
18443TIP3    H276821   1.390   1.435   4.549  0.6880  0.6257  0.1453
18444TIP3   OH276822   3.222   3.232   4.068  0.1370  0.3100  0.3679
18444TIP3    H176823   3.157   3.267   4.128  0.9600  1.6627  0.5008
18444TIP3    H276824   3.174   3.214   3.987 -0.4259  1.1828  0.4994
18445TIP3   OH276825   0.687   4.176   5.879  0.2300 -0.2125 -0.3071
18445TIP3    H176826   0.751   4.108   5.860 -0.1193 -0.4990 -0.4649
18445TIP3    H276827   0.611   4.129   5.915  0.0952  0.1192 -0.1482
18446TIP3   OH276828   6.402   6.553  12.112  0.6717 -0.1734  0.3997
18446TIP3    H176829   6.439   6.614  12.175 -2.0557  0.1344  1.8698
18446TIP3    H276830   6.374   6.608  12.039 -0.9504  0.2875  1.3192
18447TIP3   OH276831   4.811   4.703  15.618 -0.7305  0.1764  0.3643
18447TIP3    H176832   4.870   4.760  15.569 -0.4921 -0.4032 -0.0406
18447TIP3    H276833   4.870   4.646  15.669 -0.9206 -0.6545 -0.3294
18448TIP3   OH276834   4.484   6.163   6.134  0.6097 -0.0680  0.4241
18448TIP3    H176835   4.487   6.157   6.229  1.3220 -0.6308  0.3708
18448TIP3    H276836   4.523   6.248   6.113 -0.2991  0.4207  0.6678
18449TIP3   OH276837   4.609   5.426   3.476  0.8960 -0.3989 -0.3790
18449TIP3    H176838   4.542   5.426   3.407 -0.9082  1.0741  1.2745
18449TIP3    H276839   4.667   5.499   3.453  0.1021  0.3083 -0.1952
18450TIP3   OH276840   4.029   2.749  12.491  0.0180  0.5516  0.3312
18450TIP3    H176841   3.951   2.750  12.434 -0.7408  1.0052  1.3394
18450TIP3    H276842   3.995   2.772  12.577  0.6505 -2.9964  1.6641
18451TIP3   OH276843   2.153   6.598   3.323 -0.1702 -0.3135 -0.4185
18451TIP3    H176844   2.224   6.642   3.368  0.5735 -2.6643  0.8580
18451TIP3    H276845   2.195   6.555   3.248 -0.5349 -0.3424 -0.6093
18452TIP3   OH276846   6.347   4.701   5.252 -0.1188  0.3463 -0.4369
18452TIP3    H176847   6.333   4.635   5.321  2.2955  0.8248  0.6066
18452TIP3    H276848   6.293   4.671   5.179 -1.7541 -0.9014  1.1836
18453TIP3   OH276849   2.780   2.596  13.986 -0.5072 -0.4359 -0.0245
18453TIP3    H176850   2.787   2.585  13.891 -1.0552  0.0621 -0.1299
18453TIP3    H276851   2.865   2.633  14.012 -0.3583 -0.5669 -0.3202
18454TIP3   OH276852   1.860   1.909   1.250  0.2929  0.3860 -0.3718
18454TIP3    H176853   1.882   1.826   1.206  2.2844 -0.1909  1.5362
18454TIP3    H276854   1.825   1.882   1.334  1.0622  1.4731  0.3137
18455TIP3   OH276855   1.949   6.257  15.180 -0.0760 -0.3040  0.3489
18455TIP3    H176856   1.963   6.222  15.268 -2.3282 -0.3237  0.7765
18455TIP3    H276857   1.857   6.238  15.162 -0.5208  2.4623 -0.7593
18456TIP3   OH276858   2.192   4.807   4.627  0.6546  0.5063 -0.3556
18456TIP3    H176859   2.183   4.736   4.563  1.6383 -1.2112  1.3295
18456TIP3    H276860   2.132   4.783   4.697  0.1148  2.0092 -0.2655
18457TIP3   OH276861   1.972   2.647  14.432 -0.1094 -0.0636  0.7185
18457TIP3    H176862   1.912   2.674  14.363  1.4053 -0.9885 -1.0377
18457TIP3    H276863   2.057   2.641  14.389  0.6422 -2.0260  2.3470
18458TIP3   OH276864   6.782   1.761   4.604  0.0130  0.5258 -0.1390
18458TIP3    H176865   6.729   1.785   4.680  0.2392  1.3741 -0.2448
18458TIP3    H276866   6.768   1.832   4.542  0.4801  0.2479 -0.5647
18459TIP3   OH276867   1.804   2.826   4.619  0.0067 -0.3484  0.2421
18459TIP3    H176868   1.855   2.847   4.541 -0.7959  1.7900  0.2120
18459TIP3    H276869   1.777   2.735   4.607 -0.0564 -0.0944 -1.9554
18460TIP3   OH276870   5.026   6.214  17.002 -0.4874  0.5897  0.0012
18460TIP3    H176871   4.998   6.122  17.007 -1.9045  0.9332 -0.9013
18460TIP3    H276872   5.106   6.212  16.949 -0.6446 -0.1096 -0.2210
18461TIP3   OH276873   5.894   4.760  13.073 -0.2348  0.1005 -0.1930
18461TIP3    H176874   5.834   4.776  13.145 -1.3067 -0.1699 -0.9947
18461TIP3    H276875   5.871   4.827  13.008 -1.0782 -1.2374 -1.3409
18462TIP3   OH276876   1.169   2.830  11.891 -0.2419  0.2039 -0.1748
18462TIP3    H176877   1.234   2.873  11.947  1.8240 -3.0207  0.1652
18462TIP3    H276878   1.218   2.805  11.813 -1.4697 -1.0111 -0.5847
18463TIP3   OH276879   1.412   1.895   1.553 -0.2112  0.5049 -0.0791
18463TIP3    H176880   1.491   1.898   1.606 -0.5014  0.4236  0.3636
18463TIP3    H276881   1.340   1.900   1.616 -0.5599  1.8391 -0.5461
18464TIP3   OH276882   2.854   5.417  17.009 -0.2657  0.1088 -0.1307
18464TIP3    H176883   2.768   5.423  17.050  0.2572 -0.7878  1.1714
18464TIP3    H276884   2.869   5.504  16.972 -1.5480  0.3987 -0.0225
18465TIP3   OH276885   5.709   1.365  14.698  0.1741 -0.0907  0.3052
18465TIP3    H176886   5.613   1.365  14.700  0.1317 -0.3864  3.8907
18465TIP3    H276887   5.733   1.456  14.683 -0.6009 -0.1564 -1.5580
18466TIP3   OH276888   5.465   2.517   5.323  0.4801 -0.4273 -0.2697
18466TIP3    H176889   5.504   2.595   5.284 -1.0075  1.6886  2.1422
18466TIP3    H276890   5.470   2.533   5.417 -1.0874 -2.6478  0.2591
18467TIP3   OH276891   1.898   0.459  17.150 -0.1052 -0.1791  0.4154
18467TIP3    H176892   1.966   0.393  17.145 -0.8276 -0.9992  1.1059
18467TIP3    H276893   1.816   0.411  17.133 -0.6315  0.5416  0.8275
18468TIP3   OH276894   5.877   4.648   4.680 -1.1170 -0.3441  0.1403
18468TIP3    H176895   5.907   4.703   4.753 -1.5027 -0.5295  0.4411
18468TIP3    H276896   5.922   4.564   4.694  1.0787  0.4855 -1.4512
18469TIP3   OH276897   2.142   1.142   1.153 -0.0181  0.3402  0.2428
18469TIP3    H176898   2.137   1.226   1.197 -2.8423  1.2484 -1.5323
18469TIP3    H276899   2.159   1.163   1.061  0.8033 -1.1397  0.0128
18470TIP3   OH276900   0.811   6.339   2.904 -0.4100  0.4443  0.1014
18470TIP3    H176901   0.877   6.283   2.863 -0.5385  0.8651 -0.7038
18470TIP3    H276902   0.861   6.393   2.966  0.1396  1.2673 -1.0217
18471TIP3   OH276903   3.080   4.649   4.173 -0.2105 -0.0490 -0.3914
18471TIP3    H176904   3.054   4.558   4.190 -0.0952 -0.0154 -0.0274
18471TIP3    H276905   3.011   4.683   4.116  0.5491 -0.8307 -1.8436
18472TIP3   OH276906   2.695   1.617  11.956 -0.2254  0.1718 -0.7450
18472TIP3    H176907   2.745   1.606  12.036 -0.3673  2.5953 -0.2295
18472TIP3    H276908   2.669   1.529  11.930  3.8547 -1.1886 -0.7947
18473TIP3   OH276909   3.562   1.142  14.709 -0.1587  0.1268 -0.4815
18473TIP3    H176910   3.504   1.216  14.727  0.5945  0.7699 -0.6415
18473TIP3    H276911   3.540   1.115  14.620  1.4187  1.9558 -1.5184
18474TIP3   OH276912   6.120   2.266  15.118 -0.5115  0.5226  0.4769
18474TIP3    H176913   6.105   2.244  15.210 -0.1144 -0.5920  0.2832
18474TIP3    H276914   6.032   2.266  15.079 -0.6134  0.3524  0.7075
18475TIP3   OH276915   3.056   3.367  16.382 -0.2908  0.3282 -0.1467
18475TIP3    H176916   2.991   3.417  16.431  0.3946  0.3211  0.8053
18475TIP3    H276917   3.060   3.410  16.297  0.9132  2.5086  0.9167
18476TIP3   OH276918   3.947   2.836   3.415  0.3393 -0.1300  0.2759
18476TIP3    H176919   4.041   2.845   3.428  0.1784  0.6626  0.9714
18476TIP3    H276920   3.920   2.921   3.380 -0.3315  0.1408  1.4109
18477TIP3   OH276921   6.380   6.230  15.243  0.5356  0.2504 -0.6547
18477TIP3    H176922   6.434   6.200  15.170  2.1205  1.2618  0.0444
18477TIP3    H276923   6.437   6.290  15.291 -2.3351  4.3729 -1.8929
18478TIP3   OH276924   4.227   6.427   3.490  0.2620  0.2264  0.2065
18478TIP3    H176925   4.256   6.409   3.580  0.4567  0.1966  0.1371
18478TIP3    H276926   4.308   6.443   3.441  0.0791  2.4198  0.4976
18479TIP3   OH276927   2.535   0.039  15.468  0.3284 -0.5206  0.0774
18479TIP3    H176928   2.506   0.069  15.382 -3.0311 -1.0093  0.9170
18479TIP3    H276929   2.535  -0.057  15.462 -0.9661 -0.5920  0.8734
18480TIP3   OH276930   0.989   0.523   1.139 -0.0908  0.4278 -0.1208
18480TIP3    H176931   0.908   0.478   1.163  0.6812 -0.0098  1.7946
18480TIP3    H276932   0.992   0.516   1.043 -3.1720  1.9916 -0.4717
18481TIP3   OH276933   3.454   4.205  15.846 -0.0634  0.5677 -0.0710
18481TIP3    H176934   3.413   4.167  15.769 -0.8068  2.1850 -0.5279
18481TIP3    H276935   3.492   4.131  15.893 -0.6989 -0.5928 -1.3307
18482TIP3   OH276936   3.705   6.156   3.127  0.6644  0.0011 -0.1062
18482TIP3    H176937   3.669   6.137   3.040  0.7702 -0.2051 -0.1064
18482TIP3    H276938   3.740   6.244   3.120 -0.7601  0.6186  0.1898
18483TIP3   OH276939   3.203   2.987  13.072  0.1629  0.3091 -0.0186
18483TIP3    H176940   3.183   3.080  13.067  0.1407  0.4317  1.7115
18483TIP3    H276941   3.296   2.981  13.047  0.6777  1.0613  1.5682
18484TIP3   OH276942   1.840   6.167  13.735 -0.3346 -0.8365  0.0332
18484TIP3    H176943   1.751   6.193  13.758  0.3818 -0.1449  2.2318
18484TIP3    H276944   1.873   6.238  13.679 -0.7903 -0.5620  0.1108
18485TIP3   OH276945   1.734   6.163   4.216  0.4736  0.4375 -0.0618
18485TIP3    H176946   1.656   6.146   4.269 -0.4479  0.8326 -1.2513
18485TIP3    H276947   1.802   6.184   4.280 -0.3500 -0.0488  1.0070
18486TIP3   OH276948   0.856   5.494  16.937  0.1719  0.9101  0.3745
18486TIP3    H176949   0.907   5.557  16.886  1.2041 -0.0601  0.1816
18486TIP3    H276950   0.912   5.471  17.011  0.2155 -0.4781 -0.0594
18487TIP3   OH276951   6.097   5.001   0.871  0.2796  0.0959 -0.0483
18487TIP3    H176952   6.174   4.960   0.909  0.0960  0.1137  0.3524
18487TIP3    H276953   6.034   4.930   0.861  0.7532 -0.1463 -1.4833
18488TIP3   OH276954   5.038   3.152   1.822  0.6318 -0.0485 -0.3175
18488TIP3    H176955   5.063   3.065   1.854  0.5843 -0.0680 -0.3342
18488TIP3    H276956   5.072   3.156   1.733 -1.9776 -1.2118 -1.4714
18489TIP3   OH276957   6.275   2.665  17.103  0.4979 -0.3062 -0.1230
18489TIP3    H176958   6.352   2.657  17.046  0.5696  0.1333 -0.0936
18489TIP3    H276959   6.284   2.594  17.166  1.7729  0.7413  0.9354
18490TIP3   OH276960   0.033   0.146   1.940  0.0439 -0.1780 -0.2627
18490TIP3    H176961  -0.001   0.225   1.897  1.8119 -0.0918 -1.6038
18490TIP3    H276962   0.036   0.169   2.032  1.1125  1.5884 -0.6943
18491TIP3   OH276963   2.545   4.898  14.230  0.1766 -0.1885  0.1411
18491TIP3    H176964   2.584   4.980  14.201  0.1813 -0.8292 -1.7577
18491TIP3    H276965   2.453   4.919  14.246  0.0945  0.1212 -0.6998
18492TIP3   OH276966   1.964   1.889   3.699 -0.2916  0.3033  0.0958
18492TIP3    H176967   2.047   1.935   3.690 -0.3033  0.2402 -0.3415
18492TIP3    H276968   1.987   1.804   3.737 -0.4027  1.1227  2.1109
18493TIP3   OH276969   0.688   0.131   0.682 -0.0062  0.5954 -0.3268
18493TIP3    H176970   0.717   0.148   0.592 -0.5432  0.0870 -0.6003
18493TIP3    H276971   0.741   0.057   0.711 -0.5131  0.1272 -0.5758
18494TIP3   OH276972   2.803   2.726   1.549  0.4102  0.4038  0.6767
18494TIP3    H176973   2.894   2.743   1.523 -0.3016  2.1865 -0.8518
18494TIP3    H276974   2.793   2.774   1.632  0.6363  0.9865  0.3770
18495TIP3   OH276975   2.233   6.705  13.627  0.1923  0.2874 -0.1803
18495TIP3    H176976   2.312   6.704  13.573  0.5681  0.2851  0.3584
18495TIP3    H276977   2.183   6.780  13.595 -0.3029 -0.5667 -1.5124
18496TIP3   OH276978   4.944   2.631   3.411  0.0356 -0.3976 -0.2125
18496TIP3    H176979   4.934   2.537   3.425  0.6777 -0.6667 -1.4199
18496TIP3    H276980   4.876   2.653   3.347 -0.9785  0.2344  1.0471
18497TIP3   OH276981   0.870   3.330   6.380  0.1514  0.0218 -0.2289
18497TIP3    H176982   0.861   3.286   6.464  0.6476 -0.5010 -0.4386
18497TIP3    H276983   0.964   3.325   6.361  0.1525  0.8164 -0.4490
18498TIP3   OH276984   5.787   3.332   3.777  0.2341 -0.0265  0.2397
18498TIP3    H176985   5.728   3.303   3.707  1.9837 -0.5820 -1.0820
18498TIP3    H276986   5.790   3.258   3.837  0.3981 -0.4088 -0.2340
18499TIP3   OH276987   1.360   1.828  15.951  0.2630  0.2822  0.2003
18499TIP3    H176988   1.352   1.914  15.910  0.3230 -0.1980 -0.8618
18499TIP3    H276989   1.449   1.826  15.986  0.5003  0.4077 -0.3789
18500TIP3   OH276990   0.316   5.242  11.786 -0.4139 -0.3166 -0.7362
18500TIP3    H176991   0.321   5.224  11.880  1.8199  0.1782 -0.7000
18500TIP3    H276992   0.237   5.294  11.775 -0.1738  0.4847  1.0246
18501TIP3   OH276993   2.684   0.413   3.649 -0.1210 -0.5730 -0.0017
18501TIP3    H176994   2.728   0.340   3.692 -1.0261 -0.9158  0.3502
18501TIP3    H276995   2.693   0.394   3.555  0.1623 -0.8276  0.0756
18502TIP3   OH276996   5.805   0.624  11.478 -0.4670  0.4319 -0.5599
18502TIP3    H176997   5.795   0.621  11.573 -1.0218  0.1866 -0.6277
18502TIP3    H276998   5.829   0.715  11.460 -2.8312  1.1529 -0.4162
18503TIP3   OH276999   2.771   5.149   0.613  0.2504 -0.1839 -0.2338
18503TIP3    H177000   2.701   5.213   0.623  3.5908  3.6877  1.2130
18503TIP3    H277001   2.756   5.110   0.527 -4.5509 -1.0645  0.7448
18504TIP3   OH277002   0.455   4.511  13.256 -0.4278 -0.4866 -0.0494
18504TIP3    H177003   0.364   4.523  13.231 -0.8801 -2.7607  0.2608
18504TIP3    H277004   0.461   4.545  13.345 -0.8404  0.1289 -0.2540
18505TIP3   OH277005   2.900   5.608  15.739 -0.0065 -0.1072  0.1697
18505TIP3    H177006   2.975   5.569  15.694 -0.0026  0.4135 -0.2960
18505TIP3    H277007   2.889   5.693  15.696 -0.8736 -0.1866  0.2180
18506TIP3   OH277008   2.663   5.825  17.015 -0.0907 -0.2198 -0.5395
18506TIP3    H177009   2.669   5.798  17.107 -0.1039 -0.4301 -0.5998
18506TIP3    H277010   2.726   5.770  16.970 -1.2422 -1.2641 -0.9194
18507TIP3   OH277011   6.498   5.641  12.236  0.4081 -0.3667 -0.7677
18507TIP3    H177012   6.540   5.555  12.228  0.0258 -0.6623  0.3073
18507TIP3    H277013   6.442   5.634  12.313  0.1255  0.7520 -0.8513
18508TIP3   OH277014   3.175   2.377   2.862 -0.4275 -0.1467  0.1943
18508TIP3    H177015   3.210   2.466   2.867 -1.5622  0.2865  0.5198
18508TIP3    H277016   3.118   2.377   2.785  0.2756 -0.8642 -0.3537
18509TIP3   OH277017   4.358   3.219  13.236  0.0218 -0.2675 -0.6791
18509TIP3    H177018   4.447   3.183  13.230 -0.1764 -0.9027  0.1258
18509TIP3    H277019   4.307   3.166  13.175  0.2123  0.1937 -1.2546
18510TIP3   OH277020   1.697   4.358  14.386 -0.2845 -0.3628 -0.2453
18510TIP3    H177021   1.671   4.266  14.389  0.0314 -0.4246  1.4523
18510TIP3    H277022   1.645   4.400  14.455  0.0545  0.6017 -0.5609
18511TIP3   OH277023   4.337   5.815   3.825  0.6516  0.9549  0.0295
18511TIP3    H177024   4.241   5.821   3.832  0.0740 -1.2197 -3.4987
18511TIP3    H277025   4.366   5.906   3.815 -1.2617  1.5796 -0.2737
18512TIP3   OH277026   1.765   4.804  14.574  0.0602  0.2389 -0.5888
18512TIP3    H177027   1.743   4.888  14.614 -0.6720 -0.1660 -0.1160
18512TIP3    H277028   1.683   4.774  14.534  0.4004 -0.0866 -1.0546
18513TIP3   OH277029   1.143   4.535   3.753  0.0189  0.2918 -0.6871
18513TIP3    H177030   1.203   4.553   3.825 -1.4157 -1.8798  1.1712
18513TIP3    H277031   1.091   4.615   3.744 -0.6389  0.1759  1.6206
18514TIP3   OH277032   1.091   4.076   1.225 -0.6144  0.2697 -0.4365
18514TIP3    H177033   1.174   4.116   1.248 -1.8079  1.8010  1.6163
18514TIP3    H277034   1.041   4.146   1.183 -1.1690 -0.3807 -0.8891
18515TIP3   OH277035   0.333   5.391  11.378 -0.7201  0.0134  0.0975
18515TIP3    H177036   0.357   5.343  11.298 -0.0513  0.7017 -0.1216
18515TIP3    H277037   0.246   5.358  11.400 -0.1873 -1.4875  0.0916
18516TIP3   OH277038   5.058   5.121   6.117 -0.2055 -0.3851  0.6972
18516TIP3    H177039   5.138   5.148   6.161 -0.6246  0.5749  0.8989
18516TIP3    H277040   5.041   5.033   6.150  0.0982 -0.1125  1.6099
18517TIP3   OH277041   6.201   4.222  16.441 -0.4326 -0.4934  0.0262
18517TIP3    H177042   6.273   4.241  16.502 -2.2299  2.6217  1.4082
18517TIP3    H277043   6.228   4.265  16.359  0.2176 -1.2467 -0.1663
18518TIP3   OH277044   5.021   6.501   0.391 -0.0009  0.4138 -0.1678
18518TIP3    H177045   5.060   6.469   0.310 -0.4320 -2.6035  0.6902
18518TIP3    H277046   5.088   6.485   0.457 -1.4177 -2.0434  0.8275
18519TIP3   OH277047   4.370   6.354  12.389  0.3783  0.1563  0.4255
18519TIP3    H177048   4.415   6.423  12.436  0.0373  1.0628 -0.5364
18519TIP3    H277049   4.431   6.280  12.390  0.6877  0.4138  1.5824
18520TIP3   OH277050   3.738   3.692  16.925 -0.2312 -0.3918 -0.5650
18520TIP3    H177051   3.672   3.639  16.881 -0.8158  0.8031 -1.1555
18520TIP3    H277052   3.690   3.737  16.995  0.2750 -0.6584 -0.0275
18521TIP3   OH277053   2.214   0.715  12.085 -0.2705 -0.2141 -0.4225
18521TIP3    H177054   2.304   0.731  12.112 -0.2931  0.6238 -0.8072
18521TIP3    H277055   2.212   0.622  12.062  0.6298 -0.1301 -0.8989
18522TIP3   OH277056   0.125   4.663  14.894  0.2548  0.4786 -0.1763
18522TIP3    H177057   0.071   4.738  14.917  2.1969  2.0150 -0.2959
18522TIP3    H277058   0.156   4.682  14.805  0.6416 -0.5571 -0.2770
18523TIP3   OH277059   0.514   5.479   1.072 -0.0369  0.0430  0.3594
18523TIP3    H177060   0.530   5.395   1.115 -0.0611 -0.9753 -1.5068
18523TIP3    H277061   0.574   5.480   0.997 -0.0450  1.7064  0.3255
18524TIP3   OH277062   4.250   1.415   5.474 -0.0347  0.2908 -0.2253
18524TIP3    H177063   4.218   1.449   5.390  2.5148 -0.6150 -1.6753
18524TIP3    H277064   4.198   1.461   5.540  0.5293  4.1338 -2.1528
18525TIP3   OH277065   6.742   5.480  13.841  0.0518  0.0988 -0.5168
18525TIP3    H177066   6.775   5.481  13.752  0.1269  1.4383 -0.4933
18525TIP3    H277067   6.710   5.569  13.856  0.7699  0.1391  1.0451
18526TIP3   OH277068   2.059   4.551  15.308 -0.0307  0.0759  0.5564
18526TIP3    H177069   2.082   4.593  15.391  0.0731  0.2312  0.4484
18526TIP3    H277070   2.142   4.528  15.268 -0.0872 -0.9728  0.9876
18527TIP3   OH277071   3.732   0.115  14.083  0.4469  0.0392 -0.2768
18527TIP3    H177072   3.792   0.050  14.045  0.2768 -0.7314  0.7340
18527TIP3    H277073   3.681   0.065  14.146 -0.0600  1.0640  0.1253
18528TIP3   OH277074   1.451   1.223   2.941  0.4307  0.3623 -0.0974
18528TIP3    H177075   1.457   1.178   2.856 -0.3437 -0.9862  0.5330
18528TIP3    H277076   1.381   1.178   2.987  0.8871  1.0376  1.3051
18529TIP3   OH277077   1.338   2.369  16.243 -0.1239  0.4485  0.5782
18529TIP3    H177078   1.417   2.402  16.286  0.2903 -0.5077  0.5597
18529TIP3    H277079   1.317   2.435  16.177  1.5505 -0.0441 -0.4747
18530TIP3   OH277080   5.503   6.581   4.845 -0.6075  0.2383  0.2418
18530TIP3    H177081   5.509   6.531   4.927  0.4936 -0.5181 -0.2806
18530TIP3    H277082   5.415   6.562   4.812 -1.0687  0.5477  1.2219
18531TIP3   OH277083   2.788   6.328  13.198  0.0544  0.1269 -0.3612
18531TIP3    H177084   2.864   6.279  13.168 -2.1392 -2.3105 -2.4530
18531TIP3    H277085   2.773   6.394  13.130  1.0964  1.6534  0.8211
18532TIP3   OH277086   0.240   6.311   0.464  0.1045  0.0888 -0.0018
18532TIP3    H177087   0.297   6.255   0.411  1.0252 -0.4091  1.4379
18532TIP3    H277088   0.155   6.266   0.462  0.4865 -0.6632  0.0578
18533TIP3   OH277089   0.441   0.132  15.719  0.0451  0.0827 -0.0782
18533TIP3    H177090   0.499   0.068  15.678 -0.9408 -2.1168  1.7781
18533TIP3    H277091   0.355   0.115  15.681  0.0323  1.4045 -0.7062
18534TIP3   OH277092   2.199   5.098  16.036 -0.1534 -1.0740  0.3255
18534TIP3    H177093   2.240   5.015  16.012 -1.0807 -1.6394  0.6559
18534TIP3    H277094   2.121   5.073  16.086 -0.8057 -0.0232 -0.1362
18535TIP3   OH277095   1.567   0.644  16.753 -0.4831 -0.6277  0.1716
18535TIP3    H177096   1.629   0.627  16.823  0.4919 -0.7759 -0.6922
18535TIP3    H277097   1.606   0.717  16.704 -0.6955 -1.0929 -0.7154
18536TIP3   OH277098   4.856   1.858   1.804  0.3200  0.6170 -0.2512
18536TIP3    H177099   4.793   1.928   1.788  0.2171  0.6236  0.1903
18536TIP3    H277100   4.824   1.814   1.882  0.7921  0.5361 -0.1027
18537TIP3   OH277101   4.686   4.153   1.628  0.2327 -0.5925  0.3114
18537TIP3    H177102   4.780   4.149   1.609  0.2072 -0.2498  0.0986
18537TIP3    H277103   4.645   4.168   1.542  0.0189 -0.2902  0.4646
18538TIP3   OH277104   4.997   6.134   4.695  0.1592  0.2387 -0.2060
18538TIP3    H177105   4.958   6.049   4.713  0.3314  0.1557 -0.2250
18538TIP3    H277106   4.930   6.181   4.645 -0.0844  0.2525  0.1225
18539TIP3   OH277107   2.177   1.100  14.864 -0.0285  0.5227 -0.2327
18539TIP3    H177108   2.128   1.034  14.814  0.3058 -1.4735  1.8881
18539TIP3    H277109   2.111   1.159  14.898 -0.6552 -0.2518 -0.0681
18540TIP3   OH277110   4.142   2.642  10.559  0.0798  0.4941 -0.1981
18540TIP3    H177111   4.092   2.711  10.515 -2.0700 -0.4084  0.6852
18540TIP3    H277112   4.163   2.580  10.489 -1.5576  0.0616 -0.3400
18541TIP3   OH277113   6.287   5.704  10.759  1.0438 -0.1239 -0.5231
18541TIP3    H177114   6.312   5.629  10.705  0.5562 -0.8150  0.1950
18541TIP3    H277115   6.218   5.671  10.816 -0.2674  1.2673 -1.2157
18542TIP3   OH277116   4.992   2.733  14.217 -0.0159 -0.0236  0.1119
18542TIP3    H177117   4.936   2.695  14.285  0.0262  0.8968  0.6840
18542TIP3    H277118   4.943   2.720  14.136 -0.2958 -0.7020  0.3789
18543TIP3   OH277119   2.758   0.398   5.225  0.2592  0.1589 -0.3773
18543TIP3    H177120   2.854   0.397   5.215  0.3010  0.0809  0.0178
18543TIP3    H277121   2.726   0.361   5.143  0.5615  0.3490 -0.5861
18544TIP3   OH277122   3.750   0.042  11.093  0.1264 -0.2003 -0.3434
18544TIP3    H177123   3.766   0.055  11.000  0.9260 -1.3590 -0.4007
18544TIP3    H277124   3.674   0.096  11.113 -0.0543  0.0648 -1.6666
18545TIP3   OH277125   2.915   2.896  14.657 -0.1304  0.2764  0.2390
18545TIP3    H177126   2.897   2.936  14.572 -0.4358  0.3147  0.3230
18545TIP3    H277127   2.940   2.969  14.714  0.1712  0.2387  0.1556
18546TIP3   OH277128   1.822   5.225  16.246 -0.2785  0.1920 -0.2565
18546TIP3    H177129   1.871   5.143  16.241 -1.2495 -0.3614 -1.0234
18546TIP3    H277130   1.753   5.216  16.181 -0.6567  1.4571 -0.0602
18547TIP3   OH277131   0.718   5.678  11.565  0.3505  0.2486  0.2278
18547TIP3    H177132   0.693   5.595  11.524 -0.2735  0.6893 -0.3137
18547TIP3    H277133   0.650   5.739  11.538 -0.3951  0.4555  2.3915
18548TIP3   OH277134   2.038   0.873   1.283  0.2312  0.3232  0.2366
18548TIP3    H177135   2.123   0.833   1.304 -0.3354  0.1102  2.4303
18548TIP3    H277136   2.061   0.957   1.243  1.4246 -1.2664 -2.6723
18549TIP3   OH277137   0.619   6.768   2.520 -0.0175 -0.2455  0.5320
18549TIP3    H177138   0.688   6.826   2.552  0.6859 -1.3401  1.0334
18549TIP3    H277139   0.660   6.716   2.451 -0.3883 -0.7804  0.7096
18550TIP3   OH277140   2.515   3.111  11.536 -0.0126 -0.1077 -0.5814
18550TIP3    H177141   2.510   3.206  11.528 -0.2619  0.2319  2.4411
18550TIP3    H277142   2.605   3.093  11.561 -0.0063 -0.6629 -0.9886
18551TIP3   OH277143   1.606   3.181  14.092  0.0949 -0.4552 -0.0495
18551TIP3    H177144   1.610   3.103  14.036  0.3129 -2.2392  2.2818
18551TIP3    H277145   1.515   3.211  14.085 -0.3211 -1.6604 -0.0761
18552TIP3   OH277146   5.008   6.545   2.107 -0.6399  0.9285  0.0789
18552TIP3    H177147   5.031   6.511   2.021  1.4803 -0.2230  1.0248
18552TIP3    H277148   5.002   6.640   2.094  2.1435  1.0611 -0.8934
18553TIP3   OH277149   2.142   3.140   2.332 -0.1990 -0.3727  0.2413
18553TIP3    H177150   2.072   3.080   2.356 -1.8835  0.4187 -2.3331
18553TIP3    H277151   2.138   3.146   2.236 -0.6954  4.3487  0.3019
18554TIP3   OH277152   1.186   6.240   1.455  0.1589 -0.5772  0.2305
18554TIP3    H177153   1.117   6.239   1.388 -0.3914 -1.1546  0.7935
18554TIP3    H277154   1.140   6.262   1.536  0.5372 -1.5127  0.7185
18555TIP3   OH277155   1.829   5.391   3.349 -0.6537 -0.1530 -0.1588
18555TIP3    H177156   1.907   5.408   3.295 -1.3076  0.1933 -1.0130
18555TIP3    H277157   1.860   5.402   3.439  0.5444 -1.1021 -0.4244
18556TIP3   OH277158   0.677   1.377   5.104 -0.2796  0.3407  0.1804
18556TIP3    H177159   0.648   1.289   5.127  0.9438 -0.0875  0.1243
18556TIP3    H277160   0.659   1.429   5.182  0.5092 -0.3190  0.8163
18557TIP3   OH277161   2.798   6.642   1.157  0.2959  0.6484 -0.2678
18557TIP3    H177162   2.833   6.637   1.068 -1.1914  3.2159 -1.1062
18557TIP3    H277163   2.875   6.658   1.213  1.4830 -2.6879 -0.7512
18558TIP3   OH277164   2.333   5.047   0.007 -0.5368 -0.2167  0.2957
18558TIP3    H177165   2.337   5.022  -0.086 -0.8595  1.4361 -0.2103
18558TIP3    H277166   2.413   5.097   0.021 -1.5624  1.5255  0.2307
18559TIP3   OH277167   3.257   2.947  11.843 -0.7079 -0.0373 -0.1655
18559TIP3    H177168   3.162   2.938  11.837 -0.8183  1.0935 -0.2877
18559TIP3    H277169   3.285   2.968  11.754 -0.1612 -1.7314 -0.4296
18560TIP3   OH277170   0.088   5.364   5.905  0.4775  0.2061 -0.5591
18560TIP3    H177171   0.181   5.349   5.921  0.9301  1.5288 -1.7171
18560TIP3    H277172   0.058   5.283   5.863  1.1746 -0.1207 -0.4386
18561TIP3   OH277173   5.224   0.044  16.129  0.0591 -0.2176  0.3342
18561TIP3    H177174   5.232   0.075  16.039  0.9836  0.1256  0.5211
18561TIP3    H277175   5.132   0.022  16.139  0.0847 -0.9685 -0.9207
18562TIP3   OH277176   1.383   1.408   0.163 -0.4364  0.3893 -0.5831
18562TIP3    H177177   1.346   1.321   0.146  0.4515 -0.1428  0.1209
18562TIP3    H277178   1.477   1.393   0.173 -0.1216  1.5794 -1.4229
18563TIP3   OH277179   5.633   4.816   1.491  0.4070 -0.2767  0.4271
18563TIP3    H177180   5.614   4.737   1.441  3.0259  0.7445 -2.4822
18563TIP3    H277181   5.677   4.785   1.570 -0.6856 -1.7663  0.4895
18564TIP3   OH277182   2.717   6.133  15.164 -0.6815 -0.0614  0.3611
18564TIP3    H177183   2.693   6.058  15.110 -2.8804 -0.3570  1.6225
18564TIP3    H277184   2.741   6.095  15.249 -2.0443  0.6419  1.0836
18565TIP3   OH277185   2.679   4.815  11.841  0.7315 -0.3124  0.2462
18565TIP3    H177186   2.698   4.880  11.774  0.4899 -0.1841  0.3017
18565TIP3    H277187   2.763   4.770  11.856  0.5315 -1.1285 -0.9622
18566TIP3   OH277188   0.741   3.472   5.805 -0.3255 -0.0418 -0.0819
18566TIP3    H177189   0.695   3.391   5.782 -0.2267  0.3060 -1.6020
18566TIP3    H277190   0.827   3.463   5.765 -0.6049  1.1546 -1.0038
18567TIP3   OH277191   3.732   0.768   5.667 -0.2382 -0.0441 -0.1318
18567TIP3    H177192   3.751   0.851   5.711 -0.5562 -0.3928  0.6897
18567TIP3    H277193   3.636   0.762   5.668 -0.4037  0.8096 -2.5408
18568TIP3   OH277194   2.174   1.912  13.328 -0.1414  0.0477 -0.1830
18568TIP3    H177195   2.259   1.899  13.287 -0.2692 -0.5505 -0.2598
18568TIP3    H277196   2.163   2.008  13.329  1.8033  0.3542  2.4939
18569TIP3   OH277197   3.019   0.355   5.088 -0.1347  0.1245 -0.3985
18569TIP3    H177198   2.952   0.328   5.025 -0.5344  0.2519 -0.0279
18569TIP3    H277199   3.086   0.286   5.082 -0.5808 -0.3226 -0.3263
18570TIP3   OH277200   5.808   0.549   5.506 -0.2120 -0.1239  0.4788
18570TIP3    H177201   5.779   0.467   5.464 -0.3870  0.2863 -0.2202
18570TIP3    H277202   5.759   0.618   5.461  0.9604  0.4822  0.0639
18571TIP3   OH277203   3.241   3.165  15.073 -0.3836 -0.1149 -0.9275
18571TIP3    H177204   3.268   3.241  15.124 -1.6220 -0.2807  0.0281
18571TIP3    H277205   3.150   3.151  15.098 -0.1182 -2.0656 -0.8908
18572TIP3   OH277206   2.392   4.605   1.993 -0.1518 -1.1666 -0.9075
18572TIP3    H177207   2.350   4.531   2.038  0.9462 -1.2960 -0.0623
18572TIP3    H277208   2.424   4.568   1.911  0.6274 -1.7181 -0.3696
18573TIP3   OH277209   2.641   1.089   6.252  0.5566  0.0856  0.3999
18573TIP3    H177210   2.731   1.121   6.257  0.6064 -0.1354  1.0142
18573TIP3    H277211   2.646   0.997   6.277  0.2200 -0.0387  0.0177
18574TIP3   OH277212   5.179   6.256   2.107  0.1102 -0.3245  0.2066
18574TIP3    H177213   5.120   6.224   2.039  0.6461  0.0287 -0.4449
18574TIP3    H277214   5.253   6.294   2.058  0.4224  0.0926  0.9851
18575TIP3   OH277215   4.149   4.205   4.257 -0.6246 -0.5070 -0.3876
18575TIP3    H177216   4.202   4.178   4.182 -2.3290 -0.0047 -1.8269
18575TIP3    H277217   4.167   4.298   4.268 -0.7620 -0.4683 -0.4927
18576TIP3   OH277218   0.100   0.098  12.882  0.5405  0.1646 -0.0694
18576TIP3    H177219   0.062   0.145  12.808  1.9633  1.7309  0.1403
18576TIP3    H277220   0.129   0.014  12.846  0.8041  0.7184 -1.1804
18577TIP3   OH277221   2.646   1.432  14.816  0.1605  0.2226  0.2416
18577TIP3    H177222   2.676   1.518  14.844  0.1987  0.8871 -1.6801
18577TIP3    H277223   2.709   1.405  14.750 -0.1262 -1.0861  0.4738
18578TIP3   OH277224   2.163   5.421  15.096 -0.5245  0.0097 -0.7853
18578TIP3    H177225   2.165   5.380  15.183 -0.6625  1.0378 -0.2779
18578TIP3    H277226   2.138   5.512  15.114  1.6721  0.8417 -1.6655
18579TIP3   OH277227   5.145   5.337   1.280  0.0912  0.4629  0.1807
18579TIP3    H177228   5.216   5.276   1.299 -0.2898  0.5248  1.9401
18579TIP3    H277229   5.148   5.401   1.350 -0.4769  1.6172 -0.8071
18580TIP3   OH277230   4.525   6.739  15.737  0.1670 -0.5718 -0.0745
18580TIP3    H177231   4.561   6.752  15.825 -1.6420  0.5443  0.5548
18580TIP3    H277232   4.557   6.814  15.687  1.0109 -1.0895 -0.3425
18581TIP3   OH277233   6.615   6.663   4.848  0.5122  0.3681 -0.1763
18581TIP3    H177234   6.625   6.750   4.887  1.1923  0.5891 -0.8207
18581TIP3    H277235   6.583   6.679   4.759  2.0808  0.0779 -0.8352
18582TIP3   OH277236   0.869   3.820  11.976  0.2274  0.3561  0.2385
18582TIP3    H177237   0.826   3.808  11.892 -0.5264 -1.3648  0.8327
18582TIP3    H277238   0.858   3.913  11.995 -1.0903  0.4353 -0.7700
18583TIP3   OH277239   1.052   2.615  10.856 -0.0191  0.4902  0.3975
18583TIP3    H177240   1.072   2.529  10.893  1.5204  0.7938  0.3690
18583TIP3    H277241   1.099   2.616  10.772 -0.7647  1.0318 -0.0250
18584TIP3   OH277242   2.315   4.417  12.268 -0.2216 -0.1234  0.2648
18584TIP3    H177243   2.284   4.431  12.358  0.1478 -1.4259  0.6287
18584TIP3    H277244   2.284   4.329  12.247  2.5010 -1.1859  0.3637
18585TIP3   OH277245   5.441   3.943  12.663  0.0621  0.0779 -0.6044
18585TIP3    H177246   5.512   3.970  12.721 -0.5709  0.1868  0.1379
18585TIP3    H277247   5.483   3.928  12.578  1.7086 -3.7939  0.7034
18586TIP3   OH277248   4.753   0.626   5.011  0.2871  0.2493  0.4627
18586TIP3    H177249   4.689   0.669   4.955  0.4516  0.6298  0.5618
18586TIP3    H277250   4.701   0.567   5.067  0.0321  0.5100  0.4996
18587TIP3   OH277251   5.981   6.601  16.012  0.1799  0.3702 -0.3483
18587TIP3    H177252   5.984   6.506  16.026  1.1908  0.5070  0.5290
18587TIP3    H277253   5.888   6.624  16.019 -0.0207 -0.4852 -0.0889
18588TIP3   OH277254   3.999   2.689  15.606 -0.4575 -0.1710  0.4842
18588TIP3    H177255   3.952   2.721  15.683 -1.0623 -0.5173  0.2669
18588TIP3    H277256   3.932   2.644  15.554 -0.0596  0.0779 -0.2533
18589TIP3   OH277257   0.727   4.360  15.690 -0.1820 -0.1891 -0.2428
18589TIP3    H177258   0.682   4.424  15.635  0.7720 -1.3083 -2.4648
18589TIP3    H277259   0.816   4.394  15.698  0.5285 -1.4810 -2.0221
18590TIP3   OH277260   1.808   0.957  14.075 -0.2702 -0.0922  0.0180
18590TIP3    H177261   1.824   1.007  14.155  0.3006  1.3274 -0.9442
18590TIP3    H277262   1.894   0.954  14.032 -0.7356 -0.1421 -0.9256
18591TIP3   OH277263   6.671   6.192   3.543 -0.6017 -0.3603  0.3431
18591TIP3    H177264   6.690   6.199   3.449 -2.0156  1.3547  0.1301
18591TIP3    H277265   6.646   6.281   3.569  1.2987 -0.4281  2.7380
18592TIP3   OH277266   6.716   2.916  15.946  0.0477  0.5765 -0.1137
18592TIP3    H177267   6.727   2.830  15.906  0.9040 -0.9818  3.0979
18592TIP3    H277268   6.636   2.950  15.908 -0.7685 -2.0085 -0.9275
18593TIP3   OH277269   4.935   6.160  13.793 -0.0005  0.0555  0.2769
18593TIP3    H177270   4.897   6.073  13.781 -1.4524  0.3352  2.3335
18593TIP3    H277271   4.913   6.207  13.712 -3.2589 -0.1363  0.9137
18594TIP3   OH277272   3.655   2.223   1.133  0.3399  0.0026  0.4597
18594TIP3    H177273   3.633   2.136   1.165 -0.7841  0.4174  0.8467
18594TIP3    H277274   3.722   2.255   1.193  0.1983 -0.2889  0.7711
18595TIP3   OH277275   3.308   5.203  14.680 -0.3446  0.2416  0.4038
18595TIP3    H177276   3.270   5.144  14.744 -1.2184 -0.5502 -0.8132
18595TIP3    H277277   3.240   5.214  14.613  0.1185  1.9371  0.1674
18596TIP3   OH277278   4.308   2.999  14.309  0.0037 -0.0998  0.5412
18596TIP3    H177279   4.362   2.944  14.366  0.8618 -0.4447 -0.5744
18596TIP3    H277280   4.318   2.961  14.222 -2.0894 -0.1849  0.2877
18597TIP3   OH277281   5.290   5.216  15.584  0.0155 -0.2617  0.3873
18597TIP3    H177282   5.277   5.152  15.514 -0.7256  1.5123 -1.1482
18597TIP3    H277283   5.335   5.166  15.653  1.8789 -1.7801 -1.7836
18598TIP3   OH277284   4.813   0.135  11.765 -0.4996  0.0191 -0.4651
18598TIP3    H177285   4.750   0.134  11.693 -0.6705  0.3836 -0.3209
18598TIP3    H277286   4.898   0.128  11.722 -0.5345  1.2434 -0.7769
18599TIP3   OH277287   4.773   0.293  15.302 -0.5646 -0.4674 -0.0472
18599TIP3    H177288   4.727   0.314  15.383  1.1203 -2.3658  1.5349
18599TIP3    H277289   4.801   0.378  15.267 -1.9122  0.4326  0.9832
18600TIP3   OH277290   2.697   5.749   6.056 -0.3080 -0.6436  0.1392
18600TIP3    H177291   2.649   5.793   6.127  0.9709  0.7838  0.1746
18600TIP3    H277292   2.773   5.710   6.099 -1.6193 -3.4196  0.1823
18601TIP3   OH277293   1.082   3.186   5.197  0.5022 -0.0951 -0.1853
18601TIP3    H177294   0.995   3.221   5.178  0.7579  0.3865 -0.4964
18601TIP3    H277295   1.118   3.165   5.111  1.6604  2.0584 -0.2880
18602TIP3   OH277296   3.753   1.758  12.882  0.2682  0.1344  0.3439
18602TIP3    H177297   3.841   1.726  12.905 -0.3289 -1.0727  1.0897
18602TIP3    H277298   3.712   1.683  12.838 -0.2506  0.8356 -0.3885
18603TIP3   OH277299   2.491   5.807  16.755 -0.3179  0.0537 -0.0166
18603TIP3    H177300   2.564   5.773  16.703  0.0305  1.0069 -0.1734
18603TIP3    H277301   2.515   5.787  16.846  1.0086  1.8293  0.0966
18604TIP3   OH277302   6.280   2.606  10.774 -0.2973 -0.2931 -0.0764
18604TIP3    H177303   6.332   2.621  10.853 -1.5620  2.3089  0.3957
18604TIP3    H277304   6.259   2.513  10.775  0.4751 -0.4969  2.1806
18605TIP3   OH277305   4.684   4.592   3.002 -0.0381 -0.2526  0.2640
18605TIP3    H177306   4.673   4.557   2.913 -0.6724 -0.4175  0.3993
18605TIP3    H277307   4.768   4.558   3.031  1.9088  2.5981 -1.5305
18606TIP3   OH277308   3.249   1.924   2.758 -0.0106  0.5431 -0.5911
18606TIP3    H177309   3.203   1.900   2.678  1.5917 -1.1576 -1.0782
18606TIP3    H277310   3.271   2.017   2.746 -0.9237  0.6664 -1.5133
18607TIP3   OH277311   3.094   5.999   4.566 -0.0353  0.7328 -0.0924
18607TIP3    H177312   3.181   5.992   4.528  0.1507  0.5593  0.3628
18607TIP3    H277313   3.035   5.986   4.492  0.2824 -2.4470  0.0856
18608TIP3   OH277314   1.270   4.346  15.317  0.0559  0.6066  0.8702
18608TIP3    H177315   1.272   4.329  15.222  0.8308  2.6129  0.4908
18608TIP3    H277316   1.277   4.259  15.356 -0.5023 -0.3038 -0.8952
18609TIP3   OH277317   2.570   3.404   6.378 -0.0981 -0.0624  0.2409
18609TIP3    H177318   2.651   3.364   6.408  0.3831  0.4118 -0.4098
18609TIP3    H277319   2.518   3.331   6.345  0.4245 -0.2643 -0.1473
18610TIP3   OH277320   0.850   3.882   4.974  0.1373  0.1528 -0.2282
18610TIP3    H177321   0.798   3.876   5.055 -2.0402 -0.6541 -1.5944
18610TIP3    H277322   0.824   3.965   4.935  0.4630  0.1094 -0.5405
18611TIP3   OH277323   3.884   6.390  10.635  0.0166 -0.0463 -0.1416
18611TIP3    H177324   3.900   6.338  10.556 -3.2300 -1.3210 -0.1229
18611TIP3    H277325   3.799   6.360  10.666 -1.0030  3.6867  1.2203
18612TIP3   OH277326   5.081   1.921  16.814 -0.4329  0.2889 -0.9610
18612TIP3    H177327   5.147   1.982  16.848 -0.0807 -0.5179 -0.1373
18612TIP3    H277328   5.018   1.976  16.768 -0.9097  1.4564  0.9687
18613TIP3   OH277329   6.778   2.089   3.955  0.6955 -0.4160  0.3639
18613TIP3    H177330   6.758   2.018   4.016  0.7236 -0.0511  0.8017
18613TIP3    H277331   6.752   2.055   3.870  0.7849 -0.9848  0.5584
18614TIP3   OH277332   3.644   6.206  16.539 -0.3917 -0.1764  0.1327
18614TIP3    H177333   3.709   6.151  16.584  0.4941  0.0597 -0.8262
18614TIP3    H277334   3.641   6.172  16.450  0.1884  1.3241 -0.4815
18615TIP3   OH277335   6.234   6.267  13.882  0.1159  0.5664 -0.6872
18615TIP3    H177336   6.327   6.286  13.874  0.1199  0.1630 -1.9355
18615TIP3    H277337   6.205   6.254  13.791 -1.2774  1.2608 -0.3740
18616TIP3   OH277338   0.776   2.498   2.050 -0.0530  0.0360  0.4319
18616TIP3    H177339   0.835   2.559   2.095 -2.1964  1.5717  1.3521
18616TIP3    H277340   0.826   2.417   2.043  3.0549  1.9012 -1.1189
18617TIP3   OH277341   3.985   4.205   0.431  0.3831 -0.0829  0.2432
18617TIP3    H177342   3.963   4.176   0.342  2.7708 -0.7495 -0.2094
18617TIP3    H277343   4.005   4.124   0.478  1.7201  0.4094  0.5828
18618TIP3   OH277344   4.305   2.601  12.184  0.1349  0.1046 -0.1227
18618TIP3    H177345   4.399   2.610  12.196 -0.0141  0.5325  0.9270
18618TIP3    H277346   4.292   2.510  12.158  0.7928 -0.1120  0.2822
18619TIP3   OH277347   2.075   4.054   1.329  0.3343 -0.4690  0.1754
18619TIP3    H177348   2.166   4.082   1.325  0.8936 -2.2323 -0.8780
18619TIP3    H277349   2.069   3.984   1.264 -1.2138 -1.9314  1.7787
18620TIP3   OH277350   4.118   1.799   2.639 -0.5410 -0.0962  0.0853
18620TIP3    H177351   4.213   1.803   2.625 -0.4851  0.0520  0.4795
18620TIP3    H277352   4.080   1.827   2.556 -0.2082  2.3691  0.6645
18621TIP3   OH277353   6.211   1.133   2.437  0.1089  0.3709 -0.3331
18621TIP3    H177354   6.144   1.175   2.491 -0.1796  0.4012 -0.7075
18621TIP3    H277355   6.285   1.194   2.440 -0.6013  1.3569 -1.5462
18622TIP3   OH277356   3.063   3.965   4.261 -0.7320 -0.4794 -0.0721
18622TIP3    H177357   3.132   3.934   4.202 -0.0066  2.1155 -0.7301
18622TIP3    H277358   3.102   3.960   4.348  0.2726  0.8150 -0.4222
18623TIP3   OH277359   3.699   1.172   1.648  0.1882  0.5749  0.3765
18623TIP3    H177360   3.677   1.093   1.599  0.0817  1.9125 -1.9202
18623TIP3    H277361   3.767   1.144   1.709  0.4051 -1.2143 -0.6059
18624TIP3   OH277362   5.974   3.630  12.543 -0.7016  0.1094  0.1386
18624TIP3    H177363   5.956   3.622  12.636 -0.2590  1.3823  0.3534
18624TIP3    H277364   6.069   3.628  12.537 -0.6718  1.3750 -0.1202
18625TIP3   OH277365   2.701   3.124  14.918  0.6990 -0.1147 -0.3543
18625TIP3    H177366   2.645   3.108  14.841  0.0752 -0.8683  0.2291
18625TIP3    H277367   2.719   3.036  14.952  0.5663  0.2345  0.6385
18626TIP3   OH277368   4.816   0.254   0.619 -0.2905  0.6103  0.1540
18626TIP3    H177369   4.776   0.216   0.541  2.0500 -0.9912 -0.3722
18626TIP3    H277370   4.756   0.232   0.690 -1.4121  0.2167 -0.8868
18627TIP3   OH277371   1.043   0.176  12.309  0.3776 -0.0510 -0.1894
18627TIP3    H177372   0.997   0.221  12.238  1.1566 -1.5427 -1.7057
18627TIP3    H277373   1.131   0.213  12.308 -0.0910  1.2110  1.2463
18628TIP3   OH277374   0.919   5.994   5.030 -0.2414  0.4230 -0.0361
18628TIP3    H177375   0.986   5.963   5.090 -0.4502 -2.0444 -0.9667
18628TIP3    H277376   0.895   5.917   4.978 -2.4878  1.6417 -0.9728
18629TIP3   OH277377   2.303   2.194   1.940  0.4754 -0.4371 -0.5547
18629TIP3    H177378   2.265   2.178   2.026  0.6349 -1.6293 -0.6992
18629TIP3    H277379   2.230   2.187   1.879  0.1445  1.4945 -0.4464
18630TIP3   OH277380   5.592   5.236   0.350 -0.6515  0.2618 -0.2449
18630TIP3    H177381   5.513   5.197   0.389 -1.0123 -0.4503 -1.6358
18630TIP3    H277382   5.571   5.245   0.257  0.7353  0.5197 -0.5538
18631TIP3   OH277383   4.638   4.695  11.707  0.4010  0.4037  0.6589
18631TIP3    H177384   4.705   4.627  11.697  0.6109  0.5997  0.6918
18631TIP3    H277385   4.664   4.741  11.787  0.3977  0.6682  0.5103
18632TIP3   OH277386   3.526   4.380  14.183 -0.3283 -0.3307  0.0950
18632TIP3    H177387   3.558   4.301  14.140 -0.5077  0.4507 -1.5593
18632TIP3    H277388   3.604   4.422  14.218  0.2648  0.5343 -2.1417
18633TIP3   OH277389   4.942   2.712  11.321  0.1692  0.4287  0.1312
18633TIP3    H177390   4.996   2.768  11.376 -1.7685  2.3155  0.2561
18633TIP3    H277391   4.955   2.745  11.232  1.0792 -0.7344 -0.1913
18634TIP3   OH277392   1.383   2.010   4.578 -0.3857 -0.0407 -0.7495
18634TIP3    H177393   1.381   1.980   4.487 -0.3331  1.6982 -1.3599
18634TIP3    H277394   1.326   1.948   4.625 -2.6605  0.6125 -2.4800
18635TIP3   OH277395   2.291   0.026   1.682  0.2111 -0.1804  0.3853
18635TIP3    H177396   2.313   0.027   1.775 -0.1250 -0.8119  0.4832
18635TIP3    H277397   2.298  -0.067   1.657 -0.8189 -0.1854  0.0637
18636TIP3   OH277398   1.675   0.285   3.677  0.0277 -0.0277 -0.7780
18636TIP3    H177399   1.728   0.316   3.750  1.5171  1.9725 -2.5532
18636TIP3    H277400   1.684   0.190   3.679 -1.2951 -0.1768  2.5047
18637TIP3   OH277401   0.170   1.106  14.435  0.5968  0.4041 -0.3260
18637TIP3    H177402   0.202   1.196  14.437  3.0310 -0.3878  0.7482
18637TIP3    H277403   0.198   1.071  14.351 -1.3140  0.8973 -1.2254
18638TIP3   OH277404   5.145   6.256  11.926 -0.0137  0.4886  0.3163
18638TIP3    H177405   5.152   6.166  11.896  0.0692  0.5821  0.0527
18638TIP3    H277406   5.236   6.283  11.942 -0.0370  0.5293  0.3830
18639TIP3   OH277407   1.551   0.165   1.361  0.5321 -0.2932 -0.0758
18639TIP3    H177408   1.497   0.146   1.284  0.6732 -0.3874 -0.1531
18639TIP3    H277409   1.641   0.160   1.328  0.5773  1.5796 -0.3540
18640TIP3   OH277410   5.765   5.407  15.661 -0.1486 -0.2361 -0.1144
18640TIP3    H177411   5.766   5.375  15.751 -0.5402 -0.5740 -0.2270
18640TIP3    H277412   5.693   5.359  15.619  0.0817 -0.1385 -0.6277
18641TIP3   OH277413   1.648   2.191   1.569 -0.6662 -0.4462 -0.2556
18641TIP3    H177414   1.704   2.263   1.541 -0.2515 -0.2916  0.9147
18641TIP3    H277415   1.575   2.233   1.613  0.8751 -0.7011  2.8488
18642TIP3   OH277416   1.289   3.688  14.703 -0.1725  0.4567 -0.1798
18642TIP3    H177417   1.194   3.678  14.695 -0.1360  0.0893 -0.1938
18642TIP3    H277418   1.321   3.688  14.613 -0.0703 -0.4154 -0.1572
18643TIP3   OH277419   2.465   3.321   6.015 -0.0131 -0.4944 -0.1901
18643TIP3    H177420   2.379   3.313   5.974 -0.1480 -0.4448  0.0824
18643TIP3    H277421   2.455   3.277   6.100  0.5533 -1.5435 -0.6426
18644TIP3   OH277422   2.714   4.335  16.933  0.0858  0.0755  0.6525
18644TIP3    H177423   2.645   4.399  16.952  0.8415  0.9567  0.5043
18644TIP3    H277424   2.722   4.335  16.838 -0.8467 -1.2820  0.5385
18645TIP3   OH277425   4.677   5.809  12.977  0.2025 -0.2045  0.2557
18645TIP3    H177426   4.718   5.724  12.987 -0.7843 -1.5790 -4.7678
18645TIP3    H277427   4.723   5.850  12.903 -2.3984  1.4729 -0.5860
18646TIP3   OH277428   2.903   5.176   5.177  0.0172  0.0635  0.0407
18646TIP3    H177429   2.991   5.141   5.169 -1.0781 -3.0071  0.0024
18646TIP3    H277430   2.909   5.242   5.247  2.5379  1.0002 -0.9463
18647TIP3   OH277431   2.881   0.627  15.100  0.1342 -0.7831  0.5313
18647TIP3    H177432   2.854   0.703  15.152  0.0788 -0.5238  0.1314
18647TIP3    H277433   2.821   0.627  15.025  0.5889 -0.8045  0.1626
18648TIP3   OH277434   4.451   3.214   1.214 -0.6253  0.6399  0.0017
18648TIP3    H177435   4.513   3.147   1.243  1.7263  2.6746  0.0530
18648TIP3    H277436   4.432   3.190   1.123  0.1021 -0.1587  0.0386
18649TIP3   OH277437   6.706   5.058   4.452 -0.1463 -0.1827 -0.6251
18649TIP3    H177438   6.686   5.066   4.546  0.0562 -2.3054 -0.3559
18649TIP3    H277439   6.763   5.133   4.434 -1.1884  0.9758  0.6346
18650TIP3   OH277440   3.133   4.084   5.768  0.3863 -0.3607  0.1110
18650TIP3    H177441   3.161   4.175   5.774  0.9599 -0.5741  0.9407
18650TIP3    H277442   3.045   4.083   5.806  0.1953 -0.0816 -0.3178
18651TIP3   OH277443   6.263   1.160  12.632  0.3446  1.0353  0.4318
18651TIP3    H177444   6.301   1.245  12.608  0.5243  0.6545 -0.7077
18651TIP3    H277445   6.335   1.112  12.672  0.1659  1.5156  1.3510
18652TIP3   OH277446   0.462   2.682   1.611 -0.1677 -0.4836  0.8439
18652TIP3    H177447   0.450   2.755   1.549 -0.9977  2.0986  3.7827
18652TIP3    H277448   0.373   2.659   1.637  0.1774 -1.1984  1.4131
18653TIP3   OH277449   3.423   5.795  12.463  0.2413  0.4528 -0.5011
18653TIP3    H177450   3.358   5.760  12.403 -2.3858  2.0620  1.1651
18653TIP3    H277451   3.481   5.722  12.483 -1.1314 -1.1006 -1.9854
18654TIP3   OH277452   5.002   0.355   4.333 -0.0945 -0.6060  0.1708
18654TIP3    H177453   5.037   0.309   4.256  1.4080  1.7036 -0.6160
18654TIP3    H277454   5.025   0.297   4.407 -0.0826 -2.0711 -0.9289
18655TIP3   OH277455   5.110   3.511  15.461 -0.4435  0.2721  0.0795
18655TIP3    H177456   5.161   3.563  15.522 -1.9117 -0.1435  1.7547
18655TIP3    H277457   5.173   3.451  15.422  0.3294 -0.5742  2.4385
18656TIP3   OH277458   4.409   1.531   2.232  0.1675  0.1719  0.3090
18656TIP3    H177459   4.408   1.625   2.216  2.2020  0.2995  0.7211
18656TIP3    H277460   4.452   1.521   2.317 -0.0004 -1.1385  0.2642
18657TIP3   OH277461   2.526   4.357   3.174  0.3856  0.0770  0.4662
18657TIP3    H177462   2.479   4.407   3.107  0.7511  2.0215  1.5876
18657TIP3    H277463   2.463   4.292   3.205 -1.0201  1.5682  0.8207
18658TIP3   OH277464   2.164   1.177   0.458 -0.2946 -0.6312  0.6733
18658TIP3    H177465   2.110   1.241   0.505  0.1056 -1.2545  2.0292
18658TIP3    H277466   2.251   1.185   0.497  0.4322 -0.1996 -0.9405
18659TIP3   OH277467   4.541   5.024  11.770 -0.3812 -0.3857  0.4191
18659TIP3    H177468   4.549   5.087  11.698  3.0716 -0.8981  0.1632
18659TIP3    H277469   4.606   5.053  11.834 -2.0433 -1.0435  2.5120
18660TIP3   OH277470   4.456   6.805   3.859  0.0224 -0.3527 -0.0412
18660TIP3    H177471   4.487   6.766   3.777  1.0374  2.1125 -0.9232
18660TIP3    H277472   4.481   6.897   3.852  2.0509 -0.3962  3.9182
18661TIP3   OH277473   2.013   3.136   2.925  0.3258  0.4355 -0.4331
18661TIP3    H177474   2.064   3.078   2.981  1.2718  0.9668 -0.7219
18661TIP3    H277475   1.940   3.082   2.894 -0.1835  0.1037  1.2227
18662TIP3   OH277476   1.921   1.423  16.225 -0.5846 -0.1356 -0.0311
18662TIP3    H177477   2.004   1.450  16.263 -0.4404 -0.9039  0.2203
18662TIP3    H277478   1.906   1.484  16.153  0.2599 -0.0764 -0.1609
18663TIP3   OH277479   5.836   0.021  11.848  0.1677 -0.2999  0.8870
18663TIP3    H177480   5.773  -0.042  11.883 -0.8371  1.5379  2.5835
18663TIP3    H277481   5.841   0.089  11.914  0.4244  1.9166 -1.2735
18664TIP3   OH277482   3.831   2.230   5.900  0.5239 -0.4359  0.4343
18664TIP3    H177483   3.884   2.157   5.932  3.3229  1.2878  0.0070
18664TIP3    H277484   3.856   2.240   5.808  0.0363  0.9191  0.4338
18665TIP3   OH277485   6.823   2.912  15.510  0.3543  0.1546 -0.4819
18665TIP3    H177486   6.781   2.828  15.529  0.7125  0.2796  1.0490
18665TIP3    H277487   6.912   2.889  15.482  0.9476  0.0037  1.3379
18666TIP3   OH277488   6.754   4.649   6.685 -0.4927  0.0745 -0.2521
18666TIP3    H177489   6.783   4.608   6.603  0.8779 -0.3321  0.4119
18666TIP3    H277490   6.695   4.584   6.724  0.0403 -0.3877 -0.1991
18667TIP3   OH277491   5.423   3.188  15.958  0.5553 -0.2292 -0.4469
18667TIP3    H177492   5.364   3.263  15.953 -1.3729 -1.5266  1.2658
18667TIP3    H277493   5.392   3.128  15.890  0.7579 -0.3579 -0.4296
18668TIP3   OH277494   6.191   5.983   3.139  0.0267  0.4268  0.6188
18668TIP3    H177495   6.269   5.935   3.167 -1.1984 -0.7717  2.1420
18668TIP3    H277496   6.139   5.992   3.218 -1.7010  0.5944 -0.4864
18669TIP3   OH277497   3.401   5.689  15.409 -0.3844  0.1005  0.1858
18669TIP3    H177498   3.348   5.676  15.330 -0.6552  0.4912  0.3005
18669TIP3    H277499   3.349   5.747  15.464  0.0706  0.3241  0.3900
18670TIP3   OH277500   1.295   2.454  14.700  0.1000 -0.3764  0.6642
18670TIP3    H177501   1.310   2.536  14.653 -3.6404  0.2935  0.3335
18670TIP3    H277502   1.339   2.388  14.646  0.3907  1.0303 -0.9268
18671TIP3   OH277503   5.491   5.424   1.114 -0.1159  0.4164 -0.2567
18671TIP3    H177504   5.436   5.452   1.041 -2.5642 -4.8593 -0.9355
18671TIP3    H277505   5.566   5.381   1.073 -0.7223 -1.2142  0.2439
18672TIP3   OH277506   3.336   1.400  17.040  0.1910  0.1665 -0.4025
18672TIP3    H177507   3.337   1.461  16.966 -1.8760  0.9392  0.1403
18672TIP3    H277508   3.272   1.333  17.015  0.7239 -0.5007 -0.0113
18673TIP3   OH277509   3.886   3.037  13.829 -0.0057  0.3258  0.0754
18673TIP3    H177510   3.963   3.094  13.830 -0.7805  1.4162 -0.4450
18673TIP3    H277511   3.918   2.953  13.797  1.2176  0.3592  1.1452
18674TIP3   OH277512   0.862   3.598  14.242  0.8280 -0.1818 -0.3301
18674TIP3    H177513   0.885   3.511  14.274 -1.4294 -1.4059 -1.7585
18674TIP3    H277514   0.827   3.644  14.319  0.0472 -1.3268  0.0222
18675TIP3   OH277515   4.880   2.212   2.552 -0.0327  0.1874 -0.1410
18675TIP3    H177516   4.847   2.279   2.611 -1.2409  0.2012 -0.8045
18675TIP3    H277517   4.819   2.139   2.561  0.6448 -0.4090 -0.2375
18676TIP3   OH277518   1.743   0.267  15.114  0.2743  0.0637  0.0647
18676TIP3    H177519   1.654   0.238  15.131 -0.3187  0.4474 -2.0886
18676TIP3    H277520   1.798   0.193  15.139 -1.0032 -2.0081 -2.7278
18677TIP3   OH277521   5.712   2.119  12.013  0.5113  1.2284 -0.4088
18677TIP3    H177522   5.722   2.065  11.935  0.1258  0.8536 -0.2002
18677TIP3    H277523   5.622   2.151  12.009  1.1629  3.0792 -1.3121
18678TIP3   OH277524   0.752   3.847  11.497  0.1083 -0.1563 -0.4839
18678TIP3    H177525   0.748   3.866  11.591  0.1541 -1.6376 -0.1541
18678TIP3    H277526   0.739   3.932  11.455  1.2298  0.7265  0.8581
18679TIP3   OH277527   5.931   0.194   0.434  0.1382 -0.0522  0.0948
18679TIP3    H177528   5.938   0.103   0.463 -0.1067  0.2887  1.2725
18679TIP3    H277529   6.017   0.213   0.395  0.4497 -0.5753  0.5076
18680TIP3   OH277530   5.166   1.001  16.351  0.5910  0.2121  0.2677
18680TIP3    H177531   5.204   0.948  16.281  0.2418  0.6682 -0.2767
18680TIP3    H277532   5.105   0.942  16.395 -0.1560  0.2794 -0.6429
18681TIP3   OH277533   3.446   1.567  16.604 -0.8039 -0.3577  0.0361
18681TIP3    H177534   3.533   1.544  16.638 -0.6303 -1.6439 -1.1600
18681TIP3    H277535   3.455   1.657  16.574  0.0698 -0.4094  0.1027
18682TIP3   OH277536   5.321   3.144   2.524  0.2078  0.2501  0.1613
18682TIP3    H177537   5.262   3.070   2.508  0.3124 -0.6738  3.3990
18682TIP3    H277538   5.263   3.220   2.527 -0.1184  0.1100 -1.4743
18683TIP3   OH277539   0.008   4.771   5.589  0.3660 -0.2254 -0.1317
18683TIP3    H177540   0.092   4.771   5.633  1.2354  2.5121 -1.5379
18683TIP3    H277541  -0.012   4.679   5.574  2.5935 -0.9839  1.1246
18684TIP3   OH277542   6.469   3.485  16.953 -0.4553 -0.1466 -0.3240
18684TIP3    H177543   6.551   3.473  17.001 -1.0860  1.3727  1.2578
18684TIP3    H277544   6.427   3.399  16.955  1.5486 -1.2569 -2.1479
18685TIP3   OH277545   1.104   4.799   3.834 -0.1548  0.1065 -0.4225
18685TIP3    H177546   1.059   4.869   3.882  1.2355  0.3922  0.5136
18685TIP3    H277547   1.189   4.792   3.876 -0.0553 -1.7841 -0.8740
18686TIP3   OH277548   6.461   1.374  12.616 -0.5562  0.4656 -0.0571
18686TIP3    H177549   6.467   1.356  12.522  0.2587  0.2221  0.0286
18686TIP3    H277550   6.519   1.309  12.657 -0.2838  1.0621  0.5431
18687TIP3   OH277551   4.558   0.448  13.909  0.0514  0.3638 -0.1897
18687TIP3    H177552   4.508   0.505  13.851  3.8840  2.1493 -2.1237
18687TIP3    H277553   4.587   0.505  13.980  1.2425  0.0582 -0.4045
18688TIP3   OH277554   5.539   5.193  10.603  0.0549  0.0882  0.0579
18688TIP3    H177555   5.521   5.101  10.622  1.8803 -0.2533  0.2483
18688TIP3    H277556   5.619   5.213  10.651 -2.0543  2.7712  2.8864
18689TIP3   OH277557   6.524   2.915   1.600  0.3495 -0.3861 -0.3003
18689TIP3    H177558   6.611   2.940   1.631  0.4772 -1.5218  0.3428
18689TIP3    H277559   6.532   2.821   1.580 -0.9975 -0.7744  0.8420
18690TIP3   OH277560   4.033   3.424   2.940 -0.2705 -0.2936  0.4656
18690TIP3    H177561   4.012   3.493   2.877 -1.6560  0.2541  1.4973
18690TIP3    H277562   4.099   3.371   2.895 -0.3933  0.7274 -0.9997
18691TIP3   OH277563   4.626   0.616   0.076  0.2315 -0.0547 -0.5350
18691TIP3    H177564   4.552   0.598   0.018 -0.0305 -0.7824  0.0168
18691TIP3    H277565   4.702   0.580   0.030  0.0490 -0.4822 -0.5011
18692TIP3   OH277566   6.272   4.060   1.983 -0.3992 -0.6450  0.0779
18692TIP3    H177567   6.212   4.134   1.979 -0.6917 -0.8266  0.8993
18692TIP3    H277568   6.279   4.029   1.893  0.3694  0.8773 -0.4198
18693TIP3   OH277569   2.659   1.968   2.386  0.6056  0.1258 -0.1756
18693TIP3    H177570   2.706   2.050   2.376  1.8166 -0.5381 -0.1444
18693TIP3    H277571   2.719   1.901   2.352  0.2561 -0.9107  1.1197
18694TIP3   OH277572   0.361   6.725   3.093 -0.0688  0.0184 -0.3480
18694TIP3    H177573   0.456   6.730   3.105 -0.0065 -1.6996  0.0590
18694TIP3    H277574   0.350   6.721   2.998  0.1765  1.2110 -0.4513
18695TIP3   OH277575   0.327   3.048  14.613  0.2074 -0.5341 -0.5588
18695TIP3    H177576   0.378   3.097  14.676 -0.0388 -0.9271 -0.0448
18695TIP3    H277577   0.236   3.064  14.637  0.0188  0.9062 -2.0282
18696TIP3   OH277578   4.084   6.049   0.544 -0.2036  0.0484 -0.2780
18696TIP3    H177579   4.080   6.132   0.497  1.4724  0.7874  0.8059
18696TIP3    H277580   4.115   6.072   0.631  2.2526 -1.9021 -0.5235
18697TIP3   OH277581   1.626   4.185  11.622 -0.4522 -0.7974  0.1170
18697TIP3    H177582   1.534   4.209  11.634  0.1352  1.0216  1.6712
18697TIP3    H277583   1.658   4.248  11.557 -0.0989 -0.8107  0.2783
18698TIP3   OH277584   2.189   4.400   4.505 -0.4008 -0.1887 -0.4443
18698TIP3    H177585   2.216   4.379   4.595 -1.3463 -0.3681 -0.1888
18698TIP3    H277586   2.161   4.317   4.468 -0.1777 -0.0822 -0.8571
18699TIP3   OH277587   5.647   1.996  11.795  0.2545 -0.4799  0.0932
18699TIP3    H177588   5.672   1.948  11.717  2.6340  0.9037 -0.0776
18699TIP3    H277589   5.611   2.079  11.763  1.5440  0.2334  0.4104
18700TIP3   OH277590   4.186   1.500  14.327  0.6872 -0.0378  0.5153
18700TIP3    H177591   4.231   1.428  14.283 -0.2711 -0.9280  0.9319
18700TIP3    H277592   4.136   1.543  14.258 -0.5977 -1.2585  0.6501
18701TIP3   OH277593   6.119   0.305  11.336  0.7430 -0.5396 -0.5842
18701TIP3    H177594   6.118   0.275  11.246  1.5805  0.0442 -0.7917
18701TIP3    H277595   6.026   0.318  11.358  0.5479 -0.5142 -1.4132
18702TIP3   OH277596   5.646   4.058   5.504 -0.1148  0.0317 -0.5122
18702TIP3    H177597   5.658   3.980   5.558 -0.9783  0.9427  1.0582
18702TIP3    H277598   5.729   4.105   5.511 -0.0782 -0.0603 -0.3336
18703TIP3   OH277599   5.500   2.942   3.600 -0.4256  0.1342 -0.0813
18703TIP3    H177600   5.482   2.869   3.541 -0.2050 -0.5927  0.7380
18703TIP3    H277601   5.451   2.921   3.680  0.4300  0.3751  0.5221
18704TIP3   OH277602   6.745   4.169   5.987 -0.6044  0.1993 -0.2544
18704TIP3    H177603   6.665   4.198   6.030 -0.6294 -0.9986  0.5633
18704TIP3    H277604   6.718   4.095   5.933 -0.2386  0.4996 -0.8616
18705TIP3   OH277605   4.846   6.819  14.796  0.0951  0.3430 -0.2490
18705TIP3    H177606   4.831   6.836  14.889 -1.3184  0.3401 -0.4512
18705TIP3    H277607   4.884   6.900  14.762  0.0351  0.5633  0.2092
18706TIP3   OH277608   5.812   2.683  14.502  0.1692 -0.6592 -0.5407
18706TIP3    H177609   5.823   2.729  14.585  0.4885 -0.3954 -0.7262
18706TIP3    H277610   5.894   2.635  14.490  0.1770 -0.5903 -0.7702
18707TIP3   OH277611   5.419   3.177  13.741  0.3229 -0.0048 -0.0242
18707TIP3    H177612   5.412   3.104  13.802 -1.2125  0.1689  0.0662
18707TIP3    H277613   5.372   3.148  13.663  0.9397  0.3503 -0.5294
18708TIP3   OH277614   4.242   1.536   3.405  0.2217  0.5203 -0.3891
18708TIP3    H177615   4.204   1.576   3.483  0.1069 -0.0745 -0.1308
18708TIP3    H277616   4.326   1.501   3.435  0.4036  0.7277 -0.6545
18709TIP3   OH277617   6.566   3.623   1.287  0.1133  0.2422 -0.2566
18709TIP3    H177618   6.634   3.588   1.345 -0.5112  0.1064  0.4170
18709TIP3    H277619   6.587   3.587   1.201  1.9229  1.6231 -0.4584
18710TIP3   OH277620   3.576   0.517   4.710 -0.5239 -0.0739  0.3821
18710TIP3    H177621   3.494   0.564   4.726 -0.4302 -0.0446  0.7944
18710TIP3    H277622   3.614   0.506   4.797  0.0778  0.2143  0.1581
18711TIP3   OH277623   4.480   2.948   5.505 -0.6288 -0.0758 -0.5114
18711TIP3    H177624   4.538   3.002   5.559 -1.3424 -1.3419  1.6531
18711TIP3    H277625   4.538   2.883   5.466 -0.4155 -0.7969  0.9386
18712TIP3   OH277626   0.258   5.033   4.167  0.0082 -0.0240  0.2095
18712TIP3    H177627   0.310   5.098   4.119 -2.4620  1.4611 -0.6422
18712TIP3    H277628   0.240   4.965   4.102 -0.2009  0.1183  0.1172
18713TIP3   OH277629   1.133   2.475  16.427 -0.1803  0.4733 -0.7580
18713TIP3    H177630   1.215   2.444  16.390 -1.1349  2.1058 -4.7676
18713TIP3    H277631   1.148   2.568  16.446 -0.9320  0.6699 -1.0661
18714TIP3   OH277632   4.393   3.140  11.567 -0.5536 -0.0020 -0.3678
18714TIP3    H177633   4.320   3.117  11.625  0.6060 -0.4888  0.9542
18714TIP3    H277634   4.357   3.205  11.507 -2.8488 -2.1718 -1.5456
18715TIP3   OH277635   6.477   4.970   1.667  0.2287 -0.1949 -0.0943
18715TIP3    H177636   6.467   5.044   1.727  0.8042 -1.0302  1.0700
18715TIP3    H277637   6.387   4.940   1.651  0.1288 -0.9838  1.7040
18716TIP3   OH277638   1.346   1.095  16.279  0.2126  0.0517 -0.2307
18716TIP3    H177639   1.413   1.108  16.212  0.6016  1.1161  0.3515
18716TIP3    H277640   1.264   1.111  16.233  0.5472  2.5949 -0.0982
18717TIP3   OH277641   1.422   0.490   5.570 -0.0624  0.1672 -0.3328
18717TIP3    H177642   1.395   0.537   5.649  1.4986 -0.6953  0.7601
18717TIP3    H277643   1.487   0.548   5.529  0.1620 -0.0146 -0.2315
18718TIP3   OH277644   4.055   3.790  13.044  0.2307 -0.1490 -0.0355
18718TIP3    H177645   4.137   3.786  13.094  0.6558 -0.2028 -0.7183
18718TIP3    H277646   4.029   3.699  13.033 -0.8914 -0.0923  1.6956
18719TIP3   OH277647   2.162   2.186  15.091 -0.2902 -0.2693  0.9117
18719TIP3    H177648   2.089   2.170  15.031  1.3085 -0.2960 -1.1186
18719TIP3    H277649   2.200   2.268  15.061  1.5612 -1.1297  0.8152
18720TIP3   OH277650   6.782   0.546  11.335  0.1669 -0.2230  0.3809
18720TIP3    H177651   6.770   0.500  11.419 -0.0151  1.7062  1.4729
18720TIP3    H277652   6.868   0.587  11.342 -0.9332  2.1726  0.8080
18721TIP3   OH277653   1.909   2.940   3.759  0.0067  0.2090  0.1998
18721TIP3    H177654   1.845   2.908   3.823  0.4057  0.0168  0.5105
18721TIP3    H277655   1.990   2.893   3.781 -0.3518 -1.4463 -1.7813
18722TIP3   OH277656   2.834   4.858   6.408 -0.2854  0.4886 -0.0794
18722TIP3    H177657   2.862   4.767   6.399 -0.5639  0.5026 -1.1475
18722TIP3    H277658   2.765   4.856   6.474 -0.6358 -0.1459 -0.4637
18723TIP3   OH277659   3.137   1.193  16.984  0.3873  0.1716 -0.5308
18723TIP3    H177660   3.065   1.248  17.014 -0.2319 -0.2120 -1.2785
18723TIP3    H277661   3.129   1.112  17.036  0.8736  0.4961  0.0676
18724TIP3   OH277662   0.777   0.308  16.141  0.2473 -0.4059 -0.1628
18724TIP3    H177663   0.781   0.402  16.123  0.8385 -0.3423  0.3084
18724TIP3    H277664   0.796   0.300  16.234 -2.2348 -0.7845  0.3934
18725TIP3   OH277665   6.003   2.613   1.046  0.1496  0.4875  0.2279
18725TIP3    H177666   5.965   2.606   1.133  2.2476 -0.3944  1.1652
18725TIP3    H277667   5.991   2.704   1.021 -2.7201  0.2050  0.2907
18726TIP3   OH277668   4.536   4.766   3.160 -0.1480 -0.1937  0.5669
18726TIP3    H177669   4.538   4.738   3.251  0.0008 -0.1680  0.5732
18726TIP3    H277670   4.574   4.693   3.111  0.9010  0.2710  0.6643
18727TIP3   OH277671   4.328   0.059  16.994 -0.0179  0.1691  0.2789
18727TIP3    H177672   4.290   0.115  16.926 -2.2315  0.8052  1.9219
18727TIP3    H277673   4.357   0.121  17.062  2.0021 -0.4670  0.0779
18728TIP3   OH277674   4.029   3.261   3.854 -0.1494  0.2875  0.2795
18728TIP3    H177675   4.113   3.244   3.811  0.1176  1.5049  0.3022
18728TIP3    H277676   4.040   3.344   3.899 -2.0909  1.7021 -1.6409
18729TIP3   OH277677   1.749   2.425   1.157 -0.5079  0.8963  0.0295
18729TIP3    H177678   1.778   2.355   1.098 -1.9197 -0.1009  0.4504
18729TIP3    H277679   1.659   2.400   1.182 -0.2027  1.6159  2.0731
18730TIP3   OH277680   5.458   0.306   5.029 -0.3652 -0.1972 -0.0331
18730TIP3    H177681   5.450   0.338   4.940  1.0870  2.3805  0.6622
18730TIP3    H277682   5.416   0.219   5.028 -1.9954  0.5228 -2.7343
18731TIP3   OH277683   6.305   0.477   5.086  0.0256  0.5451 -0.6815
18731TIP3    H177684   6.339   0.388   5.079 -0.8224 -0.0506  1.6515
18731TIP3    H277685   6.258   0.492   5.004  1.2998 -0.6160 -1.6729
18732TIP3   OH277686   1.870   5.912  12.422 -0.5782 -0.5924  0.2871
18732TIP3    H177687   1.852   5.824  12.391 -0.9535 -0.2361 -0.5311
18732TIP3    H277688   1.812   5.968  12.371  1.1882  0.3531 -0.7614
18733TIP3   OH277689   0.470   6.400   1.425  0.1151  0.1364 -0.2067
18733TIP3    H177690   0.413   6.414   1.501  0.4597 -0.5014  0.1860
18733TIP3    H277691   0.425   6.442   1.352 -0.0668  1.0469  0.4170
18734TIP3   OH277692   1.055   2.374  15.162  0.5780  0.3012 -0.4500
18734TIP3    H177693   1.108   2.309  15.115 -0.8399 -0.4393 -1.0774
18734TIP3    H277694   1.109   2.453  15.161  2.3389 -0.8187  0.3057
18735TIP3   OH277695   6.818   2.861  13.745 -0.2467 -0.2686 -0.4290
18735TIP3    H177696   6.788   2.851  13.835 -0.4819  1.9730 -0.2068
18735TIP3    H277697   6.911   2.840  13.748 -0.8251 -3.4626 -0.3807
18736TIP3   OH277698   2.002   3.426   2.492  0.1082  0.6027 -0.7935
18736TIP3    H177699   1.976   3.422   2.584  1.7822  2.4962 -0.1537
18736TIP3    H277700   1.921   3.416   2.444 -0.6029 -2.4439  0.7641
18737TIP3   OH277701   4.996   3.703   0.570 -0.1267  0.0140 -0.1459
18737TIP3    H177702   5.027   3.706   0.661 -0.3660  0.1556 -0.0690
18737TIP3    H277703   4.935   3.630   0.568 -1.1132  0.8122  0.1222
18738TIP3   OH277704   4.266   2.795   0.680  0.3940 -0.2111 -0.1144
18738TIP3    H177705   4.358   2.814   0.700 -0.0341  1.9416  0.0508
18738TIP3    H277706   4.270   2.732   0.608  2.0056 -0.2789 -0.0084
18739TIP3   OH277707   4.170   3.973  10.652  0.1043  0.1715  0.1816
18739TIP3    H177708   4.093   3.928  10.617  0.9812 -0.8861 -0.4705
18739TIP3    H277709   4.148   4.066  10.647 -1.4966 -0.1331  0.9199
18740TIP3   OH277710   1.072   2.246  15.879 -0.0497  0.1830 -0.0980
18740TIP3    H177711   1.026   2.263  15.797  0.4053  1.0645 -0.1836
18740TIP3    H277712   1.024   2.298  15.944  0.1425  0.2047  0.0254
18741TIP3   OH277713   5.565   1.639  15.959  0.4573  0.5379 -0.0037
18741TIP3    H177714   5.587   1.714  16.014 -0.9654 -0.4001  1.9420
18741TIP3    H277715   5.481   1.607  15.993  0.1192 -0.8299 -1.9622
18742TIP3   OH277716   5.520   3.692  14.313  0.4349 -0.3909 -0.1048
18742TIP3    H177717   5.472   3.708  14.232 -0.2596  0.6314  0.4750
18742TIP3    H277718   5.471   3.742  14.379  0.5235 -1.8276  1.0953
18743TIP3   OH277719   2.977   6.736  13.385  0.0770 -0.6430  0.3043
18743TIP3    H177720   3.035   6.660  13.392  0.0357 -0.6437  0.6514
18743TIP3    H277721   2.898   6.703  13.343  1.0102 -0.2693 -1.8838
18744TIP3   OH277722   0.599   4.285   2.010  0.4123  0.1900  0.3644
18744TIP3    H177723   0.523   4.289   1.951  0.7064  0.4735 -0.0044
18744TIP3    H277724   0.670   4.325   1.959  1.3235 -1.8568 -0.0790
18745TIP3   OH277725   6.002   2.708  15.301  0.7045  0.2380 -0.3879
18745TIP3    H177726   5.946   2.777  15.336  2.2137  1.0634  0.5081
18745TIP3    H277727   6.069   2.694  15.369 -1.3732 -4.5318  1.1122
18746TIP3   OH277728   4.493   5.295   1.586  0.0785 -0.1837 -0.3834
18746TIP3    H177729   4.406   5.256   1.582 -0.2813  0.4859  0.4903
18746TIP3    H277730   4.478   5.389   1.589  0.8635 -0.0325 -0.8884
18747TIP3   OH277731   5.158   4.282   1.271  0.0588 -0.9307 -0.1433
18747TIP3    H177732   5.085   4.293   1.331  2.4039  0.0100  2.8158
18747TIP3    H277733   5.193   4.371   1.260  2.9220 -1.6789  1.6912
18748TIP3   OH277734   3.362   6.755   2.762 -0.0170 -0.0795  0.3589
18748TIP3    H177735   3.301   6.809   2.712 -0.5341  0.2110  1.2700
18748TIP3    H277736   3.346   6.780   2.853  0.2343 -1.2568  0.7425
18749TIP3   OH277737   6.451   5.251  13.621  0.3169  0.1207 -0.1149
18749TIP3    H177738   6.420   5.288  13.703  0.1546  0.8972 -0.5214
18749TIP3    H277739   6.374   5.251  13.563  0.8179  1.2175 -0.8281
18750TIP3   OH277740   4.993   0.096  12.730  0.1945 -0.7394 -0.7212
18750TIP3    H177741   5.024   0.132  12.813 -0.5573 -0.6958 -0.4528
18750TIP3    H277742   4.976   0.004  12.748 -3.2751 -0.0791  0.1942
18751TIP3   OH277743   3.034   1.707   0.217 -0.0875  0.8213 -0.0856
18751TIP3    H177744   3.027   1.802   0.203  0.3081  0.7601 -0.7182
18751TIP3    H277745   3.049   1.671   0.129 -1.0500  0.0904  0.0243
18752TIP3   OH277746   3.253   0.286  17.114 -0.1606 -0.1910  0.3975
18752TIP3    H177747   3.159   0.302  17.104 -0.2563  0.1404  1.6064
18752TIP3    H277748   3.258   0.195  17.144 -0.0127 -0.5628 -0.7270
18753TIP3   OH277749   6.318   3.779   2.654  0.5265  0.1845 -0.0519
18753TIP3    H177750   6.279   3.757   2.738  0.6282 -2.0312 -0.5274
18753TIP3    H277751   6.243   3.794   2.596  0.4514  0.6586  0.1625
18754TIP3   OH277752   3.708   4.152  13.464  0.6643  0.2207  0.0087
18754TIP3    H177753   3.655   4.223  13.426  1.7478  0.9402 -0.2148
18754TIP3    H277754   3.776   4.197  13.514  1.0341 -0.6805  0.3361
18755TIP3   OH277755   2.177   4.867   6.108  0.1517 -0.4625  0.1294
18755TIP3    H177756   2.189   4.829   6.195  1.7264 -2.3247 -0.8169
18755TIP3    H277757   2.189   4.961   6.121 -0.4506 -0.5928  2.0215
18756TIP3   OH277758   5.541   6.745  13.700 -0.0190  0.0499 -0.3845
18756TIP3    H177759   5.635   6.755  13.685 -0.3736  0.7034 -2.5731
18756TIP3    H277760   5.522   6.805  13.772  0.9761  1.3072 -1.1139
18757TIP3   OH277761   1.937   2.318   2.681  0.0322  0.1984  0.2939
18757TIP3    H177762   1.994   2.294   2.608 -2.7980  0.5211 -2.2077
18757TIP3    H277763   1.933   2.414   2.678 -0.6076  0.1818  0.4696
18758TIP3   OH277764   1.070   3.527  15.982 -0.1067 -1.0164 -0.1485
18758TIP3    H177765   0.990   3.518  16.033 -0.4217  2.3652  0.2010
18758TIP3    H277766   1.140   3.505  16.044 -0.6492 -2.2525  0.0645
18759TIP3   OH277767   5.120   6.071  12.934  0.0503 -1.0583  0.0111
18759TIP3    H177768   5.033   6.090  12.967  0.2049  0.0695 -0.1697
18759TIP3    H277769   5.179   6.122  12.990  0.6669 -2.3879  0.6045
18760TIP3   OH277770   0.127   5.656  11.406 -0.5887 -0.0886  0.1356
18760TIP3    H177771   0.062   5.696  11.347  0.3100 -0.2079 -0.9697
18760TIP3    H277772   0.183   5.604  11.348  1.0157  0.6813  0.9253
18761TIP3   OH277773   3.257   1.648   3.752  0.3690  0.3800  0.4091
18761TIP3    H177774   3.213   1.566   3.775  3.9309 -1.7596  0.3441
18761TIP3    H277775   3.271   1.641   3.658  2.2431  0.1382  0.6729
18762TIP3   OH277776   0.698   4.464  16.791  0.0237 -0.1166  0.0767
18762TIP3    H177777   0.754   4.541  16.795  0.7185 -0.6711  1.8992
18762TIP3    H277778   0.740   4.408  16.726  0.8974  0.0096  0.5190
18763TIP3   OH277779   4.184   4.656  11.024  0.4981 -0.1966 -0.3700
18763TIP3    H177780   4.138   4.615  10.951  1.1693  1.7508 -2.0129
18763TIP3    H277781   4.269   4.612  11.027  0.9917  0.5933 -1.7299
18764TIP3   OH277782   6.729   6.699   1.824  0.5692  0.1930  0.2965
18764TIP3    H177783   6.673   6.670   1.896 -1.0654  0.7504 -0.6952
18764TIP3    H277784   6.810   6.726   1.866  0.9352 -2.5802  1.5948
18765TIP3   OH277785   4.286   3.688   0.354  0.0051 -0.4968  0.2078
18765TIP3    H177786   4.285   3.622   0.285  0.3714 -0.4192  0.1260
18765TIP3    H277787   4.228   3.653   0.421  0.5461 -1.1194  0.3667
18766TIP3   OH277788   6.573   5.851   0.046  0.1262 -0.0467 -0.5176
18766TIP3    H177789   6.556   5.828   0.138  0.0757  1.0337 -0.2374
18766TIP3    H277790   6.594   5.768   0.004 -0.8367 -0.7163  0.2511
18767TIP3   OH277791   3.746   2.229  15.780  0.3571  0.6849  0.3321
18767TIP3    H177792   3.751   2.321  15.756  0.2463  1.4316  2.8964
18767TIP3    H277793   3.771   2.226  15.872  0.4131 -1.8711  0.3226
18768TIP3   OH277794   1.567   1.090  16.103  0.4111 -0.6884 -0.4482
18768TIP3    H177795   1.573   0.996  16.089 -0.5465 -0.6955 -0.8977
18768TIP3    H277796   1.656   1.122  16.090  0.7209 -1.5112 -0.4109
18769TIP3   OH277797   6.008   2.193  15.380 -0.3201 -0.4940 -0.0074
18769TIP3    H177798   5.935   2.165  15.435 -0.2477  0.7074  0.7349
18769TIP3    H277799   5.980   2.277  15.344  0.8825  0.2340  0.6934
18770TIP3   OH277800   5.011   6.519   4.730  0.5829  0.4174  0.1954
18770TIP3    H177801   4.990   6.494   4.640  0.8421  2.7228 -0.5941
18770TIP3    H277802   4.962   6.458   4.784 -0.9369 -0.0034 -1.5390
18771TIP3   OH277803   0.849   6.162  13.390  0.3280 -0.0003  0.8381
18771TIP3    H177804   0.843   6.069  13.369 -1.9263  0.0584  0.9804
18771TIP3    H277805   0.825   6.206  13.308  2.1701  0.5312  0.5268
18772TIP3   OH277806   5.465   6.009  12.577  0.0683  0.1126 -0.3946
18772TIP3    H177807   5.467   5.913  12.583  1.4262  0.1551  0.2246
18772TIP3    H277808   5.540   6.031  12.521  0.3485  0.8555  0.2581
18773TIP3   OH277809   5.429   1.833   3.495 -0.4575 -0.2628  0.1773
18773TIP3    H177810   5.520   1.851   3.475  0.1554 -0.5794  2.3805
18773TIP3    H277811   5.430   1.803   3.586 -2.8910  1.1367  0.7768
18774TIP3   OH277812   6.127   2.161   3.548  0.0060  0.3431 -0.1253
18774TIP3    H177813   6.105   2.121   3.632  2.0022  0.8170  0.6831
18774TIP3    H277814   6.218   2.134   3.532 -1.1425 -2.1009 -3.5851
18775TIP3   OH277815   2.633   3.378   1.794 -0.4536 -0.3064  0.4012
18775TIP3    H177816   2.629   3.418   1.708  0.9701  0.4222  0.6413
18775TIP3    H277817   2.654   3.286   1.777 -0.9504 -0.3452 -0.0404
18776TIP3   OH277818   5.834   1.607  16.109  0.4188 -0.2594  0.0235
18776TIP3    H177819   5.862   1.675  16.047  1.7663 -0.6620  0.1569
18776TIP3    H277820   5.891   1.619  16.184  0.7653 -1.6265 -0.0035
18777TIP3   OH277821   2.863   6.240   1.115  0.0238 -0.4241 -0.1322
18777TIP3    H177822   2.822   6.303   1.056  0.0403  0.5509  0.8691
18777TIP3    H277823   2.929   6.290   1.162 -1.0554 -0.7393  1.8488
18778TIP3   OH277824   0.370   6.043  12.833 -0.0160 -0.0007  0.1305
18778TIP3    H177825   0.284   6.031  12.872 -1.5842 -1.5969 -3.3679
18778TIP3    H277826   0.418   5.962  12.854  0.5058  0.6728  1.6481
18779TIP3   OH277827   5.320   2.446   3.706 -0.1729 -0.1553 -0.0594
18779TIP3    H177828   5.267   2.376   3.744 -0.1152 -1.2357 -1.8601
18779TIP3    H277829   5.409   2.409   3.700  0.5854  1.2004  1.7909
18780TIP3   OH277830   3.943   0.879  16.021 -0.2488 -0.1005 -0.1028
18780TIP3    H177831   3.988   0.850  15.942  1.5857 -1.0285  1.2031
18780TIP3    H277832   3.880   0.809  16.039 -3.7396  1.9943 -2.8951
18781TIP3   OH277833   5.641   2.465  12.421 -0.1370 -0.3207  0.4657
18781TIP3    H177834   5.691   2.503  12.493 -1.5258  0.7537  0.8966
18781TIP3    H277835   5.708   2.431  12.361  1.0504 -0.8377  2.0193
18782TIP3   OH277836   0.080   2.206   0.093 -0.1575  0.1358 -0.5779
18782TIP3    H177837   0.110   2.266   0.025  1.9593 -0.8271 -0.5747
18782TIP3    H277838   0.123   2.123   0.072 -0.0875 -0.3938  1.4968
18783TIP3   OH277839   2.342   4.436   2.573  0.7030 -0.3439  0.4379
18783TIP3    H177840   2.257   4.435   2.617  0.7714 -1.6694  0.5779
18783TIP3    H277841   2.365   4.344   2.562  1.4185 -0.0320 -0.9785
18784TIP3   OH277842   3.205   5.507   3.507 -0.1742  0.1020  0.2697
18784TIP3    H177843   3.130   5.563   3.485 -0.6103 -0.7331 -0.4326
18784TIP3    H277844   3.167   5.420   3.516  0.3800  0.0227  2.0821
18785TIP3   OH277845   2.597   5.753  13.953 -0.3611  0.1305 -0.3096
18785TIP3    H177846   2.578   5.733  13.861 -1.6598  0.9376 -0.2479
18785TIP3    H277847   2.674   5.810  13.950  2.0447 -2.8668 -0.6132
18786TIP3   OH277848   5.468   2.397  12.723 -0.7626 -0.5127  0.1823
18786TIP3    H177849   5.429   2.426  12.640 -0.2347  3.6729  1.1653
18786TIP3    H277850   5.422   2.448  12.790  0.8606 -1.4993  2.1644
18787TIP3   OH277851   3.617   4.284  11.437 -0.0108  0.1380  0.4362
18787TIP3    H177852   3.687   4.326  11.387  1.3215 -1.7748  0.5779
18787TIP3    H277853   3.574   4.356  11.483  0.8538  1.5515 -0.8618
18788TIP3   OH277854   3.719   1.075   0.372  0.4951 -0.3280 -0.1749
18788TIP3    H177855   3.663   0.999   0.359  1.0724 -1.2849  2.2786
18788TIP3    H277856   3.803   1.050   0.334  0.7277 -1.0316  0.7531
18789TIP3   OH277857   0.498   6.543  16.616 -0.1560 -0.0575 -0.0565
18789TIP3    H177858   0.472   6.504  16.699 -1.0254 -1.0336 -0.7738
18789TIP3    H277859   0.423   6.530  16.559  1.4924 -2.1433 -1.9257
18790TIP3   OH277860   3.021   6.216  16.691  0.9211  0.3587 -0.3828
18790TIP3    H177861   2.960   6.261  16.633 -0.8123 -1.0569  0.2328
18790TIP3    H277862   3.003   6.251  16.778 -0.1649 -1.1157  0.0384
18791TIP3   OH277863   3.907   3.792  14.795  0.1607 -0.3521  0.0489
18791TIP3    H177864   3.943   3.805  14.707  1.4318 -0.5965  0.5083
18791TIP3    H277865   3.941   3.867  14.846 -4.2856  2.4868 -0.6570
18792TIP3   OH277866   1.594   3.867  15.776 -0.5933  0.1650  0.1679
18792TIP3    H177867   1.658   3.836  15.841 -1.5941 -2.1472  0.1626
18792TIP3    H277868   1.534   3.793  15.766 -1.1722  0.9179 -2.5037
18793TIP3   OH277869   3.568   3.350   5.204 -0.1977  0.1449  0.3627
18793TIP3    H177870   3.539   3.260   5.194  1.2024 -0.1477 -1.7019
18793TIP3    H277871   3.490   3.403   5.189 -1.0140 -0.6881  1.5290
18794TIP3   OH277872   2.100   1.592  16.691 -0.1815  0.0766 -0.3094
18794TIP3    H177873   2.035   1.625  16.629  1.6130  0.9402 -1.8617
18794TIP3    H277874   2.161   1.665  16.703  1.5289 -1.2511 -0.4295
18795TIP3   OH277875   3.273   6.779  11.117  0.0801  0.6483 -0.0528
18795TIP3    H177876   3.340   6.819  11.173 -1.0585  2.6712 -0.0191
18795TIP3    H277877   3.229   6.853  11.076  0.5656 -0.7485 -3.3738
18796TIP3   OH277878   5.101   5.785   0.999 -0.3834 -0.0171  0.2287
18796TIP3    H177879   5.070   5.776   0.909 -0.6595 -0.7639  0.3877
18796TIP3    H277880   5.031   5.746   1.052  0.7861 -1.7226  0.5976
18797TIP3   OH277881   6.748   0.662  14.100 -0.7285  0.5033  0.4464
18797TIP3    H177882   6.762   0.734  14.161 -1.3375  0.3124  0.8207
18797TIP3    H277883   6.753   0.703  14.013  0.5008  0.7118  0.6029
18798TIP3   OH277884   3.173   3.682   0.299  0.3667  0.0015 -0.1078
18798TIP3    H177885   3.193   3.679   0.392  1.3021 -1.6264 -0.3378
18798TIP3    H277886   3.184   3.592   0.268 -2.1180  0.0312 -1.3558
18799TIP3   OH277887   3.067   0.461  10.905  0.1699  0.1353  0.7898
18799TIP3    H177888   3.136   0.394  10.907  1.1463  1.1364  1.4499
18799TIP3    H277889   3.074   0.499  10.817  2.3194  2.0641  1.6949
18800TIP3   OH277890   3.937   3.611   4.989 -0.2677  0.1166 -0.5441
18800TIP3    H177891   3.977   3.545   5.046  2.9065  3.1289  1.0764
18800TIP3    H277892   3.987   3.605   4.908 -0.1240  0.4072 -0.4752
18801TIP3   OH277893   2.740   4.890   4.929  0.4566  0.6764  0.7294
18801TIP3    H177894   2.682   4.816   4.908 -0.2906  1.7735 -1.3044
18801TIP3    H277895   2.775   4.918   4.845  2.1820  1.5176  1.6805
18802TIP3   OH277896   5.988   5.405  15.330 -0.1755 -0.6854  0.1585
18802TIP3    H177897   5.915   5.466  15.317 -0.6037 -1.2051  0.1085
18802TIP3    H277898   5.963   5.352  15.405 -0.7413 -2.1569 -1.0245
18803TIP3   OH277899   5.114   2.312  17.130 -0.4378  0.4829 -0.0584
18803TIP3    H177900   5.146   2.304  17.040  1.1986 -0.3111  0.5595
18803TIP3    H277901   5.127   2.405  17.152 -1.2356  0.7720 -0.7591
18804TIP3   OH277902   3.006   0.015   0.149 -0.1742 -0.1935  0.0694
18804TIP3    H177903   2.980  -0.010   0.237 -0.5972 -0.0711 -0.0134
18804TIP3    H277904   2.962   0.099   0.134  0.0707 -0.1073 -0.1736
18805TIP3   OH277905   2.288   2.965  14.707 -0.5067  0.4888  0.7184
18805TIP3    H177906   2.279   3.020  14.629 -0.2125 -0.1288  0.2463
18805TIP3    H277907   2.203   2.922  14.715 -0.2759 -0.0590  0.2703
18806TIP3   OH277908   0.597   6.471  15.633  0.4040  0.1910 -0.1360
18806TIP3    H177909   0.609   6.378  15.654 -0.1278  0.1649  0.0814
18806TIP3    H277910   0.631   6.481  15.545  1.5467  0.0342  0.2750
18807TIP3   OH277911   4.740   2.685  12.846 -0.1101  0.1917  0.0760
18807TIP3    H177912   4.697   2.638  12.918 -1.0893  1.1789  0.1594
18807TIP3    H277913   4.720   2.632  12.769 -1.5287  0.6297  0.1111
18808TIP3   OH277914   0.462   1.692   3.545  0.3310 -0.2022  0.4896
18808TIP3    H177915   0.427   1.752   3.479  0.5590 -0.1387  0.4251
18808TIP3    H277916   0.530   1.743   3.590 -0.7209  0.2242  1.6730
18809TIP3   OH277917   5.246   0.731   4.583 -1.0838  0.1529 -0.1920
18809TIP3    H177918   5.253   0.799   4.517 -0.1259 -1.6400 -2.0382
18809TIP3    H277919   5.187   0.665   4.545 -0.5027 -0.9304  0.7093
18810TIP3   OH277920   4.048   5.200   3.395  0.0666 -0.3721 -0.3034
18810TIP3    H177921   4.132   5.189   3.439  0.0910  0.7030 -0.0525
18810TIP3    H277922   4.036   5.118   3.346  1.4103 -0.4052 -0.6226
18811TIP3   OH277923   3.906   0.882  14.799  0.5007  0.1051  0.3682
18811TIP3    H177924   3.925   0.968  14.838 -0.2827  0.5231 -0.1449
18811TIP3    H277925   3.870   0.903  14.713  1.5356 -0.7796 -0.3098
18812TIP3   OH277926   3.049   3.511  17.124 -0.2254  0.3106  0.1849
18812TIP3    H177927   3.018   3.440  17.180 -1.8230 -0.3205 -1.3909
18812TIP3    H277928   3.141   3.522  17.147  0.3512 -2.9420 -0.2051
18813TIP3   OH277929   4.848   4.864  12.374 -0.2465 -0.2769  0.2964
18813TIP3    H177930   4.941   4.888  12.380 -0.1218 -1.0772  1.8995
18813TIP3    H277931   4.846   4.791  12.312  0.1992 -0.2863  0.2904
18814TIP3   OH277932   3.384   4.219   4.355 -0.0288 -0.1280  0.2425
18814TIP3    H177933   3.445   4.184   4.290 -0.3537  0.0259 -0.1445
18814TIP3    H277934   3.438   4.277   4.409  0.6221 -1.5432  1.1767
18815TIP3   OH277935   5.394   2.528  10.549  0.0436 -0.0607 -0.0587
18815TIP3    H177936   5.375   2.618  10.524  0.6977  1.5216  4.2099
18815TIP3    H277937   5.312   2.495  10.585  0.0048 -0.9436 -0.9182
18816TIP3   OH277938   0.890   0.949   6.167  0.1409  0.2143  0.0574
18816TIP3    H177939   0.797   0.941   6.145 -0.2793  2.3537  0.7424
18816TIP3    H277940   0.928   0.997   6.093  0.5386 -0.0125  0.1146
18817TIP3   OH277941   6.755   1.311   5.580 -0.5811 -0.3361 -0.4330
18817TIP3    H177942   6.709   1.395   5.584  1.4102  0.8408 -0.7066
18817TIP3    H277943   6.777   1.301   5.487 -0.9451 -1.2689 -0.4305
18818TIP3   OH277944   3.970   5.970  12.123 -0.6147 -1.0216 -0.1182
18818TIP3    H177945   3.960   6.028  12.047 -0.9273 -2.2621 -1.0599
18818TIP3    H277946   4.060   5.982  12.152 -0.6670 -0.1064 -0.3206
18819TIP3   OH277947   2.903   1.202  14.861  0.2438 -0.2986  0.5610
18819TIP3    H177948   2.842   1.244  14.922  2.9798  0.3573  3.0567
18819TIP3    H277949   2.979   1.259  14.860  1.8658 -2.3611 -0.3693
18820TIP3   OH277950   4.887   2.413  11.189 -0.3045  0.0649 -0.1554
18820TIP3    H177951   4.793   2.419  11.168 -0.3257  1.4651  0.2236
18820TIP3    H277952   4.912   2.503  11.211  1.0026 -0.3976  0.3257
18821TIP3   OH277953   6.728   6.694   6.848 -0.2280 -0.4093  0.1905
18821TIP3    H177954   6.822   6.691   6.865 -0.2249 -0.9567  0.1125
18821TIP3    H277955   6.716   6.772   6.794  0.2201 -0.4751 -0.0107
18822TIP3   OH277956   6.334   1.809   1.791 -0.1049 -0.0925  0.0167
18822TIP3    H177957   6.413   1.756   1.780 -1.0769 -1.2388 -1.9863
18822TIP3    H277958   6.342   1.847   1.879  1.2449 -2.5350  1.0343
18823TIP3   OH277959   1.956   1.192   5.168  0.0231 -0.1200  0.2020
18823TIP3    H177960   1.930   1.211   5.078 -1.6182  1.2805  0.9035
18823TIP3    H277961   1.998   1.273   5.198  1.2400 -0.8321  0.5016
18824TIP3   OH277962   6.100   4.350   1.139  0.2813 -0.1840 -0.2072
18824TIP3    H177963   6.145   4.434   1.148  0.4049 -0.2849  0.1465
18824TIP3    H277964   6.144   4.307   1.066  2.3753 -1.2755  1.5678
18825TIP3   OH277965   0.797   0.588   2.045  0.5221  0.4078  0.2408
18825TIP3    H177966   0.857   0.515   2.059 -0.9870 -0.6359  1.6569
18825TIP3    H277967   0.736   0.556   1.978 -1.4274 -0.5855  2.3283
18826TIP3   OH277968   3.532   6.186   1.999  0.4582 -0.5667 -0.5159
18826TIP3    H177969   3.458   6.151   1.948 -0.5149  1.4631 -0.5861
18826TIP3    H277970   3.568   6.255   1.944  0.4013  0.5937  0.8578
18827TIP3   OH277971   2.764   0.982  14.194 -0.8067 -0.0897 -0.0042
18827TIP3    H177972   2.741   0.928  14.118 -1.7034  0.6083 -0.2442
18827TIP3    H277973   2.783   0.920  14.264 -1.8734 -0.7238 -0.2639
18828TIP3   OH277974   5.738   6.255   2.194  0.0924  0.0967  0.4237
18828TIP3    H177975   5.731   6.256   2.099 -0.0387 -1.3395  0.3919
18828TIP3    H277976   5.665   6.199   2.222 -0.2920  1.0666  1.4180
18829TIP3   OH277977   0.329   3.373   1.822 -0.4964  0.0986 -0.1417
18829TIP3    H177978   0.264   3.433   1.859 -0.1757  1.5226 -1.7269
18829TIP3    H277979   0.387   3.429   1.771  1.7443 -1.1937  0.8506
18830TIP3   OH277980   0.633   0.152  14.212  0.0921 -0.1055 -0.2721
18830TIP3    H177981   0.676   0.080  14.258 -0.0300 -0.6759 -1.0306
18830TIP3    H277982   0.667   0.147  14.122 -1.5922 -0.6457 -0.9321
18831TIP3   OH277983   1.683   4.017  15.368  0.6513 -0.9533  0.0099
18831TIP3    H177984   1.624   3.944  15.384 -0.1005 -0.4025 -0.1603
18831TIP3    H277985   1.668   4.076  15.442  0.1295 -0.2766 -0.6197
18832TIP3   OH277986   6.307   0.134  15.849 -0.0404 -0.4213 -0.3144
18832TIP3    H177987   6.377   0.147  15.784 -1.1913  2.5498 -1.1269
18832TIP3    H277988   6.324   0.200  15.916 -0.1165 -2.0323  1.3828
18833TIP3   OH277989   5.170   6.809   1.537 -0.0632  0.6582 -0.2846
18833TIP3    H177990   5.124   6.758   1.471  0.5774 -0.5133  0.1352
18833TIP3    H277991   5.114   6.806   1.615  1.3558 -2.2127  0.7809
18834TIP3   OH277992   0.970   5.734  11.689  0.6034 -0.6123 -0.3957
18834TIP3    H177993   0.957   5.811  11.744  0.9375  0.5217 -1.8504
18834TIP3    H277994   0.886   5.723  11.644  0.7647 -0.6950 -0.6782
18835TIP3   OH277995   4.315   3.424   5.502 -0.1504 -0.1125 -0.6723
18835TIP3    H177996   4.322   3.467   5.417 -0.8220  0.0987 -0.6204
18835TIP3    H277997   4.357   3.338   5.489 -0.4678 -0.1795 -1.2826
18836TIP3   OH277998   4.328   3.698  14.176 -0.0080 -0.6901  0.3544
18836TIP3    H177999   4.400   3.705  14.239  0.2672  0.8863 -0.0696
18836TIP3    H278000   4.355   3.630  14.115  1.3581  0.1709 -0.0426
18837TIP3   OH278001   6.615   3.991  15.707 -0.2520  0.0605  0.4600
18837TIP3    H178002   6.578   3.938  15.637  0.0773  0.9391 -0.4127
18837TIP3    H278003   6.552   4.061  15.720  0.7220  1.1869 -0.5723
18838TIP3   OH278004   6.677   3.868   1.232  0.1944 -0.0411 -0.4514
18838TIP3    H178005   6.640   3.783   1.252 -1.0136  0.3017 -1.1377
18838TIP3    H278006   6.681   3.871   1.136 -1.3417  1.2870 -0.5104
18839TIP3   OH278007   2.157   2.445  13.657 -0.4220  0.7656 -0.7779
18839TIP3    H178008   2.092   2.442  13.728 -0.0994 -2.1751 -0.4757
18839TIP3    H278009   2.106   2.428  13.577 -0.1287 -1.7481 -0.5194
18840TIP3   OH278010   1.591   1.736  12.777  0.7782 -0.0843 -0.0081
18840TIP3    H178011   1.610   1.719  12.685  1.0241 -1.0482  0.2124
18840TIP3    H278012   1.535   1.663  12.804 -0.3506  0.8589  0.2810
18841TIP3   OH278013   4.938   4.316   0.757  0.2571  0.0403 -0.1374
18841TIP3    H178014   4.988   4.290   0.834 -1.4505  0.7869  1.3041
18841TIP3    H278015   4.944   4.411   0.755  0.4389  0.0223 -1.0625
18842TIP3   OH278016   6.376   6.200   6.142  0.1392  0.4718 -0.6831
18842TIP3    H178017   6.399   6.293   6.148 -0.1140  0.4725  0.5222
18842TIP3    H278018   6.413   6.161   6.221 -0.9270 -0.1940 -0.4901
18843TIP3   OH278019   2.614   3.742   1.634  0.1017 -0.6890 -0.1298
18843TIP3    H178020   2.705   3.749   1.605  0.9382  2.3095  2.6016
18843TIP3    H278021   2.562   3.775   1.561  1.5458  0.9598 -0.4591
18844TIP3   OH278022   6.022   1.367  12.844  0.4240  0.0136  0.0669
18844TIP3    H178023   6.092   1.326  12.894  0.9208  0.0243 -0.6109
18844TIP3    H278024   6.054   1.455  12.825 -0.3101  0.4704  0.8431
18845TIP3   OH278025   5.633   2.463   0.175 -0.6127  0.8582 -0.2101
18845TIP3    H178026   5.588   2.538   0.214  0.2458  1.2440  0.0435
18845TIP3    H278027   5.681   2.500   0.101 -1.8251  0.2165 -1.3701
18846TIP3   OH278028   3.278   1.215  15.933 -0.4013  0.7972 -0.0522
18846TIP3    H178029   3.364   1.217  15.892 -1.3521  0.8718 -2.1513
18846TIP3    H278030   3.295   1.238  16.025  1.8697  0.1512 -0.2501
18847TIP3   OH278031   2.621   6.470   3.288  0.0605  0.2178  0.2321
18847TIP3    H178032   2.619   6.407   3.216 -2.4674  1.3258 -0.7667
18847TIP3    H278033   2.614   6.416   3.367  1.1790 -0.9055 -0.3953
18848TIP3   OH278034   1.148   0.506  14.556 -0.2057  0.2854  0.7239
18848TIP3    H178035   1.070   0.547  14.593 -0.0261 -0.5755  2.0934
18848TIP3    H278036   1.117   0.426  14.515  0.1037 -0.7635  2.4592
18849TIP3   OH278037   3.970   1.601   1.325 -0.0172 -0.5351  0.2283
18849TIP3    H178038   4.028   1.561   1.260  0.3018 -0.0526  0.2125
18849TIP3    H278039   3.903   1.645   1.273  1.7653  2.2157  0.0921
18850TIP3   OH278040   5.672   3.952   1.372 -0.1864  0.2131 -0.6496
18850TIP3    H178041   5.635   3.979   1.456 -3.4864 -1.3423 -1.3955
18850TIP3    H278042   5.668   4.031   1.317  1.8245  1.1873  0.5111
18851TIP3   OH278043   6.470   5.307   4.810  0.1925  0.1307  0.0614
18851TIP3    H178044   6.498   5.396   4.789  1.6691 -0.5896 -1.2963
18851TIP3    H278045   6.457   5.308   4.905 -1.6042  2.2128 -0.1146
18852TIP3   OH278046   3.514   4.952   2.597 -0.4370  0.2694 -0.0539
18852TIP3    H178047   3.427   4.917   2.614 -0.2898 -0.2090 -0.2767
18852TIP3    H278048   3.500   5.021   2.532 -0.5702 -0.2225 -0.5470
18853TIP3   OH278049   0.601   6.035   0.911  0.8045  0.7271  0.0258
18853TIP3    H178050   0.615   6.117   0.959  0.7069  1.1949 -0.7305
18853TIP3    H278051   0.644   6.048   0.827  0.4670  0.1423 -0.2494
18854TIP3   OH278052   3.966   5.740  15.483 -0.1440  0.4520 -0.9066
18854TIP3    H178053   4.015   5.816  15.451 -1.2905  1.6367  0.0450
18854TIP3    H278054   3.943   5.762  15.573 -0.0215 -1.2872 -0.4207
18855TIP3   OH278055   0.996   1.876  12.359 -0.8071 -0.3633  0.2062
18855TIP3    H178056   1.005   1.851  12.451  0.7946 -1.9068 -0.3217
18855TIP3    H278057   0.991   1.793  12.311  2.9258  0.1931 -1.4807
18856TIP3   OH278058   6.084   5.127  11.425  0.3132  0.0968 -0.3136
18856TIP3    H178059   6.141   5.055  11.452  3.1896  2.3054 -0.0582
18856TIP3    H278060   6.067   5.111  11.332 -1.1809 -2.1282  0.2654
18857TIP3   OH278061   4.652   0.749  11.515 -0.1193 -0.4948 -0.3181
18857TIP3    H178062   4.573   0.790  11.551 -0.0264 -1.2076  0.7515
18857TIP3    H278063   4.699   0.717  11.592  0.3942 -1.5381 -1.0477
18858TIP3   OH278064   3.619   5.633   4.086 -0.2479  0.3068 -0.0156
18858TIP3    H178065   3.651   5.718   4.116  0.0968  0.3589 -0.5246
18858TIP3    H278066   3.551   5.654   4.022 -0.3063  0.1979  0.0103
18859TIP3   OH278067   5.429   5.180  15.931  0.4624 -0.3511  0.2782
18859TIP3    H178068   5.365   5.231  15.881  1.6010 -0.6139 -1.5613
18859TIP3    H278069   5.463   5.242  15.996 -2.0489 -0.3894  1.7761
18860TIP3   OH278070   1.631   2.091  16.679  0.2309 -0.0554  0.3595
18860TIP3    H178071   1.650   2.184  16.688 -1.8052  0.4767 -0.3696
18860TIP3    H278072   1.677   2.065  16.599 -0.7471  0.8266 -0.5244
18861TIP3   OH278073   6.009   4.334   4.939 -0.3289  0.6493 -0.4211
18861TIP3    H178074   5.978   4.311   5.026 -0.0835 -0.9630 -0.7348
18861TIP3    H278075   5.930   4.344   4.887 -0.4436  0.3722 -0.3018
18862TIP3   OH278076   0.536   3.500  12.700  0.6185 -0.3052  0.1606
18862TIP3    H178077   0.474   3.543  12.641  2.5433  0.0255 -1.7642
18862TIP3    H278078   0.517   3.406  12.690 -0.1209 -0.1723  0.2653
18863TIP3   OH278079   4.857   3.540  16.954  0.3167  0.1203  0.3465
18863TIP3    H178080   4.909   3.526  17.033  0.3012  0.5281  0.4296
18863TIP3    H278081   4.767   3.553  16.986  0.5283  1.6323  0.3650
18864TIP3   OH278082   4.438   0.849   3.232 -0.5084  0.0841  0.3878
18864TIP3    H178083   4.432   0.753   3.239 -0.1306  0.1258  1.4331
18864TIP3    H278084   4.373   0.881   3.294  0.6684  0.4956  1.4550
18865TIP3   OH278085   5.161   0.904  12.539 -0.3364  0.2383  0.0605
18865TIP3    H178086   5.098   0.869  12.477  0.5042 -0.3713 -0.4782
18865TIP3    H278087   5.223   0.832  12.554  0.6765  1.0571 -0.0464
18866TIP3   OH278088   1.224   6.727   1.982  0.1648 -0.1382  0.2099
18866TIP3    H178089   1.314   6.696   1.985  0.1631 -0.1048  0.6912
18866TIP3    H278090   1.214   6.763   1.894  0.3247 -1.0266 -0.1898
18867TIP3   OH278091   0.928   0.436   1.532 -0.5664 -0.0112 -0.3725
18867TIP3    H178092   0.945   0.449   1.625  0.2354  0.4495 -0.5721
18867TIP3    H278093   0.972   0.510   1.489  0.4255 -1.0565 -1.2246
18868TIP3   OH278094   1.001   0.986  15.368  0.7474 -0.2317  0.5225
18868TIP3    H178095   0.917   1.029  15.357  0.4841 -0.7607  0.4397
18868TIP3    H278096   1.062   1.039  15.316  0.3541 -0.1906  0.1013
18869TIP3   OH278097   0.989   4.444   4.284  0.2442 -0.3448 -0.1980
18869TIP3    H178098   1.054   4.468   4.350  1.8576  0.4197 -1.9370
18869TIP3    H278099   1.040   4.437   4.203 -1.8804  0.4921 -1.6948
18870TIP3   OH278100   1.638   6.070  12.966  0.0190 -0.3796  0.3673
18870TIP3    H178101   1.685   6.089  12.885  0.3994  1.1771  0.9247
18870TIP3    H278102   1.672   6.133  13.029 -0.6545 -1.2199  1.6048
18871TIP3   OH278103   6.275   3.269  14.175 -0.1156  0.2208  0.3624
18871TIP3    H178104   6.249   3.350  14.219 -1.9189  0.6416 -1.3935
18871TIP3    H278105   6.356   3.292  14.130 -0.8553  1.2170 -0.5057
18872TIP3   OH278106   4.858   0.141   2.401  0.3657 -0.3861  0.4721
18872TIP3    H178107   4.814   0.126   2.485 -1.2423 -0.8441 -0.4146
18872TIP3    H278108   4.799   0.200   2.354  2.1041  1.3030  0.3068
18873TIP3   OH278109   6.426   2.099   3.694  0.0122  0.2021 -0.2991
18873TIP3    H178110   6.401   2.157   3.765 -0.7534 -0.3825 -0.0798
18873TIP3    H278111   6.522   2.103   3.693 -0.0324  1.9488 -0.7148
18874TIP3   OH278112   5.789   6.707   0.909  0.5916  0.2070 -0.2633
18874TIP3    H178113   5.818   6.790   0.946 -0.8774  1.1530 -1.1270
18874TIP3    H278114   5.775   6.726   0.816 -1.4238 -0.5282 -0.1559
18875TIP3   OH278115   4.012   1.241   1.522  0.4104 -0.1640 -0.0580
18875TIP3    H178116   4.098   1.281   1.518  0.9057 -1.1471  0.4257
18875TIP3    H278117   4.002   1.214   1.614 -0.1477 -0.6021 -0.2405
18876TIP3   OH278118   3.305   0.863   3.881  0.4780  0.3728  1.3423
18876TIP3    H178119   3.219   0.873   3.923  0.9060  5.4753  1.6542
18876TIP3    H278120   3.298   0.912   3.799  2.3706 -1.5508 -0.0907
18877TIP3   OH278121   1.534   2.577   3.933  0.0362  1.2571 -0.2955
18877TIP3    H178122   1.448   2.605   3.901 -0.0300 -0.0043 -1.2622
18877TIP3    H278123   1.520   2.558   4.026 -0.7375  1.0259 -0.4534
18878TIP3   OH278124   6.140   0.257  13.321  0.0843 -0.0438 -0.3211
18878TIP3    H178125   6.098   0.343  13.319  0.4185  0.1138 -0.5763
18878TIP3    H278126   6.083   0.204  13.378  0.0605  0.4345  0.1053
18879TIP3   OH278127   5.478   3.293  16.982  0.0775 -0.2570  0.1786
18879TIP3    H178128   5.563   3.251  16.981  0.4379  0.4332  1.1125
18879TIP3    H278129   5.496   3.386  16.996 -0.7979 -0.0227 -0.1292
18880TIP3   OH278130   6.666   0.281  10.794 -0.1336  0.0647 -0.3309
18880TIP3    H178131   6.601   0.250  10.731  0.7651 -1.3704 -0.5980
18880TIP3    H278132   6.750   0.267  10.751  0.4561  0.0204  0.7940
18881TIP3   OH278133   3.178   0.635   0.775 -0.9731  0.5956  0.1192
18881TIP3    H178134   3.259   0.585   0.781 -3.0421 -3.0826  0.2325
18881TIP3    H278135   3.169   0.656   0.682 -0.7799 -0.6206 -0.1792
18882TIP3   OH278136   3.831   1.814  13.485 -0.4781  0.4513 -0.6302
18882TIP3    H178137   3.825   1.843  13.394 -2.5289 -0.2573 -0.7761
18882TIP3    H278138   3.743   1.826  13.520 -0.3582 -1.5522  0.5173
18883TIP3   OH278139   1.817   3.781  15.574  0.1835  0.2334  0.5664
18883TIP3    H178140   1.724   3.795  15.590  0.4469  0.9571  1.5383
18883TIP3    H278141   1.857   3.867  15.586  0.6226  0.6265 -2.7532
18884TIP3   OH278142   1.891   6.542   3.174  0.2527 -0.0240  0.0511
18884TIP3    H178143   1.979   6.574   3.196  0.3710  0.2147 -0.7486
18884TIP3    H278144   1.904   6.486   3.098 -0.1887 -0.6588  0.4268
18885TIP3   OH278145   4.141   3.734   0.820  0.1251  0.1645 -0.0406
18885TIP3    H178146   4.182   3.817   0.846  2.1998 -0.9229  0.3267
18885TIP3    H278147   4.047   3.750   0.831  0.4944  2.2936  0.5044
18886TIP3   OH278148   5.931   1.715   5.732 -0.2076  0.2671 -0.3475
18886TIP3    H178149   5.914   1.735   5.640 -0.8458 -1.3290 -0.6053
18886TIP3    H278150   5.850   1.740   5.777 -1.0924 -1.7990 -0.7022
18887TIP3   OH278151   0.895   4.596  15.533  0.1629  0.1203  0.3212
18887TIP3    H178152   0.968   4.658  15.531  0.6619 -0.4093 -2.6879
18887TIP3    H278153   0.931   4.516  15.496 -1.3353 -0.9728  1.1190
18888TIP3   OH278154   4.468   3.034   0.480  0.0223 -0.3856 -0.1841
18888TIP3    H178155   4.432   3.010   0.395 -0.5282  0.8573 -0.3301
18888TIP3    H278156   4.506   3.121   0.466  0.8921 -0.6285  0.5778
18889TIP3   OH278157   6.665   0.416   0.216  0.2907 -0.0949 -0.2346
18889TIP3    H178158   6.653   0.496   0.267  2.4776  0.1495 -0.0167
18889TIP3    H278159   6.722   0.442   0.144  0.8919 -1.4114 -0.2625
18890TIP3   OH278160   1.174   1.406   4.955  0.2989  0.5360  0.0022
18890TIP3    H178161   1.144   1.371   5.039  1.9649 -1.2852 -0.0936
18890TIP3    H278162   1.095   1.407   4.900 -0.5945  0.7509  1.2528
18891TIP3   OH278163   6.112   3.776   3.478 -0.4557 -0.5956 -0.6280
18891TIP3    H178164   6.048   3.764   3.548  1.8767 -0.2254  1.7552
18891TIP3    H278165   6.161   3.855   3.504  2.4281 -2.1203 -0.9755
18892TIP3   OH278166   2.167   3.647  13.170 -0.1986  0.9436  0.2905
18892TIP3    H178167   2.140   3.724  13.120 -0.1291  0.1467 -1.0253
18892TIP3    H278168   2.107   3.578  13.141  1.5226 -0.2011 -0.7474
18893TIP3   OH278169   4.518   3.883   2.397  0.5694 -0.3168  0.1811
18893TIP3    H178170   4.507   3.945   2.325  1.8464  0.5757  0.7075
18893TIP3    H278171   4.498   3.934   2.476 -0.7320 -1.2583  0.4894
18894TIP3   OH278172   1.958   2.109   5.251 -0.3361 -0.1803 -0.2747
18894TIP3    H178173   1.920   2.195   5.267 -0.0991 -0.2713  0.8732
18894TIP3    H278174   2.046   2.114   5.289  0.1314 -0.5519 -1.2794
18895TIP3   OH278175   5.428   3.434  13.444  0.0604  0.1843 -0.0050
18895TIP3    H178176   5.360   3.396  13.499  0.0448  1.9223  1.2464
18895TIP3    H278177   5.457   3.512  13.491  0.4123  1.4883 -2.2338
18896TIP3   OH278178   6.662   1.744  12.798  0.4197 -0.0047 -0.2045
18896TIP3    H178179   6.714   1.691  12.858 -0.5836 -0.1881  0.5274
18896TIP3    H278180   6.578   1.755  12.842 -0.0275  0.6271 -1.1779
18897TIP3   OH278181   6.476   0.632  14.518 -0.0926  0.6837 -0.0771
18897TIP3    H178182   6.447   0.541  14.509 -0.1381  0.4480  1.9752
18897TIP3    H278183   6.412   0.671  14.577  1.3947  1.2931  1.2017
18898TIP3   OH278184   6.347   2.192   3.350  0.8264 -0.8977 -0.2845
18898TIP3    H178185   6.367   2.279   3.386 -1.1837 -0.6025  0.2944
18898TIP3    H278186   6.378   2.195   3.260 -0.4738  1.0077 -0.7465
18899TIP3   OH278187   3.536   5.141  16.806  0.7803 -0.4129  0.2033
18899TIP3    H178188   3.506   5.082  16.876 -0.7883  1.7590  1.5018
18899TIP3    H278189   3.488   5.111  16.728 -1.7065  0.3891  1.3181
18900TIP3   OH278190   4.928   4.337   1.440 -0.6389 -0.4609  0.4429
18900TIP3    H178191   4.935   4.287   1.521  0.3812  1.4411  1.6093
18900TIP3    H278192   4.940   4.428   1.467  1.1889  0.1327 -2.0171
18901TIP3   OH278193   0.123   5.181  16.233 -0.1781 -0.3805 -0.2547
18901TIP3    H178194   0.175   5.261  16.223 -0.2898 -0.1319  1.0444
18901TIP3    H278195   0.104   5.176  16.326  1.6284 -3.0383  0.0934
18902TIP3   OH278196   6.431   4.741  13.680 -0.1824  0.3284 -0.6693
18902TIP3    H178197   6.464   4.830  13.673 -0.7194  0.5550 -0.3804
18902TIP3    H278198   6.336   4.749  13.671 -0.4332  0.0218  1.1596
18903TIP3   OH278199   2.396   4.474   3.954  0.0652 -0.0380  0.1379
18903TIP3    H178200   2.397   4.379   3.943 -1.6161 -0.4967  2.8602
18903TIP3    H278201   2.423   4.509   3.869 -1.3902 -2.9108 -1.6603
18904TIP3   OH278202   0.654   3.241   6.097 -0.1834  0.4522  0.1938
18904TIP3    H178203   0.585   3.253   6.162  0.4421 -0.3625  1.0375
18904TIP3    H278204   0.677   3.330   6.069 -1.1181  0.7613  0.3703
18905TIP3   OH278205   5.512   4.998  13.494  0.2575  0.3762 -0.4059
18905TIP3    H178206   5.436   5.029  13.544  0.1215 -0.8276  0.1693
18905TIP3    H278207   5.504   4.903  13.495  2.0411  0.2082  0.0704
18906TIP3   OH278208   1.007   0.999   4.365  0.2247  0.5663 -1.0349
18906TIP3    H178209   0.972   1.023   4.451  2.7832 -1.6968  0.8113
18906TIP3    H278210   0.939   0.944   4.326 -0.1961 -0.0261  0.4517
18907TIP3   OH278211   5.890   3.998   5.933 -0.0475 -0.1305 -0.1820
18907TIP3    H178212   5.972   3.957   5.905 -0.8644 -1.5648 -0.5860
18907TIP3    H278213   5.823   3.931   5.916 -1.4275  1.3432 -0.7275
18908TIP3   OH278214   0.973   0.432  14.308 -0.0582  0.2217 -0.3572
18908TIP3    H178215   0.985   0.526  14.301 -0.5239  0.2409 -1.0010
18908TIP3    H278216   1.058   0.395  14.284 -0.0916  0.4584 -0.8519
18909TIP3   OH278217   4.807   4.204  13.117 -0.1109  0.4775  0.8155
18909TIP3    H178218   4.748   4.135  13.147  0.2662  0.0934  0.6904
18909TIP3    H278219   4.784   4.280  13.169 -1.2712  0.5702  0.2017
18910TIP3   OH278220   1.953   6.110   4.384 -0.0349  0.6664 -0.2150
18910TIP3    H178221   1.942   6.020   4.414 -1.5628  0.6224 -0.8394
18910TIP3    H278222   2.038   6.137   4.419  0.1763 -0.8171  0.4644
18911TIP3   OH278223   5.850   1.844  11.905  0.0125 -0.1453  0.0625
18911TIP3    H178224   5.765   1.878  11.878 -0.1451 -1.7727 -1.7059
18911TIP3    H278225   5.830   1.770  11.963  0.2803  0.4184  0.8994
18912TIP3   OH278226   1.779   0.364   0.293 -0.0917 -0.3445 -0.4149
18912TIP3    H178227   1.804   0.322   0.375  0.0088  1.1067  0.3440
18912TIP3    H278228   1.792   0.458   0.310 -2.0929  0.1483 -1.3808
18913TIP3   OH278229   5.818   2.508   4.892  0.0147 -0.3459 -0.0182
18913TIP3    H178230   5.738   2.492   4.943 -0.4453 -0.1017 -0.6482
18913TIP3    H278231   5.885   2.457   4.937 -0.3651 -0.0959  0.8593
18914TIP3   OH278232   4.421   3.666  16.862 -0.2145  0.1104 -0.2455
18914TIP3    H178233   4.388   3.736  16.918 -0.0096 -0.7644  1.0351
18914TIP3    H278234   4.459   3.710  16.787 -3.2754  1.2110 -1.2743
18915TIP3   OH278235   2.097   4.631  11.988  0.7981 -0.4279  0.3164
18915TIP3    H178236   2.144   4.566  11.936  0.7511 -1.3660  1.4028
18915TIP3    H278237   2.165   4.688  12.023  0.8220  0.2722 -0.8278
18916TIP3   OH278238   1.716   2.607   1.598  0.0173  0.1190  0.3861
18916TIP3    H178239   1.650   2.630   1.532  0.5167 -0.3502 -0.2818
18916TIP3    H278240   1.755   2.526   1.567  0.4338  0.0180  1.1390
18917TIP3   OH278241   2.843   6.808   2.131 -0.4268  0.1638  0.2069
18917TIP3    H178242   2.844   6.856   2.214  0.0651  0.5012  0.0126
18917TIP3    H278243   2.782   6.857   2.076  0.1663  0.6533 -0.0316
18918TIP3   OH278244   3.923   2.892  16.677  0.2098 -0.3076  0.0176
18918TIP3    H178245   3.910   2.830  16.748 -0.8251  0.8406  0.8738
18918TIP3    H278246   4.000   2.943  16.703  0.2775 -0.3769 -0.0481
18919TIP3   OH278247   3.837   5.601   1.221 -0.0650 -0.4789  0.4713
18919TIP3    H178248   3.877   5.536   1.165 -1.2912 -1.2756  0.4809
18919TIP3    H278249   3.863   5.577   1.310  1.3541  0.4094  0.3165
18920TIP3   OH278250   1.431   2.059  15.762  0.2241  0.0779 -0.0129
18920TIP3    H178251   1.381   2.109  15.826 -1.2280 -1.4438  0.1221
18920TIP3    H278252   1.491   2.123  15.723 -0.5742  1.5832  1.1078
18921TIP3   OH278253   6.084   0.843  14.516 -0.2015  0.1644 -1.0923
18921TIP3    H178254   6.146   0.892  14.462 -1.0410  3.5109  0.6576
18921TIP3    H278255   6.064   0.903  14.589 -3.5074 -1.7704 -0.2027
18922TIP3   OH278256   4.007   3.440  11.911 -0.2366  0.2989  0.1040
18922TIP3    H178257   3.941   3.499  11.874  0.2007  0.9400  0.3166
18922TIP3    H278258   3.979   3.426  12.001 -0.1858  0.4150  0.1382
18923TIP3   OH278259   2.468   6.561  12.318 -0.1006  0.5982 -0.0025
18923TIP3    H178260   2.542   6.565  12.259  0.3932 -1.7646  0.3341
18923TIP3    H278261   2.398   6.519  12.267 -0.2887  0.2849  0.4944
18924TIP3   OH278262   3.837   4.427  14.211 -0.3802 -1.1225 -0.0950
18924TIP3    H178263   3.932   4.416  14.207 -0.0334  1.6239 -1.9472
18924TIP3    H278264   3.819   4.504  14.157 -3.5918 -0.9657  0.9805
18925TIP3   OH278265   6.258   0.189  13.083 -0.1015  0.1459  0.5469
18925TIP3    H178266   6.175   0.143  13.085 -0.7794  1.3310  0.5885
18925TIP3    H278267   6.259   0.240  13.165  1.5188 -1.2717  1.4950
18926TIP3   OH278268   3.889   6.706  13.780 -0.1413  0.2942 -0.1477
18926TIP3    H178269   3.822   6.715  13.711  0.0077  0.9212 -0.2193
18926TIP3    H278270   3.943   6.785  13.771 -1.3767  1.4875  2.0349
18927TIP3   OH278271   2.904   3.990   3.186 -0.1293 -0.3228  0.0556
18927TIP3    H178272   2.890   3.970   3.279 -1.2749  0.2285  0.0220
18927TIP3    H278273   2.842   4.060   3.167 -0.5181 -1.0040 -1.3410
18928TIP3   OH278274   0.332   1.328  14.613 -0.0201 -0.0005  0.2257
18928TIP3    H178275   0.384   1.400  14.648 -2.2268  1.7880  0.0128
18928TIP3    H278276   0.394   1.255  14.607  1.6082  0.9761  3.1972
18929TIP3   OH278277   5.101   1.034   3.873  0.5718  0.1903  0.4175
18929TIP3    H178278   5.157   1.005   3.801 -0.3428 -0.9874  0.1360
18929TIP3    H278279   5.091   0.956   3.928 -0.4315  0.4914  0.6810
18930TIP3   OH278280   3.933   0.970  16.292 -0.7488  0.3115  0.2392
18930TIP3    H178281   3.878   0.893  16.310 -2.6909  1.4252 -0.6193
18930TIP3    H278282   3.927   0.982  16.197 -0.4008  1.4756  0.3524
18931TIP3   OH278283   6.761   5.412   5.090 -0.5027 -0.0892  0.1326
18931TIP3    H178284   6.795   5.332   5.050  0.7145  0.2117  0.4936
18931TIP3    H278285   6.791   5.407   5.181  0.7401  1.3543 -0.1422
18932TIP3   OH278286   1.677   5.407   3.927 -0.0595  0.2477  0.2418
18932TIP3    H178287   1.639   5.426   4.013  1.4169 -1.3894  1.3147
18932TIP3    H278288   1.610   5.354   3.884 -1.1739  1.7786 -0.0149
18933TIP3   OH278289   5.073   3.462   1.584  0.2985 -0.0037  0.5937
18933TIP3    H178290   5.151   3.483   1.636  0.5621 -0.0466  0.2225
18933TIP3    H278291   5.059   3.368   1.599 -1.3619  0.5350  2.9011
18934TIP3   OH278292   0.137   1.931   3.127  0.5112 -0.0288  0.1122
18934TIP3    H178293   0.117   1.875   3.201  0.3595  1.0182  0.8911
18934TIP3    H278294   0.078   2.006   3.136  0.6482  0.2272 -0.9390
18935TIP3   OH278295   0.603   6.125   2.629 -0.0958  0.1405 -0.0050
18935TIP3    H178296   0.624   6.217   2.646  2.3347 -0.4146  0.3808
18935TIP3    H278297   0.688   6.084   2.613 -1.0688 -2.1547  0.3656
18936TIP3   OH278298   1.796   3.731  15.208 -0.5331  0.7225  0.3503
18936TIP3    H178299   1.828   3.663  15.268 -1.7061 -0.2954 -0.1469
18936TIP3    H278300   1.701   3.728  15.216 -0.6894  0.9937 -1.0964
18937TIP3   OH278301   0.537   1.634   1.756 -0.0196  0.8040  0.4399
18937TIP3    H178302   0.567   1.628   1.846  0.1691  1.0362  0.3920
18937TIP3    H278303   0.572   1.718   1.724  0.7194  0.2882 -0.1446
18938TIP3   OH278304   2.526   0.405   2.750 -0.7601 -0.0872 -0.1050
18938TIP3    H178305   2.599   0.446   2.797 -0.0909  0.1673 -1.3160
18938TIP3    H278306   2.513   0.321   2.794 -1.1781  0.7825  1.4878
18939TIP3   OH278307   0.444   5.783   3.593 -0.1908 -0.2267 -0.1669
18939TIP3    H178308   0.387   5.724   3.544  0.0996  0.0769 -0.8800
18939TIP3    H278309   0.406   5.785   3.681 -0.7241 -0.7685 -0.3764
18940TIP3   OH278310   2.104   6.504  15.057  0.9326  0.0789  0.9077
18940TIP3    H178311   2.168   6.510  15.128  0.3039  0.2100  1.4712
18940TIP3    H278312   2.059   6.421  15.071 -1.4325  1.5291  2.6356
18941TIP3   OH278313   0.111   0.977  13.549 -0.4352  0.1812 -0.3161
18941TIP3    H178314   0.079   1.036  13.480 -1.1024  0.3953  0.1585
18941TIP3    H278315   0.164   1.034  13.605  0.0083  0.0330 -0.5799
18942TIP3   OH278316   5.679   2.402  14.205  0.2549  0.0100  0.1753
18942TIP3    H178317   5.643   2.483  14.169  0.7473 -0.3690 -1.2273
18942TIP3    H278318   5.605   2.342  14.208 -0.3676  0.7794  2.2283
18943TIP3   OH278319   2.682   6.740  11.020  0.5013  0.1264 -0.2485
18943TIP3    H178320   2.617   6.810  11.012 -0.0448 -0.3916 -0.4328
18943TIP3    H278321   2.714   6.727  10.931  0.1605 -0.2696 -0.3140
18944TIP3   OH278322   6.708   2.221   3.425 -0.3763  0.6981  0.3546
18944TIP3    H178323   6.762   2.146   3.451 -0.5233  0.3179 -0.3943
18944TIP3    H278324   6.618   2.192   3.439 -0.4452  0.6160 -0.2010
18945TIP3   OH278325   6.474   1.182  12.391  0.1537 -0.2205 -0.1462
18945TIP3    H178326   6.554   1.133  12.413  0.4728 -1.0228 -2.7816
18945TIP3    H278327   6.405   1.116  12.387 -0.2787  0.1938  0.3115
18946TIP3   OH278328   1.189   2.645  12.442  0.4353 -0.0467 -0.0445
18946TIP3    H178329   1.230   2.575  12.391  0.5473 -0.1986  0.2515
18946TIP3    H278330   1.143   2.599  12.512 -1.6964 -0.0066 -1.3511
18947TIP3   OH278331   6.184   3.412   4.442  0.4596 -0.0530  0.0553
18947TIP3    H178332   6.224   3.401   4.356  0.4608 -0.7918  0.1413
18947TIP3    H278333   6.089   3.407   4.426  0.4734 -0.9995  0.1847
18948TIP3   OH278334   3.769   0.818   1.213 -0.4451 -0.1135 -0.1473
18948TIP3    H178335   3.675   0.830   1.225  0.0138  2.5876  1.3852
18948TIP3    H278336   3.793   0.881   1.145  0.1627 -1.4360 -1.2143
18949TIP3   OH278337   1.607   2.129  13.926 -0.1825 -0.1635  0.1695
18949TIP3    H178338   1.525   2.097  13.962 -0.4757 -0.1362 -0.4561
18949TIP3    H278339   1.597   2.119  13.831 -0.0976  1.2876 -0.0285
18950TIP3   OH278340   6.117   1.525   2.518  0.9031 -0.5689 -0.0199
18950TIP3    H178341   6.163   1.595   2.564  2.7658 -0.8281 -1.3380
18950TIP3    H278342   6.120   1.451   2.579 -0.9938  0.3981  1.3406
18951TIP3   OH278343   3.548   3.183   0.780  0.4621  0.5658 -0.3124
18951TIP3    H178344   3.590   3.244   0.841  0.4456 -0.2724  0.5589
18951TIP3    H278345   3.455   3.188   0.801  0.3883  0.6739 -0.6482
18952TIP3   OH278346   1.864   1.803  12.869 -0.7376  0.8048 -0.0531
18952TIP3    H178347   1.778   1.772  12.841 -1.2817  1.5214  0.7437
18952TIP3    H278348   1.852   1.898  12.882  0.0741  0.8561  0.3907
18953TIP3   OH278349   0.330   4.245  14.281  0.1272 -0.3859  0.4184
18953TIP3    H178350   0.409   4.196  14.257  1.0416  0.9945  0.5458
18953TIP3    H278351   0.343   4.269  14.372 -0.4034 -0.0564  0.4116
18954TIP3   OH278352   3.180   6.717   2.303 -0.2771  0.6921  0.2736
18954TIP3    H178353   3.266   6.686   2.329 -0.1254 -1.2775 -2.2076
18954TIP3    H278354   3.196   6.777   2.230 -1.0045 -0.2376 -0.6765
18955TIP3   OH278355   4.841   1.274  12.501  0.0429 -0.0170 -0.4519
18955TIP3    H178356   4.764   1.218  12.494 -0.3966  0.7037 -1.9141
18955TIP3    H278357   4.808   1.362  12.488  0.6665  0.6884  2.1690
18956TIP3   OH278358   2.368   2.677   1.616 -0.2254 -0.2707 -0.2850
18956TIP3    H178359   2.360   2.741   1.545 -0.2900  0.7141  0.6039
18956TIP3    H278360   2.312   2.710   1.685 -0.2206 -1.2717  0.2116
18957TIP3   OH278361   1.544   5.464   2.064  0.3229  0.4920 -0.1907
18957TIP3    H178362   1.584   5.503   2.141  1.2733 -1.1284  0.1869
18957TIP3    H278363   1.618   5.429   2.014 -0.5099 -2.2496  0.3317
18958TIP3   OH278364   2.076   0.753  16.467  0.6858 -0.7987  0.2342
18958TIP3    H178365   2.046   0.666  16.438  2.7705 -1.5532  0.1792
18958TIP3    H278366   2.127   0.736  16.546 -0.3073  0.6117  1.2215
18959TIP3   OH278367   6.760   1.725  12.275 -0.4204 -0.9610 -0.0332
18959TIP3    H178368   6.694   1.730  12.345 -1.7797  1.5873 -1.3420
18959TIP3    H278369   6.719   1.769  12.201  1.5948 -2.1487 -1.9622
18960TIP3   OH278370   4.205   4.065  16.550  0.1011  0.3972 -0.1794
18960TIP3    H178371   4.197   4.080  16.644 -0.5813 -1.0122  0.0142
18960TIP3    H278372   4.207   4.153  16.511  3.1123  1.1192  1.3052
18961TIP3   OH278373   2.777   4.275   5.297 -0.1618 -0.2599 -0.3124
18961TIP3    H178374   2.871   4.261   5.307  0.1391 -0.1729 -2.4767
18961TIP3    H278375   2.741   4.188   5.281 -0.2926 -0.1718 -0.5031
18962TIP3   OH278376   0.280   6.214  16.261  0.5071 -0.7744 -0.6453
18962TIP3    H178377   0.313   6.196  16.349 -0.3058 -0.1876 -0.1998
18962TIP3    H278378   0.344   6.174  16.202  1.8351  0.0665  0.1721
18963TIP3   OH278379   2.897   1.032  11.743 -0.5810 -0.3654  0.5590
18963TIP3    H178380   2.832   0.980  11.695 -0.3319 -0.0781 -0.1146
18963TIP3    H278381   2.922   1.101  11.681 -0.0825 -0.1124  1.0307
18964TIP3   OH278382   1.145   1.016   6.001  0.2744 -0.3096 -0.5286
18964TIP3    H178383   1.184   0.977   6.080 -0.1101  0.4017  0.0317
18964TIP3    H278384   1.099   0.944   5.959 -1.4937 -0.2551  1.1598
18965TIP3   OH278385   0.118   2.321  13.007 -0.0821 -0.6846 -0.2050
18965TIP3    H178386   0.131   2.243  12.954 -2.1169 -0.4703 -1.1093
18965TIP3    H278387   0.103   2.391  12.944  0.5295  0.2201  0.6176
18966TIP3   OH278388   0.499   4.601  17.146  0.1310 -0.8252  0.8936
18966TIP3    H178389   0.577   4.551  17.169  1.4966  1.0742  0.6160
18966TIP3    H278390   0.502   4.678  17.203 -0.5846  0.1479 -0.3474
18967TIP3   OH278391   0.580   1.978   3.080 -0.1520 -0.0100 -1.1450
18967TIP3    H178392   0.536   2.021   3.153  1.4923 -2.2726  1.4026
18967TIP3    H278393   0.605   2.049   3.022 -1.8226  1.8993  0.3311
18968TIP3   OH278394   2.608   4.412  14.488 -0.2103  0.5884  0.1650
18968TIP3    H178395   2.677   4.475  14.509  0.2700 -0.3863  1.6966
18968TIP3    H278396   2.547   4.461  14.432  0.2010  2.3707  1.1929
18969TIP3   OH278397   0.598   6.487  11.917 -0.0910 -0.0998 -0.1051
18969TIP3    H178398   0.502   6.492  11.911 -0.0719 -0.1158 -0.4621
18969TIP3    H278399   0.628   6.576  11.900  0.0028 -0.3018 -1.0180
18970TIP3   OH278400   4.086   3.576  15.469 -0.4262  0.8295 -0.1947
18970TIP3    H178401   4.055   3.486  15.482  2.4210  0.0680  2.5244
18970TIP3    H278402   4.047   3.625  15.542  1.2624  0.8007  0.7647
18971TIP3   OH278403   0.747   2.007   5.524 -0.0268 -0.2692  0.0109
18971TIP3    H178404   0.678   2.060   5.564  1.7521  1.2296  1.2783
18971TIP3    H278405   0.750   2.037   5.433 -0.3821  0.3909  0.2083
18972TIP3   OH278406   6.468   5.888   1.673  0.2295  0.3974 -0.8116
18972TIP3    H178407   6.411   5.817   1.641 -1.8242  2.1566 -1.2974
18972TIP3    H278408   6.407   5.956   1.702  2.1100  1.3477  1.1684
18973TIP3   OH278409   5.728   2.378   2.383 -0.1312 -0.1098 -0.3263
18973TIP3    H178410   5.645   2.417   2.413  0.6068  0.6656  0.7625
18973TIP3    H278411   5.715   2.284   2.392 -1.5231 -0.1089 -1.8625
18974TIP3   OH278412   0.581   2.995  13.222 -0.2197 -0.7580  0.4477
18974TIP3    H178413   0.527   2.984  13.144  0.3178 -0.6601  0.0540
18974TIP3    H278414   0.575   2.911  13.267 -0.6477 -0.7684  0.3755
18975TIP3   OH278415   1.933   2.796   1.701 -0.0984  0.7298 -0.3480
18975TIP3    H178416   2.020   2.754   1.702 -0.7600 -0.7595  1.8879
18975TIP3    H278417   1.881   2.741   1.642 -0.0777  0.3420 -0.0109
18976TIP3   OH278418   3.278   4.692  11.392 -0.5524 -0.5266 -0.1407
18976TIP3    H178419   3.339   4.738  11.334  1.8669 -2.7823  0.3930
18976TIP3    H278420   3.276   4.745  11.471 -1.8896  1.2510 -1.3042
18977TIP3   OH278421   1.860   1.482   5.504 -0.5600 -0.2025  0.1423
18977TIP3    H178422   1.772   1.512   5.482 -0.7645 -0.9417 -0.0789
18977TIP3    H278423   1.889   1.541   5.573 -1.3358 -0.1266  0.4125
18978TIP3   OH278424   0.351   5.255   5.960  0.0625 -0.3842 -0.6952
18978TIP3    H178425   0.296   5.198   6.013 -2.1047  1.5705 -0.6979
18978TIP3    H278426   0.348   5.217   5.872  0.1908 -1.2904 -0.3112
18979TIP3   OH278427   0.011   6.230  14.475 -0.1260  0.1525 -0.8669
18979TIP3    H178428  -0.046   6.269  14.410  0.7229  0.6322 -1.3479
18979TIP3    H278429  -0.028   6.144  14.494 -0.3278 -0.0421 -2.0859
18980TIP3   OH278430   6.647   6.007  14.390 -0.1676 -0.1428  0.0334
18980TIP3    H178431   6.631   6.001  14.295 -2.2035  1.2248  0.2220
18980TIP3    H278432   6.640   5.917  14.421 -0.5939 -0.4759 -0.9745
18981TIP3   OH278433   5.481   2.750   5.184 -0.1681 -0.4956  0.0805
18981TIP3    H178434   5.395   2.791   5.187 -0.0948 -0.2076 -1.0906
18981TIP3    H278435   5.489   2.719   5.094  1.4407  0.5645 -0.1880
18982TIP3   OH278436   0.346   3.215   3.132  0.0177 -0.8849 -0.3707
18982TIP3    H178437   0.436   3.214   3.099  0.4573  1.0153  0.5986
18982TIP3    H278438   0.318   3.306   3.121 -1.8325 -1.4459 -0.7153
18983TIP3   OH278439   0.239   6.602  15.700 -0.0681  0.4833  0.3868
18983TIP3    H178440   0.294   6.634  15.629  1.0780 -2.4794 -0.2007
18983TIP3    H278441   0.299   6.592  15.774 -0.4489  0.0507  0.6458
18984TIP3   OH278442   5.986   4.913   2.031  0.0876 -0.4011  0.1558
18984TIP3    H178443   5.906   4.882   2.073  0.8112  2.6993  4.5171
18984TIP3    H278444   6.051   4.847   2.053 -0.5548 -1.2687 -0.4775
18985TIP3   OH278445   1.880   2.717  13.184  0.1087  0.1008 -0.0990
18985TIP3    H178446   1.851   2.634  13.146  0.4017  0.2384 -0.6313
18985TIP3    H278447   1.799   2.765  13.199 -0.1251 -0.5509  0.8900
18986TIP3   OH278448   4.782   6.725   3.606 -0.4212  0.6864  0.1951
18986TIP3    H178449   4.872   6.722   3.575 -0.8898  0.8122 -1.2585
18986TIP3    H278450   4.753   6.815   3.587 -0.9482  0.5516  0.3397
18987TIP3   OH278451   6.269   2.206  10.512  0.0998 -0.1688  0.5432
18987TIP3    H178452   6.346   2.190  10.457  0.1748  0.7892  0.3412
18987TIP3    H278453   6.197   2.165  10.466  0.1490  0.6913 -0.3227
18988TIP3   OH278454   3.264   0.146   4.282  0.4540  0.0357 -0.1778
18988TIP3    H178455   3.351   0.134   4.246  0.7273  0.1437  0.4257
18988TIP3    H278456   3.206   0.099   4.222  0.9919 -0.5244 -0.2686
18989TIP3   OH278457   6.034   0.665   5.649  1.1312  0.3612 -0.1984
18989TIP3    H178458   6.058   0.757   5.658  0.1192  0.5524  0.6899
18989TIP3    H278459   5.969   0.664   5.579 -0.4279  0.6402  1.1964
18990TIP3   OH278460   3.259   2.896   1.555  0.3477  0.4408  0.3014
18990TIP3    H178461   3.280   2.889   1.461  0.8723 -0.8996  0.5046
18990TIP3    H278462   3.318   2.834   1.597  1.1896  2.1167  1.7086
18991TIP3   OH278463   0.192   2.443  13.426  0.7409 -0.3018 -0.1409
18991TIP3    H178464   0.257   2.513  13.420  1.2887 -0.9149 -1.8544
18991TIP3    H278465   0.108   2.487  13.420  0.8686  0.5964  2.8828
18992TIP3   OH278466   3.735   2.988  13.624 -0.2663  0.5333  0.3964
18992TIP3    H178467   3.785   3.023  13.699  0.9383 -2.4875  1.1442
18992TIP3    H278468   3.645   2.985  13.656 -0.5703  3.3259  0.0739
18993TIP3   OH278469   4.145   0.727  16.984  0.2034 -0.2471 -0.1210
18993TIP3    H178470   4.056   0.694  16.994 -0.6859  2.1816  0.6799
18993TIP3    H278471   4.149   0.760  16.894  0.3828 -0.5882 -0.2388
18994TIP3   OH278472   5.711   3.182  17.013  0.0155 -0.5328 -0.5706
18994TIP3    H178473   5.706   3.218  17.102  2.2415  2.2198 -1.3911
18994TIP3    H278474   5.755   3.097  17.024  0.4456 -0.1492  0.9520
18995TIP3   OH278475   4.294   1.384   2.705  0.1527 -0.0093 -0.7981
18995TIP3    H178476   4.316   1.303   2.752 -0.4224 -0.4217 -1.2309
18995TIP3    H278477   4.323   1.454   2.764  0.7649 -0.5245 -0.4684
18996TIP3   OH278478   0.799   1.175  11.330 -0.6243 -0.0125 -0.0203
18996TIP3    H178479   0.891   1.149  11.335 -0.8689 -1.2273 -1.1081
18996TIP3    H278480   0.799   1.251  11.273 -0.3125 -0.1552 -0.2149
18997TIP3   OH278481   6.387   4.813  15.618 -0.5729  0.5309  0.1204
18997TIP3    H178482   6.397   4.754  15.693 -1.5369  1.2183  0.8027
18997TIP3    H278483   6.420   4.897  15.649 -1.0043  0.8264 -0.2122
18998TIP3   OH278484   1.780   0.180  16.346  0.1864  0.0889  0.0794
18998TIP3    H178485   1.815   0.217  16.266  0.8132  0.7962  0.6607
18998TIP3    H278486   1.732   0.252  16.388 -0.7684 -0.4730 -0.0083
18999TIP3   OH278487   0.088   3.325   0.554 -0.1869  0.4391  0.2307
18999TIP3    H178488   0.071   3.242   0.599 -1.5169 -0.1931 -1.3364
18999TIP3    H278489   0.057   3.392   0.615 -2.5528 -0.4179  0.0690
19000TIP3   OH278490   4.950   2.206  10.855 -0.5643 -0.4391 -0.2593
19000TIP3    H178491   4.979   2.293  10.828 -1.3265 -0.5710 -1.6190
19000TIP3    H278492   4.856   2.205  10.838 -0.7614 -1.1883  0.7411
19001TIP3   OH278493   3.501   2.108   3.044  0.2586  0.2573 -0.7023
19001TIP3    H178494   3.495   2.031   3.100 -0.7874  0.8400  0.0300
19001TIP3    H278495   3.435   2.095   2.976 -0.2338  0.6937 -0.3174
19002TIP3   OH278496   4.177   4.114   3.987  0.0166 -0.4063  0.4212
19002TIP3    H178497   4.166   4.198   3.943 -0.0884 -0.2712  0.7090
19002TIP3    H278498   4.145   4.050   3.923  1.4359 -0.3542 -0.3616
19003TIP3   OH278499   0.663   0.545   2.881 -0.0253  0.6001  0.1551
19003TIP3    H178500   0.584   0.598   2.875  0.3674  1.1073 -0.6192
19003TIP3    H278501   0.709   0.579   2.958 -1.2127 -0.6200  1.4510
19004TIP3   OH278502   3.013   0.738   3.910  0.1279 -0.4708 -0.1460
19004TIP3    H178503   2.998   0.690   3.991  1.2879 -2.3063 -0.9539
19004TIP3    H278504   2.970   0.686   3.842 -0.8405  1.0403 -0.7473
19005TIP3   OH278505   6.534   3.703   2.832 -0.6211  0.5465 -0.2440
19005TIP3    H178506   6.468   3.659   2.779 -0.7046  1.3352 -0.8150
19005TIP3    H278507   6.510   3.796   2.829  0.7968  0.9220 -0.8995
19006TIP3   OH278508   1.304   0.484  12.089 -1.0933 -0.6018  0.2941
19006TIP3    H178509   1.364   0.527  12.150 -0.7684 -1.8523  0.9089
19006TIP3    H278510   1.360   0.424  12.039 -1.4900 -0.1610 -0.6944
19007TIP3   OH278511   2.221   2.419  11.189  0.5062 -0.2240  0.0030
19007TIP3    H178512   2.273   2.499  11.176  0.3787 -0.2078 -0.4149
19007TIP3    H278513   2.263   2.354  11.134  0.0096 -0.1776 -0.4342
19008TIP3   OH278514   5.253   6.533  16.354 -0.3906  0.1325  0.0976
19008TIP3    H178515   5.243   6.482  16.274  0.1685 -0.5071  0.4205
19008TIP3    H278516   5.272   6.467  16.421 -1.2307  0.6226  0.8296
19009TIP3   OH278517   3.522   0.145   1.183 -0.0090 -0.2246  0.1203
19009TIP3    H178518   3.435   0.114   1.206 -0.5419  0.8588 -0.4125
19009TIP3    H278519   3.572   0.064   1.167 -1.0895 -0.8463 -0.2351
19010TIP3   OH278520   0.965   4.693  14.938 -0.2901 -0.1144 -0.2147
19010TIP3    H178521   0.971   4.676  15.032  1.7673 -1.0046 -0.4282
19010TIP3    H278522   0.907   4.624  14.905  1.0111 -1.4298  0.1163
19011TIP3   OH278523   0.926   5.086   6.249  0.2014  0.3127 -0.5096
19011TIP3    H178524   0.943   5.179   6.233 -2.6370  1.0140  0.0129
19011TIP3    H278525   0.949   5.073   6.341 -3.1295  1.6143  0.6345
19012TIP3   OH278526   0.889   1.407  12.474  0.4982  0.5232 -0.5933
19012TIP3    H178527   0.835   1.470  12.425 -1.9363  1.7820  3.2464
19012TIP3    H278528   0.977   1.445  12.471 -0.0050  1.7096 -2.0722
19013TIP3   OH278529   0.678   6.404   2.587  0.1455  0.6431 -0.4727
19013TIP3    H178530   0.634   6.434   2.667  0.6883  1.3152 -0.4260
19013TIP3    H278531   0.609   6.405   2.521 -0.4092 -0.3117  0.0715
19014TIP3   OH278532   6.723   3.118  15.274 -0.1753 -0.7511  0.7533
19014TIP3    H178533   6.663   3.045  15.258 -0.1150 -0.7631  0.5844
19014TIP3    H278534   6.799   3.077  15.314  0.3310 -0.9464 -0.3632
19015TIP3   OH278535   4.831   1.283  13.234 -0.0365  0.6711 -0.0371
19015TIP3    H178536   4.814   1.192  13.259 -0.9093  1.3668  2.1257
19015TIP3    H278537   4.774   1.298  13.159 -1.0410 -0.1322  0.5432
19016TIP3   OH278538   4.594   2.737  14.112 -0.2660 -0.0409 -0.2928
19016TIP3    H178539   4.666   2.755  14.173 -1.4734  1.8675  0.6800
19016TIP3    H278540   4.616   2.785  14.033 -2.2659  4.2703  1.4256
19017TIP3   OH278541   1.727   4.686   6.048 -0.5168  0.1508  0.5447
19017TIP3    H178542   1.642   4.691   6.091 -0.9338  1.8270 -0.3754
19017TIP3    H278543   1.791   4.696   6.119 -1.0908 -0.2550  1.1305
19018TIP3   OH278544   2.699   6.111  16.987  0.3895 -0.0388 -0.2632
19018TIP3    H178545   2.619   6.132  17.036  0.6292 -1.3746  0.7652
19018TIP3    H278546   2.698   6.015  16.980  1.5059 -0.0178 -0.9294
19019TIP3   OH278547   6.450   2.712  14.388 -0.2395 -0.7395  0.6924
19019TIP3    H178548   6.515   2.775  14.357  0.3341 -1.6785 -0.1119
19019TIP3    H278549   6.459   2.712  14.483 -0.1887  0.3068  0.6947
19020TIP3   OH278550   6.815   5.617   1.963  0.1943  0.1130  0.0190
19020TIP3    H178551   6.805   5.534   1.917  0.4409 -0.7978  1.5549
19020TIP3    H278552   6.886   5.662   1.918  0.0498 -0.4885 -0.8270
19021TIP3   OH278553   0.481   4.628   4.855 -0.3357 -0.1566  0.4946
19021TIP3    H178554   0.480   4.534   4.874 -0.7130  0.0606  1.6177
19021TIP3    H278555   0.405   4.642   4.798 -0.8477 -0.3913  1.1073
19022TIP3   OH278556   0.652   2.688  14.631  0.6076  0.2797 -0.0306
19022TIP3    H178557   0.583   2.725  14.576 -1.8768 -1.1221  1.9309
19022TIP3    H278558   0.635   2.724  14.718  1.8134 -0.7932  0.6798
19023TIP3   OH278559   2.702   2.318  12.105  0.2920  0.1763  0.3334
19023TIP3    H178560   2.698   2.413  12.115  0.2026  0.3856 -1.3601
19023TIP3    H278561   2.630   2.297  12.045  2.2939 -0.5002 -1.9969
19024TIP3   OH278562   3.384   6.108   4.504  0.7279  0.1503 -0.4074
19024TIP3    H178563   3.409   6.128   4.594  1.9580  2.6329 -1.1921
19024TIP3    H278564   3.441   6.035   4.478  0.3421 -0.6003  0.7997
19025TIP3   OH278565   3.813   0.166   0.655 -0.2129 -0.1343  0.2483
19025TIP3    H178566   3.890   0.150   0.710 -0.3985 -0.4390  0.4238
19025TIP3    H278567   3.772   0.080   0.646 -0.3517 -0.0324 -0.1201
19026TIP3   OH278568   3.764   2.357   4.809  0.3323  0.4546  0.1073
19026TIP3    H178569   3.802   2.443   4.830 -1.0477  1.1630 -0.1567
19026TIP3    H278570   3.669   2.373   4.805  0.1931 -0.4540 -2.6234
19027TIP3   OH278571   2.680   3.756   3.930 -0.3456  0.2115  0.4384
19027TIP3    H178572   2.747   3.781   3.994 -0.4709 -0.8852  1.0186
19027TIP3    H278573   2.712   3.791   3.847  1.2337 -0.7617  0.5942
19028TIP3   OH278574   3.105   2.316   1.391 -0.0898 -0.0384 -0.4437
19028TIP3    H178575   3.048   2.313   1.314 -0.3854 -0.3563 -0.2178
19028TIP3    H278576   3.191   2.339   1.356 -0.0615 -0.8877 -0.9582
19029TIP3   OH278577   4.601   3.237  16.581  0.5099  0.2008 -0.1607
19029TIP3    H178578   4.556   3.253  16.499 -0.2842  0.9636  0.4027
19029TIP3    H278579   4.666   3.308  16.587  0.4550  0.2434 -0.0601
19030TIP3   OH278580   6.668   3.747   2.045 -0.5387  0.3292  1.1335
19030TIP3    H178581   6.736   3.749   2.113  0.1046  1.4683  0.4912
19030TIP3    H278582   6.594   3.793   2.084 -0.0672  1.2424  0.9854
19031TIP3   OH278583   3.179   2.663   0.646 -0.5538 -0.1295 -0.0410
19031TIP3    H178584   3.271   2.639   0.653 -0.8137 -1.9037 -1.7403
19031TIP3    H278585   3.172   2.705   0.560 -1.0137  1.7714  0.8872
19032TIP3   OH278586   1.219   0.540   5.780 -0.1394 -0.5416  0.0028
19032TIP3    H178587   1.192   0.450   5.798 -0.4540  0.1468  3.5541
19032TIP3    H278588   1.138   0.589   5.774  0.0386 -0.3757 -1.8214
19033TIP3   OH278589   2.461   0.615  16.372 -0.1398 -0.1082 -0.9024
19033TIP3    H178590   2.410   0.626  16.452 -0.3626  0.8804 -1.1639
19033TIP3    H278591   2.395   0.607  16.302  0.0350  1.0569 -1.2274
19034TIP3   OH278592   2.713   1.172   4.925  0.3052  0.1473  0.3099
19034TIP3    H178593   2.777   1.243   4.929  1.2677 -0.6019 -1.1475
19034TIP3    H278594   2.708   1.149   4.832  2.3095 -3.6618  0.9299
19035TIP3   OH278595   0.828   1.801  15.171 -0.6259 -0.0789  0.0053
19035TIP3    H178596   0.836   1.783  15.265 -0.8463  1.3342  0.3118
19035TIP3    H278597   0.890   1.872  15.155  0.8615 -1.5818 -1.3388
19036TIP3   OH278598   2.379   3.747   2.961  0.1434 -0.4639 -0.0573
19036TIP3    H178599   2.327   3.724   2.884 -1.2074 -0.4204  0.8087
19036TIP3    H278600   2.317   3.748   3.033  1.1755  0.5238  0.8788
19037TIP3   OH278601   4.494   4.841  13.501 -0.2433 -0.5478  0.1891
19037TIP3    H178602   4.422   4.899  13.476  0.3405 -0.0920 -0.4360
19037TIP3    H278603   4.455   4.783  13.567 -1.6208 -1.2932 -1.2028
19038TIP3   OH278604   2.546   0.705  12.739  0.0821  0.6817  0.4353
19038TIP3    H178605   2.492   0.658  12.803 -0.7475 -0.2775 -0.9209
19038TIP3    H278606   2.494   0.782  12.717  0.6171  1.3065  1.2940
19039TIP3   OH278607   2.145   2.256   2.211  0.7381 -0.4260  0.3350
19039TIP3    H178608   2.220   2.316   2.217  1.0786 -0.8866  0.9082
19039TIP3    H278609   2.166   2.187   2.274 -0.0810 -0.6688  0.3457
19040TIP3   OH278610   2.582   2.896  16.914  0.1096  0.4119 -0.1551
19040TIP3    H178611   2.594   2.836  16.840 -0.9117  0.0563 -0.0339
19040TIP3    H278612   2.600   2.983  16.877 -0.4313  0.2396 -0.8360
19041TIP3   OH278613   3.528   0.877  14.781  0.7253  0.3540 -0.5060
19041TIP3    H178614   3.548   0.875  14.874 -1.5953  2.4028  0.1382
19041TIP3    H278615   3.538   0.969  14.756  1.1107 -0.1261 -2.2560
19042TIP3   OH278616   1.601   6.607  15.472  0.5217  0.0643 -0.1331
19042TIP3    H178617   1.564   6.607  15.383 -0.4274 -1.2911  0.2219
19042TIP3    H278618   1.620   6.515  15.489 -1.4401 -0.0517  1.8897
19043TIP3   OH278619   5.488   5.008   5.530 -0.7362 -0.3572 -0.0876
19043TIP3    H178620   5.547   4.989   5.457 -0.3653 -2.0561  0.6133
19043TIP3    H278621   5.539   5.062   5.590 -0.6900  0.1387 -0.5644
19044TIP3   OH278622   4.179   1.708   0.415 -0.1970 -0.9554  0.1456
19044TIP3    H178623   4.194   1.623   0.374  0.1404 -0.1703 -1.4302
19044TIP3    H278624   4.102   1.744   0.370 -0.8646 -0.7700  1.3869
19045TIP3   OH278625   1.781   2.736  12.236  0.6013  0.7828 -0.1518
19045TIP3    H178626   1.829   2.803  12.285  0.0717  0.4514  0.8561
19045TIP3    H278627   1.711   2.709  12.296  0.8462 -0.7152 -0.5199
19046TIP3   OH278628   0.326   0.890   1.518 -0.6768 -0.0030 -0.0340
19046TIP3    H178629   0.236   0.883   1.487 -1.4657 -0.7750  2.2411
19046TIP3    H278630   0.361   0.801   1.509  0.0359  0.3835 -1.3084
19047TIP3   OH278631   0.134   3.838   0.406  0.8742  0.0936  0.4512
19047TIP3    H178632   0.080   3.790   0.343  1.3261 -1.6629  1.3363
19047TIP3    H278633   0.074   3.859   0.477  0.6607  0.9429  0.0335
19048TIP3   OH278634   2.493   1.506  13.942  0.5213  0.2547 -0.2947
19048TIP3    H178635   2.508   1.545  14.028  0.8771 -0.5713  0.0259
19048TIP3    H278636   2.408   1.462  13.951  0.5993  0.0949 -0.3345
19049TIP3   OH278637   6.205   0.081   1.740 -0.2694  0.0942 -0.5484
19049TIP3    H178638   6.237   0.079   1.831 -1.3184  1.2251 -0.1165
19049TIP3    H278639   6.284   0.079   1.687  0.3431 -1.3195  0.3565
19050TIP3   OH278640   3.246   4.384   5.330  0.1000 -0.3324 -0.4034
19050TIP3    H178641   3.258   4.329   5.407 -0.8396 -0.2604 -0.1967
19050TIP3    H278642   3.314   4.451   5.338  1.1965 -1.3858 -0.6113
19051TIP3   OH278643   6.192   4.894  13.545  0.3228  0.0451  0.0807
19051TIP3    H178644   6.144   4.838  13.484 -0.5559  0.3145  0.4951
19051TIP3    H278645   6.126   4.920  13.610  0.8186  1.1583  0.1663
19052TIP3   OH278646   6.399   5.533   2.777 -0.0158  0.4416 -0.3434
19052TIP3    H178647   6.471   5.550   2.717  0.1040  0.1656 -0.2775
19052TIP3    H278648   6.341   5.474   2.728 -1.8208  3.0943 -1.6490
19053TIP3   OH278649   3.302   1.752  14.240  0.1428  0.0574 -0.0944
19053TIP3    H178650   3.345   1.831  14.206 -0.4432  1.0183  1.2998
19053TIP3    H278651   3.364   1.718  14.305 -0.3417  0.3490  0.5284
19054TIP3   OH278652   0.382   0.517  13.812 -0.3675  0.3515  0.3512
19054TIP3    H178653   0.348   0.438  13.854 -1.3842  1.1540  1.0797
19054TIP3    H278654   0.362   0.588  13.873  1.5705  1.0506  0.2540
19055TIP3   OH278655   5.545   5.179   4.560 -0.0892  0.3815 -0.1858
19055TIP3    H178656   5.536   5.221   4.645 -0.2088  1.3916 -0.6828
19055TIP3    H278657   5.623   5.219   4.521  0.2207 -0.3871 -0.3750
19056TIP3   OH278658   1.482   0.768   2.325  0.1301  0.5652 -0.4818
19056TIP3    H178659   1.544   0.806   2.386 -0.6545  0.4540  0.4018
19056TIP3    H278660   1.402   0.819   2.336 -0.5877 -0.6042 -0.0780
19057TIP3   OH278661   4.702   3.036  15.886 -0.0190  0.8150  0.1932
19057TIP3    H178662   4.705   2.958  15.830 -1.1596 -0.1356  1.3701
19057TIP3    H278663   4.698   3.109  15.825 -1.9993 -0.2115 -1.0409
19058TIP3   OH278664   4.306   4.548  15.210  0.2429 -0.1931 -1.4922
19058TIP3    H178665   4.397   4.572  15.227  0.0599  0.0246 -0.7820
19058TIP3    H278666   4.302   4.533  15.115  1.1351 -0.7504 -1.4479
19059TIP3   OH278667   1.510   5.422   1.100  0.0319  0.4422 -0.7332
19059TIP3    H178668   1.419   5.394   1.086 -0.7307  1.8272  1.0225
19059TIP3    H278669   1.539   5.371   1.175  0.4620  0.5153 -0.8481
19060TIP3   OH278670   2.095   5.175   1.763 -0.8405 -0.1705  0.4331
19060TIP3    H178671   2.104   5.136   1.850 -0.8223  1.5951  1.2567
19060TIP3    H278672   2.010   5.218   1.764 -1.2079 -0.8148 -0.7389
19061TIP3   OH278673   5.682   1.828   0.705 -0.5291  0.1435 -0.3459
19061TIP3    H178674   5.692   1.826   0.610  1.3501 -0.4308 -0.1592
19061TIP3    H278675   5.688   1.736   0.732  0.2752  0.4228  0.4499
19062TIP3   OH278676   4.221   2.565   1.626 -0.0498 -0.3965  0.2738
19062TIP3    H178677   4.210   2.660   1.624  0.5037 -0.3365 -0.4717
19062TIP3    H278678   4.316   2.552   1.626 -0.1220 -0.9489  0.4978
19063TIP3   OH278679   1.970   2.447  11.675  0.1303 -0.4470  0.1736
19063TIP3    H178680   1.974   2.430  11.581  0.8688 -0.4112  0.1906
19063TIP3    H278681   2.051   2.494  11.694  0.3798 -1.1754  0.9613
19064TIP3   OH278682   5.667   5.649  12.230  0.2239 -0.4421  0.7972
19064TIP3    H178683   5.615   5.606  12.298  1.4821 -0.8955  1.5044
19064TIP3    H278684   5.634   5.739  12.227 -1.4709 -1.0493  0.3018
19065TIP3   OH278685   1.534   3.206  15.523 -0.4305 -0.5083  1.0286
19065TIP3    H178686   1.450   3.244  15.547  1.0855  3.8267  0.3761
19065TIP3    H278687   1.523   3.176  15.433 -1.2347  0.2020  0.8845
19066TIP3   OH278688   3.895   5.622  14.564 -0.0821 -0.6172 -0.0669
19066TIP3    H178689   3.876   5.714  14.545  2.7578 -0.2940 -2.0154
19066TIP3    H278690   3.825   5.574  14.519 -0.0742  0.5448 -1.4016
19067TIP3   OH278691   1.736   6.039  14.913 -0.5369 -0.4498  0.0638
19067TIP3    H178692   1.768   6.033  15.003 -0.2302 -0.3884 -0.0406
19067TIP3    H278693   1.683   6.118  14.911 -1.6356 -1.1497  0.5262
19068TIP3   OH278694   1.306   5.994   1.528  0.0971 -0.3053  0.5734
19068TIP3    H178695   1.302   6.090   1.535 -1.8233 -0.3584  0.8069
19068TIP3    H278696   1.382   5.969   1.581 -0.6788  0.9489  2.3738
19069TIP3   OH278697   4.319   0.961  11.807 -0.2311  0.2507 -0.4349
19069TIP3    H178698   4.354   0.921  11.886 -0.5432  0.5525 -0.1453
19069TIP3    H278699   4.391   1.014  11.773 -1.3798  3.8350  2.1014
19070TIP3   OH278700   3.707   6.223  11.423  0.0117 -0.8072 -0.2356
19070TIP3    H178701   3.678   6.159  11.358 -1.9818  0.4152 -0.6729
19070TIP3    H278702   3.741   6.296  11.371  0.5874 -0.7815  0.1759
19071TIP3   OH278703   0.565   0.733   3.252 -0.2214 -0.0295  0.0647
19071TIP3    H178704   0.492   0.776   3.207 -0.6552  0.5772  1.3020
19071TIP3    H278705   0.536   0.725   3.343  0.3099 -1.9350  0.1184
19072TIP3   OH278706   4.016   0.060   4.203  0.1433  0.3486  0.3914
19072TIP3    H178707   3.958   0.112   4.259  2.3257  2.1236  1.1736
19072TIP3    H278708   3.995   0.088   4.114 -0.6572  0.4602  0.6135
19073TIP3   OH278709   0.905   4.802   5.018  0.2301  0.3441  0.0747
19073TIP3    H178710   0.919   4.710   4.993  1.5583 -0.9845  4.6338
19073TIP3    H278711   0.811   4.816   5.007 -0.0781 -1.7052 -0.4090
19074TIP3   OH278712   4.997   6.193   0.499 -0.0574 -0.8489 -0.2772
19074TIP3    H178713   4.993   6.276   0.453  0.9757 -1.2281 -1.0999
19074TIP3    H278714   5.089   6.167   0.493 -0.5290 -2.5118 -0.8800
19075TIP3   OH278715   6.354   5.264  13.902 -0.0591 -0.3235 -0.0478
19075TIP3    H178716   6.300   5.284  13.979 -1.7112  2.7244 -1.8031
19075TIP3    H278717   6.308   5.192  13.858 -1.0838  0.2911 -0.0007
19076TIP3   OH278718   3.081   6.239   3.196 -0.3718  0.3323  0.9599
19076TIP3    H178719   3.154   6.233   3.135  0.3063  4.5911  1.0188
19076TIP3    H278720   3.006   6.261   3.142 -0.0889  2.5767  1.3707
19077TIP3   OH278721   1.031   3.160   2.619  0.0841  0.6671 -0.7431
19077TIP3    H178722   1.024   3.194   2.708  0.1550  0.8094 -0.7916
19077TIP3    H278723   0.982   3.223   2.566  0.3739  0.7968 -0.8604
19078TIP3   OH278724   2.512   3.780   1.370 -0.7612  0.3089  0.0936
19078TIP3    H178725   2.416   3.774   1.375 -0.8356 -0.7952 -1.8412
19078TIP3    H278726   2.529   3.855   1.314 -0.4295  1.0801  1.1826
19079TIP3   OH278727   1.310   4.073  15.400  0.6850 -0.1760  0.0815
19079TIP3    H178728   1.243   4.005  15.386  1.1434 -0.4496 -0.9000
19079TIP3    H278729   1.386   4.026  15.434  1.2317 -0.2829 -1.2344
19080TIP3   OH278730   2.107   1.263  13.470 -0.2993 -0.3876  0.0896
19080TIP3    H178731   2.156   1.322  13.528  1.1421 -0.5941 -0.8413
19080TIP3    H278732   2.047   1.321  13.422  1.0678  0.3738 -0.7868
19081TIP3   OH278733   5.170   0.895   5.980 -0.5939 -0.1818  0.3539
19081TIP3    H178734   5.249   0.911   6.031  0.1967 -0.9329 -0.6085
19081TIP3    H278735   5.098   0.909   6.042  0.3129 -0.3521  1.4674
19082TIP3   OH278736   5.398   0.232   2.466 -0.7755 -0.1067 -0.1932
19082TIP3    H178737   5.313   0.188   2.478 -1.7598  1.9560  1.0141
19082TIP3    H278738   5.376   0.325   2.468  1.4764  0.4676 -0.4381
19083TIP3   OH278739   0.244   2.006  13.271  0.4293 -0.3095 -0.0040
19083TIP3    H178740   0.177   2.042  13.214  0.6761  0.7767  0.3578
19083TIP3    H278741   0.248   2.067  13.345  1.0691 -0.9325  0.4955
19084TIP3   OH278742   3.574   1.152   1.343 -0.2307 -0.3191 -0.0536
19084TIP3    H178743   3.660   1.185   1.317  0.0580 -1.3690 -0.4650
19084TIP3    H278744   3.542   1.103   1.267 -0.9250 -0.4626  0.3172
19085TIP3   OH278745   2.820   0.384  11.632  0.8291  0.1941  0.1227
19085TIP3    H178746   2.872   0.429  11.697  1.2066  1.2846 -0.9024
19085TIP3    H278747   2.857   0.296  11.628  1.9832  0.6703  0.0775
19086TIP3   OH278748   1.913   4.609  14.973  0.5785  0.2372 -0.0349
19086TIP3    H178749   1.864   4.690  14.961  0.6960  0.2853 -0.2004
19086TIP3    H278750   1.881   4.552  14.902  1.0887  0.4289 -0.4196
19087TIP3   OH278751   0.261   4.719  13.385 -0.1881  0.0784 -0.4701
19087TIP3    H178752   0.295   4.781  13.450  0.2601  1.1909 -1.7209
19087TIP3    H278753   0.231   4.644  13.436  0.6317  0.7041  0.9729
19088TIP3   OH278754   2.675   1.229  12.539 -0.4564  0.0778 -0.0756
19088TIP3    H178755   2.678   1.145  12.492  0.1847  0.4408 -0.7061
19088TIP3    H278756   2.707   1.293  12.475 -2.4865  1.0786 -0.1468
19089TIP3   OH278757   4.443   5.400   4.427  0.2491  0.3045  0.0466
19089TIP3    H178758   4.456   5.407   4.521 -1.2895 -0.3367  0.3317
19089TIP3    H278759   4.366   5.344   4.417  0.6441  0.0046 -1.6056
19090TIP3   OH278760   5.333   2.625  16.375 -0.0719  0.7195 -0.6474
19090TIP3    H178761   5.362   2.705  16.332  0.6592  0.2684 -1.0156
19090TIP3    H278762   5.408   2.599  16.429 -0.4260  0.4593 -0.2725
19091TIP3   OH278763   6.145   1.410  15.945  0.3030 -0.4448  0.0279
19091TIP3    H178764   6.212   1.346  15.918 -0.8377 -1.1534 -1.2462
19091TIP3    H278765   6.135   1.396  16.039  0.3525 -1.9064 -0.1531
19092TIP3   OH278766   6.011   0.188   2.209  0.6692  0.2382 -0.3098
19092TIP3    H178767   5.960   0.265   2.183  0.8603  0.2475 -0.6639
19092TIP3    H278768   6.102   0.218   2.204  0.7410  0.0003 -0.3987
19093TIP3   OH278769   3.541   2.702  15.407 -0.0067 -0.1057  0.5046
19093TIP3    H178770   3.504   2.787  15.384 -0.8647 -1.0497 -1.9280
19093TIP3    H278771   3.466   2.642  15.407  0.6484 -0.9741  1.7234
19094TIP3   OH278772   0.185   1.204  17.060 -0.0559 -0.2206 -0.1246
19094TIP3    H178773   0.176   1.117  17.099  0.3500  0.3464  1.2911
19094TIP3    H278774   0.177   1.264  17.134 -0.4757  0.9582 -1.1067
19095TIP3   OH278775   5.240   5.459  11.144  0.0376 -0.3112 -0.0390
19095TIP3    H178776   5.186   5.518  11.091  0.6574 -0.8024 -1.2526
19095TIP3    H278777   5.178   5.397  11.182 -0.2534 -0.9872 -1.5661
19096TIP3   OH278778   5.523   4.512  17.163 -0.3433  0.2501 -0.0986
19096TIP3    H178779   5.524   4.463  17.246 -0.8368  1.4300  0.6462
19096TIP3    H278780   5.451   4.473  17.114  0.3637 -0.8863 -0.2505
19097TIP3   OH278781   5.389   1.632   1.659 -0.4833 -0.0438 -0.2435
19097TIP3    H178782   5.310   1.651   1.709 -1.0914  0.1557 -1.2544
19097TIP3    H278783   5.358   1.609   1.571  0.5814  0.1078 -0.6810
19098TIP3   OH278784   5.945   6.513  14.918  0.1863  0.2162  0.1110
19098TIP3    H178785   6.004   6.570  14.868  1.6144  1.2067  2.7501
19098TIP3    H278786   5.865   6.564  14.927  0.1583  0.3027 -0.5766
19099TIP3   OH278787   1.821   6.432  14.052  0.1115  0.2648  0.2189
19099TIP3    H178788   1.902   6.382  14.056  0.4407  0.3870 -2.7399
19099TIP3    H278789   1.753   6.366  14.039  0.3317  0.4044 -1.8768
19100TIP3   OH278790   4.583   6.042   1.339  0.1479 -0.4617  0.2803
19100TIP3    H178791   4.635   5.963   1.358  0.8883 -0.6851 -2.3078
19100TIP3    H278792   4.503   6.009   1.299 -0.1863  0.0466  0.5309
19101TIP3   OH278793   0.710   3.866   3.633 -0.0241  0.2587 -0.5686
19101TIP3    H178794   0.639   3.853   3.696  1.0844 -0.2720  0.6029
19101TIP3    H278795   0.668   3.910   3.558 -1.6012 -0.1864  0.0266
19102TIP3   OH278796   0.129   0.835  16.418 -0.1408 -0.3234 -0.1418
19102TIP3    H178797   0.063   0.797  16.477 -0.5742  0.0027 -0.4083
19102TIP3    H278798   0.211   0.832  16.468 -0.5470  0.1906  0.5770
19103TIP3   OH278799   3.691   6.391  16.044 -0.7954  0.0059  0.6087
19103TIP3    H178800   3.606   6.374  16.085 -1.1763  0.4537  0.0096
19103TIP3    H278801   3.755   6.355  16.106 -1.3398  1.0227  1.8077
19104TIP3   OH278802   2.120   2.438   1.421  0.3595 -0.4586  0.3679
19104TIP3    H178803   2.127   2.431   1.326  0.4242  1.9017  0.1527
19104TIP3    H278804   2.162   2.358   1.454  0.0982 -1.4442 -1.5597
19105TIP3   OH278805   6.698   5.377  10.847 -0.7879  0.2302 -0.3417
19105TIP3    H178806   6.622   5.351  10.796 -1.3834 -2.2318  1.5948
19105TIP3    H278807   6.767   5.394  10.782 -2.2531 -0.0216 -2.0171
19106TIP3   OH278808   5.783   5.197   0.106  0.0605  0.2650  0.0298
19106TIP3    H178809   5.847   5.137   0.145  1.1358  1.0340 -0.5105
19106TIP3    H278810   5.743   5.146   0.035  0.5142 -0.0189 -0.0261
19107TIP3   OH278811   4.562   0.140   2.862 -0.1554 -0.6340 -0.2859
19107TIP3    H178812   4.524   0.119   2.948  0.3804  1.0729  0.4098
19107TIP3    H278813   4.493   0.188   2.817  0.4796  0.8733  0.2805
19108TIP3   OH278814   1.157   5.993  13.581  0.3504 -0.3061 -0.0468
19108TIP3    H178815   1.089   5.926  13.579  0.7306 -0.6978 -0.0209
19108TIP3    H278816   1.134   6.053  13.510 -0.4567  0.0023  0.4626
19109TIP3   OH278817   3.354   4.460   4.960  0.7614 -0.5899 -0.2357
19109TIP3    H178818   3.291   4.530   4.948 -0.0172 -1.4623 -1.4975
19109TIP3    H278819   3.365   4.453   5.055  1.1680  1.4614 -0.0877
19110TIP3   OH278820   5.517   0.011  13.947  0.5107 -0.2265  0.7929
19110TIP3    H178821   5.599   0.030  13.992  1.4921 -1.0708 -0.5556
19110TIP3    H278822   5.470   0.094  13.946  0.3253 -0.2273  3.5225
19111TIP3   OH278823   1.297   4.653   6.044  0.2118 -0.1328  0.3280
19111TIP3    H178824   1.364   4.606   6.093  2.0732  1.2783 -0.7128
19111TIP3    H278825   1.329   4.653   5.954 -2.3710 -1.3627 -0.6926
19112TIP3   OH278826   6.474   1.200  14.944  0.2249  0.5233 -0.0350
19112TIP3    H178827   6.385   1.186  14.912 -0.5810  1.3141  1.7464
19112TIP3    H278828   6.522   1.122  14.916 -1.3658 -0.5630  0.1429
19113TIP3   OH278829   4.314   1.168   0.467  0.2576 -0.2120 -0.1579
19113TIP3    H178830   4.222   1.192   0.482  0.2746 -0.8458  1.0707
19113TIP3    H278831   4.363   1.247   0.489  0.1391 -0.5235  1.3337
19114TIP3   OH278832   6.812   6.573   0.581  0.2869  0.4231  0.2530
19114TIP3    H178833   6.894   6.584   0.533  0.0369  0.3259 -0.1973
19114TIP3    H278834   6.744   6.577   0.514 -0.0324 -0.2248  0.5336
19115TIP3   OH278835   6.067   1.491   4.969  0.5658 -0.2611 -0.3797
19115TIP3    H178836   6.005   1.522   4.903  0.3588 -0.2967 -0.2029
19115TIP3    H278837   6.101   1.409   4.934  3.0088  1.3519 -2.0530
19116TIP3   OH278838   2.483   3.755  15.638 -0.7124  1.1024 -0.6241
19116TIP3    H178839   2.452   3.791  15.721  2.1019 -0.3638  1.2408
19116TIP3    H278840   2.413   3.695  15.610 -1.8455  1.8453  0.5109
19117TIP3   OH278841   1.953   6.453   3.824  0.1299 -0.1802 -0.5040
19117TIP3    H178842   1.882   6.389   3.816  1.2567 -1.7841  1.1258
19117TIP3    H278843   1.957   6.472   3.918  1.9712 -0.3443 -0.5064
19118TIP3   OH278844   3.299   3.477   5.255  0.3159 -0.4879 -0.0944
19118TIP3    H178845   3.253   3.543   5.203  0.1502 -0.9122 -0.4941
19118TIP3    H278846   3.230   3.418   5.286  0.5641 -1.0449 -0.5756
19119TIP3   OH278847   4.214   6.771   3.971 -0.4273  0.0644 -0.2801
19119TIP3    H178848   4.183   6.856   4.001  0.9939  0.3140  0.5852
19119TIP3    H278849   4.302   6.789   3.936 -0.5358 -0.8693 -1.0451
19120TIP3   OH278850   4.446   3.160   2.377 -0.1991 -0.1961 -0.5753
19120TIP3    H178851   4.393   3.102   2.324 -0.0301 -1.6088  0.7369
19120TIP3    H278852   4.500   3.102   2.430  2.4910  1.1740 -1.6401
19121TIP3   OH278853   0.493   6.242   3.725  0.4511 -0.4043  0.2895
19121TIP3    H178854   0.547   6.320   3.712  0.6980 -0.3142  1.7263
19121TIP3    H278855   0.553   6.175   3.755  0.2613 -1.2247 -1.0753
19122TIP3   OH278856   0.507   0.797  10.998  0.9050  0.3739 -0.2654
19122TIP3    H178857   0.545   0.830  11.080 -1.0060 -1.1048  1.3399
19122TIP3    H278858   0.512   0.871  10.937  0.2417  2.3705  1.9372
19123TIP3   OH278859   2.792   2.761   4.953  0.1751 -0.0641  0.5871
19123TIP3    H178860   2.831   2.697   5.013 -0.3676  0.0723  1.0866
19123TIP3    H278861   2.779   2.839   5.006  1.5359  0.7478 -0.1967
19124TIP3   OH278862   5.111   4.768   4.386  0.0455  0.1527  0.1337
19124TIP3    H178863   5.040   4.703   4.381  0.1860  0.0539 -0.9179
19124TIP3    H278864   5.066   4.852   4.396 -0.1484 -0.0686  1.1931
19125TIP3   OH278865   6.401   0.196   3.627 -0.0190 -0.0458 -0.7076
19125TIP3    H178866   6.405   0.242   3.543 -0.7414  0.7099 -0.3367
19125TIP3    H278867   6.316   0.152   3.627 -0.7469  1.2923  0.2929
19126TIP3   OH278868   0.924   0.720   3.707 -0.6143 -0.0101 -0.9359
19126TIP3    H178869   0.917   0.635   3.663 -0.0153 -0.2316 -0.6113
19126TIP3    H278870   1.013   0.722   3.741 -0.6007  0.7786 -0.9957
19127TIP3   OH278871   5.638   6.543   5.905  0.3043  0.1440 -0.4074
19127TIP3    H178872   5.669   6.633   5.892 -0.5965  0.8648  1.9025
19127TIP3    H278873   5.687   6.512   5.981 -0.9065 -0.5493  0.1110
19128TIP3   OH278874   1.164   5.842   5.529  0.0038 -0.2681 -0.8267
19128TIP3    H178875   1.256   5.859   5.549 -0.1308 -0.7033  0.2389
19128TIP3    H278876   1.131   5.925   5.494  0.0437  0.8948  1.6987
19129TIP3   OH278877   3.782   2.220   1.928  0.0616 -0.1360 -0.0255
19129TIP3    H178878   3.781   2.315   1.913 -1.7549  0.0356  0.8556
19129TIP3    H278879   3.697   2.202   1.969  0.9005 -1.9540  1.0362
19130TIP3   OH278880   3.961   6.123  12.513  0.0421  0.2857  0.5281
19130TIP3    H178881   4.000   6.068  12.582  0.1843 -0.6668 -0.2893
19130TIP3    H278882   3.896   6.067  12.471 -1.2176  1.3895  0.9184
19131TIP3   OH278883   6.344   3.242  16.883  0.0047 -0.5809 -0.4608
19131TIP3    H178884   6.318   3.201  16.800 -0.0495 -0.9704 -0.2556
19131TIP3    H278885   6.430   3.205  16.901  1.4405  1.7852 -1.8744
19132TIP3   OH278886   2.649   2.433   5.542 -0.2422  0.3698  0.0028
19132TIP3    H178887   2.611   2.354   5.504  1.5562  0.1963 -1.6304
19132TIP3    H278888   2.730   2.403   5.584  0.2534  1.2637 -0.2845
19133TIP3   OH278889   2.144   5.450  12.635 -0.5755  0.1839 -0.3371
19133TIP3    H178890   2.056   5.463  12.600 -0.0739  0.4585 -1.5481
19133TIP3    H278891   2.168   5.535  12.672 -0.8788  0.0571  0.1637
19134TIP3   OH278892   1.419   5.788   0.265 -0.2674  0.1952 -0.3298
19134TIP3    H178893   1.350   5.727   0.294 -0.3252  0.3282 -0.1895
19134TIP3    H278894   1.387   5.821   0.181  0.1211 -0.5509 -0.7904
19135TIP3   OH278895   4.694   1.745   3.804 -0.5807 -0.1135 -0.4813
19135TIP3    H178896   4.735   1.742   3.718 -0.6082 -0.1224 -0.4939
19135TIP3    H278897   4.740   1.817   3.849 -1.3831  0.6899 -0.9247
19136TIP3   OH278898   6.048   1.005  14.717  0.1536 -0.1264  0.2343
19136TIP3    H178899   5.961   0.972  14.738  0.5453 -1.1023  0.3693
19136TIP3    H278900   6.057   1.085  14.770 -1.5154  1.2975 -1.4555
19137TIP3   OH278901   3.991   4.239  13.892 -0.0034 -0.0351 -0.3140
19137TIP3    H178902   4.046   4.172  13.851  0.5594  1.3450 -1.9761
19137TIP3    H278903   4.040   4.267  13.969  0.5112 -0.4305 -0.4893
19138TIP3   OH278904   1.924   3.316  17.124  0.4467  0.4960 -0.4485
19138TIP3    H178905   1.990   3.327  17.193  2.0665 -0.9649 -1.6791
19138TIP3    H278906   1.972   3.329  17.042 -0.0391 -3.2491 -1.5411
19139TIP3   OH278907   1.837   4.991   3.816 -0.7893 -0.6535 -0.7429
19139TIP3    H178908   1.849   4.954   3.728  1.5163  0.3205 -0.9176
19139TIP3    H278909   1.872   4.924   3.875  0.7914  0.0233 -0.8596
19140TIP3   OH278910   4.019   0.251  16.459  0.0519  0.1207 -0.2683
19140TIP3    H178911   4.105   0.246  16.419  1.1965 -1.5514  2.1201
19140TIP3    H278912   4.033   0.299  16.541 -1.5222  0.7344 -0.3133
19141TIP3   OH278913   4.085   3.950  15.521 -0.4182 -0.3661 -0.8934
19141TIP3    H178914   4.079   4.045  15.517  0.6037 -0.2644 -0.2931
19141TIP3    H278915   4.179   3.932  15.523 -0.6047 -1.3683 -0.5506
19142TIP3   OH278916   3.342   1.648   4.062  0.6476  0.0988  0.0634
19142TIP3    H178917   3.279   1.703   4.108  1.7190  1.3832  0.0639
19142TIP3    H278918   3.319   1.657   3.970  0.0122 -0.5256  0.1511
19143TIP3   OH278919   2.671   4.451   5.472  0.6442 -0.0775 -0.0813
19143TIP3    H178920   2.680   4.386   5.402  1.1595 -2.1793  1.8111
19143TIP3    H278921   2.756   4.451   5.515 -0.2826 -0.4881  1.8601
19144TIP3   OH278922   6.591   3.107  15.646 -0.3961  0.1737 -0.1509
19144TIP3    H178923   6.546   3.163  15.709 -2.0726  1.3607 -2.2715
19144TIP3    H278924   6.672   3.153  15.625 -1.4324  1.5328 -1.3526
19145TIP3   OH278925   4.883   5.293  17.117 -0.4212 -0.1455 -0.0055
19145TIP3    H178926   4.894   5.198  17.103 -2.2117 -0.2002 -1.3055
19145TIP3    H278927   4.851   5.300  17.207 -1.4327 -0.8784 -0.2986
19146TIP3   OH278928   0.853   5.682  12.536  0.1520  0.2706 -0.5427
19146TIP3    H178929   0.930   5.717  12.580  0.1744 -1.0994  0.6199
19146TIP3    H278930   0.781   5.703  12.595 -0.1244  0.1634 -0.8391
19147TIP3   OH278931   6.488   5.199   1.362 -0.1477 -0.7212 -0.1058
19147TIP3    H178932   6.485   5.109   1.396 -0.1814 -0.8043 -0.3303
19147TIP3    H278933   6.429   5.248   1.420  1.5338 -0.3816  1.3816
19148TIP3   OH278934   6.149   2.375  15.606  0.1941  0.7271  0.0986
19148TIP3    H178935   6.083   2.407  15.668 -0.0801 -0.6032  0.5286
19148TIP3    H278936   6.098   2.347  15.530  0.3302  0.4464  0.1087
19149TIP3   OH278937   4.319   1.493  13.947  0.1790  0.0301 -0.4088
19149TIP3    H178938   4.289   1.419  14.001  1.0081  0.1731  0.2776
19149TIP3    H278939   4.240   1.542  13.927 -0.3353 -0.8632 -0.5818
19150TIP3   OH278940   2.931   0.427  11.917  0.3634 -0.1671  0.2278
19150TIP3    H178941   2.953   0.446  12.008  1.2542  1.3590 -0.2773
19150TIP3    H278942   2.836   0.439  11.912  0.5160  1.3212  0.6147
19151TIP3   OH278943   6.571   3.205   1.945 -0.0986  0.2821 -0.1260
19151TIP3    H178944   6.636   3.164   1.889  0.1315 -0.4955  0.6884
19151TIP3    H278945   6.602   3.295   1.957  1.0655 -0.1878  0.5745
19152TIP3   OH278946   1.451   0.116   1.616 -0.1042  0.1422 -0.2498
19152TIP3    H178947   1.485   0.127   1.527 -0.8170 -1.3279 -0.7253
19152TIP3    H278948   1.487   0.033   1.646 -0.0124  0.5385  0.7828
19153TIP3   OH278949   2.144   3.251  10.890  0.0408 -0.4136  0.3279
19153TIP3    H178950   2.075   3.237  10.825 -0.0222  1.3323 -0.0216
19153TIP3    H278951   2.098   3.259  10.973 -0.4108  2.3046 -0.0960
19154TIP3   OH278952   5.863   5.623   1.460 -0.1625  0.4771 -0.3761
19154TIP3    H178953   5.847   5.557   1.392 -0.8216  0.5206 -0.2712
19154TIP3    H278954   5.778   5.635   1.501  0.3117  0.1842  0.7126
19155TIP3   OH278955   1.423   4.897  15.384  0.4970 -0.3323  0.2971
19155TIP3    H178956   1.354   4.904  15.450  1.1083 -1.5730  1.0916
19155TIP3    H278957   1.427   4.804  15.363  1.6516 -0.2194 -0.0528
19156TIP3   OH278958   5.906   2.640  11.254  0.5640 -0.1637  0.3509
19156TIP3    H178959   5.900   2.626  11.160  0.2455  1.5337  0.0841
19156TIP3    H278960   5.972   2.709  11.264 -0.9657  1.2649  1.1648
19157TIP3   OH278961   2.005   1.480   0.054 -0.3893 -0.1966 -0.9705
19157TIP3    H178962   1.992   1.471  -0.040 -0.0990 -0.6670 -0.9691
19157TIP3    H278963   2.068   1.411   0.076  0.8886  1.0123 -0.7257
19158TIP3   OH278964   6.562   5.456  16.380  0.2552  0.0162  0.3451
19158TIP3    H178965   6.483   5.509  16.374  1.1540  1.6208  1.7601
19158TIP3    H278966   6.567   5.430  16.472  1.4784  0.1539  0.3428
19159TIP3   OH278967   1.731   3.964  16.882  0.3989  0.1966 -0.2935
19159TIP3    H178968   1.778   3.900  16.936 -0.1050  0.1440  0.0930
19159TIP3    H278969   1.641   3.933  16.880  0.3421  0.3892 -0.8881
19160TIP3   OH278970   3.223   4.942  13.835  0.0231  0.6371  0.2305
19160TIP3    H178971   3.270   5.015  13.795 -0.4684  0.9937  0.2983
19160TIP3    H278972   3.291   4.877  13.854  0.3525  0.7295 -0.5849
19161TIP3   OH278973   2.793   6.554  12.241  0.6473 -0.4299 -0.1565
19161TIP3    H178974   2.805   6.460  12.228  0.3523 -0.5532  0.4543
19161TIP3    H278975   2.882   6.588  12.253  0.6785 -0.7947  0.6934
19162TIP3   OH278976   1.349   2.833   2.960 -0.3686  0.2339  0.4719
19162TIP3    H178977   1.270   2.874   2.924  0.2297  1.1149  0.1457
19162TIP3    H278978   1.323   2.742   2.976 -0.6945 -0.2163 -2.1647
19163TIP3   OH278979   2.721   1.455   5.376  0.2223  0.9622 -0.5975
19163TIP3    H178980   2.692   1.544   5.400  0.8449  0.5485  2.0256
19163TIP3    H278981   2.649   1.399   5.404  1.4630  0.3444  1.5760
19164TIP3   OH278982   4.834   3.019   1.108  0.3781 -0.1315  0.5218
19164TIP3    H178983   4.923   3.011   1.144  0.4453  0.6763  0.5499
19164TIP3    H278984   4.808   3.108   1.129  0.8059  0.7599 -2.2778
19165TIP3   OH278985   2.404   2.576   2.612 -0.2024  0.3148  0.3673
19165TIP3    H178986   2.389   2.482   2.601  2.2360 -0.0203 -0.6355
19165TIP3    H278987   2.463   2.599   2.541 -1.7219  2.9255 -0.1691
19166TIP3   OH278988   3.318   6.502  12.887  0.1307 -0.6192  0.5493
19166TIP3    H178989   3.300   6.483  12.795 -0.7355  1.1489  0.3164
19166TIP3    H278990   3.293   6.422  12.933  1.4672 -1.8824 -0.8079
19167TIP3   OH278991   6.489   1.687  14.949  0.0363 -0.0331 -0.1607
19167TIP3    H178992   6.463   1.604  14.910 -2.2354  1.1631 -1.4706
19167TIP3    H278993   6.582   1.696  14.929 -0.5417 -0.4624 -3.6381
19168TIP3   OH278994   0.212   2.110   4.080 -0.5970  0.1048 -0.0380
19168TIP3    H178995   0.142   2.103   4.014  1.2094  1.8854 -2.3071
19168TIP3    H278996   0.260   2.027   4.072 -0.4221  0.2785 -0.9902
19169TIP3   OH278997   3.838   6.653  11.612 -0.2348  0.3235 -0.5922
19169TIP3    H178998   3.849   6.745  11.636  1.2102 -0.4608  2.1323
19169TIP3    H278999   3.906   6.639  11.546 -0.3210  1.1355 -0.8743
19170TIP3   OH279000   5.593   2.406   0.648  0.1052 -1.0858 -0.1785
19170TIP3    H179001   5.521   2.359   0.691 -0.8052  0.1287 -0.3054
19170TIP3    H279002   5.659   2.339   0.632  0.0327 -1.7985  2.1249
19171TIP3   OH279003   0.608   2.070   4.277  0.1232 -1.0164 -0.4468
19171TIP3    H179004   0.554   1.991   4.287 -0.8943 -0.1636  1.3090
19171TIP3    H279005   0.546   2.138   4.252 -0.2587  0.5196  3.8152
19172TIP3   OH279006   0.102   2.062   1.708 -0.7304  0.5225  0.5926
19172TIP3    H179007   0.178   2.005   1.698 -1.5695 -0.5775  0.2677
19172TIP3    H279008   0.071   2.075   1.618 -1.6008 -0.0159  0.7981
19173TIP3   OH279009   5.479   6.093   0.967  0.1314  0.2530 -0.2541
19173TIP3    H179010   5.543   6.142   0.914 -0.1444  1.8866  0.8305
19173TIP3    H279011   5.510   6.104   1.057  0.3459 -2.0985  0.0248
19174TIP3   OH279012   3.547   0.086  12.264  0.1697 -0.1512  0.4004
19174TIP3    H179013   3.468   0.134  12.289  1.0299  0.3240  2.3411
19174TIP3    H279014   3.531  -0.004  12.295  0.0987 -0.2306  0.1370
19175TIP3   OH279015   2.339   0.995   3.824  0.2959 -0.1487 -0.2195
19175TIP3    H179016   2.318   0.946   3.904  2.3745 -0.6457  0.0563
19175TIP3    H279017   2.376   0.931   3.765  0.0290  0.4907 -1.1057
19176TIP3   OH279018   3.362   6.513  15.170  0.4340 -0.3014  0.4928
19176TIP3    H179019   3.336   6.423  15.149  1.5589 -0.8981  1.5352
19176TIP3    H279020   3.372   6.556  15.085  1.3018 -1.5838 -0.0869
19177TIP3   OH279021   4.529   2.027  15.342 -0.1154 -0.0049 -0.0657
19177TIP3    H179022   4.486   2.112  15.340  0.6393  0.3948  0.0711
19177TIP3    H279023   4.498   1.987  15.423 -0.5227  0.1141 -0.1614
19178TIP3   OH279024   6.565   0.020  16.432  0.6093  0.0381  0.3366
19178TIP3    H179025   6.624   0.091  16.457  1.4493 -0.8679  1.0201
19178TIP3    H279026   6.624  -0.052  16.407 -0.2134 -0.0822 -1.3931
19179TIP3   OH279027   5.005   1.578   3.282  0.4689 -0.2717  0.0824
19179TIP3    H179028   5.066   1.550   3.350  1.0090  0.6911  0.0108
19179TIP3    H279029   5.058   1.627   3.220  0.2268 -2.1677 -1.7446
19180TIP3   OH279030   6.723   5.913  11.626  0.1301  0.2755 -0.2704
19180TIP3    H179031   6.641   5.893  11.582  0.8896  0.0516 -1.6361
19180TIP3    H279032   6.697   5.968  11.700 -1.2599  0.0686 -0.5749
19181TIP3   OH279033   0.402   4.507   3.023 -0.2789  0.4631 -0.2682
19181TIP3    H179034   0.406   4.584   2.966  0.3756  0.7374  0.1455
19181TIP3    H279035   0.454   4.441   2.977  1.0612  0.9871  0.4589
19182TIP3   OH279036   2.227   5.877  12.562  1.2150  0.0944 -0.0733
19182TIP3    H179037   2.311   5.909  12.530  1.3387 -0.7800 -0.6727
19182TIP3    H279038   2.203   5.808  12.500  0.0157  0.3836  0.0413
19183TIP3   OH279039   0.513   6.344   2.365  0.3470 -0.5929  0.4025
19183TIP3    H179040   0.550   6.257   2.374  0.8021 -0.3928  0.4880
19183TIP3    H279041   0.561   6.384   2.293 -0.1579 -0.5633  0.0760
19184TIP3   OH279042   4.622   6.669   5.070 -0.4166 -0.1034 -0.0747
19184TIP3    H179043   4.641   6.590   5.119  1.0187  0.2270 -0.0672
19184TIP3    H279044   4.550   6.711   5.118 -0.0203 -0.5248  0.8936
19185TIP3   OH279045   1.175   5.975  14.051  0.2801 -0.4527 -0.0043
19185TIP3    H179046   1.127   6.052  14.081  1.0479  0.1270 -0.2134
19185TIP3    H279047   1.154   5.906  14.114  0.4563  0.2433  0.8275
19186TIP3   OH279048   2.984   3.772  14.620  0.3315 -0.0651 -0.3802
19186TIP3    H179049   3.015   3.737  14.537 -0.8529 -1.5060 -0.2462
19186TIP3    H279050   2.917   3.837  14.595  1.2912  0.8765 -0.5761
19187TIP3   OH279051   5.658   6.578  13.070  0.4054  0.5520  0.2554
19187TIP3    H179052   5.576   6.623  13.091 -0.3872 -1.0202  0.6560
19187TIP3    H279053   5.663   6.580  12.974  1.0030  2.4814  0.2745
19188TIP3   OH279054   3.891   2.935   1.491 -0.0838  0.0314 -0.1282
19188TIP3    H179055   3.892   2.884   1.410 -1.5231  1.4245 -1.0821
19188TIP3    H279056   3.804   2.918   1.529  0.0648  0.4464  0.4095
19189TIP3   OH279057   5.359   0.768  15.004 -0.6410  0.0077  0.3081
19189TIP3    H179058   5.385   0.763  14.912  1.5663 -2.1757  0.9227
19189TIP3    H279059   5.308   0.688  15.019  0.6154 -0.6353  1.3541
19190TIP3   OH279060   2.910   2.521   4.592  0.1199  0.1665 -0.1883
19190TIP3    H179061   2.833   2.577   4.604  0.1580  0.5261 -1.4870
19190TIP3    H279062   2.976   2.580   4.556  0.0554 -0.7709 -1.8997
19191TIP3   OH279063   2.533   5.942   3.308 -0.1600 -0.1142  0.1810
19191TIP3    H179064   2.475   5.974   3.378 -0.6964  3.1177 -1.5903
19191TIP3    H279065   2.616   5.985   3.324  0.5923 -1.5475  0.3391
19192TIP3   OH279066   2.033   0.116   1.977 -0.2700  0.0731  0.1404
19192TIP3    H179067   1.997   0.042   1.928 -0.3970  1.2816 -1.6926
19192TIP3    H279068   1.963   0.142   2.036 -0.6769 -0.4952 -0.0760
19193TIP3   OH279069   5.318   4.514   1.517  0.2020 -0.0392  0.3879
19193TIP3    H179070   5.332   4.482   1.606  0.0911  0.0635  0.4426
19193TIP3    H279071   5.224   4.532   1.513  0.1143 -0.5384  0.0894
19194TIP3   OH279072   5.796   5.890  15.064 -0.2650  0.5765 -0.0723
19194TIP3    H179073   5.708   5.856  15.046 -0.0204  0.1827 -0.5612
19194TIP3    H279074   5.782   5.963  15.124 -0.9246  0.5118 -0.1406
19195TIP3   OH279075   2.988   2.092   1.764 -0.2331 -0.3228  0.4573
19195TIP3    H179076   3.045   2.028   1.806 -0.7381 -0.7337  0.5252
19195TIP3    H279077   2.899   2.062   1.783 -0.4913  0.7375  1.0130
19196TIP3   OH279078   2.259   4.364  13.788 -0.9766 -0.0004 -0.0023
19196TIP3    H179079   2.279   4.442  13.839 -0.9456 -0.3963  0.5952
19196TIP3    H279080   2.344   4.334  13.756 -1.0457  0.5315 -0.7230
19197TIP3   OH279081   0.366   1.617  14.689  0.4081 -0.3196 -0.4866
19197TIP3    H179082   0.326   1.626  14.602 -2.4993  2.0315  0.9267
19197TIP3    H279083   0.391   1.706  14.713  0.9023 -0.8748  1.2019
19198TIP3   OH279084   1.023   2.542  12.871  0.6735 -0.3503  0.1885
19198TIP3    H179085   1.020   2.495  12.955 -0.5125 -2.0540 -0.7538
19198TIP3    H279086   1.039   2.474  12.806  1.6702  0.9572 -0.9937
19199TIP3   OH279087   6.606   0.310  11.557  0.2469  0.4310  1.5185
19199TIP3    H179088   6.662   0.380  11.589 -0.2763 -0.3878  4.6330
19199TIP3    H279089   6.517   0.345  11.566  0.0932  0.6368 -0.4694
19200TIP3   OH279090   5.497   6.656   2.981  0.0735  0.1871  0.4924
19200TIP3    H179091   5.509   6.730   3.041 -1.8716 -0.0369  1.2447
19200TIP3    H279092   5.473   6.583   3.037 -0.5022 -0.3657 -0.4339
19201TIP3   OH279093   3.845   0.068  12.272  0.4979 -0.8594  0.4443
19201TIP3    H179094   3.880   0.007  12.206  0.0560 -1.4935  0.7817
19201TIP3    H279095   3.755   0.085  12.243  0.4662 -0.7428  0.6094
19202TIP3   OH279096   3.986   2.725   6.467  0.2811  0.3623  0.1746
19202TIP3    H179097   4.009   2.633   6.472 -0.3652  0.2181  0.6165
19202TIP3    H279098   3.948   2.736   6.380  0.7858  0.3182 -0.0550
19203TIP3   OH279099   4.144   4.527  13.733  0.9653 -0.4421 -0.0850
19203TIP3    H179100   4.108   4.574  13.808  2.0308  0.4166 -0.0886
19203TIP3    H279101   4.075   4.467  13.707  1.0004 -1.6011  2.2990
19204TIP3   OH279102   3.082   3.848  11.661  0.3750 -0.2036 -0.2356
19204TIP3    H179103   3.083   3.926  11.717 -0.3095 -1.3710  1.4805
19204TIP3    H279104   3.169   3.811  11.670  0.1309 -0.6290  0.4314
19205TIP3   OH279105   0.541   3.490  15.376 -0.1253 -0.8113 -0.4810
19205TIP3    H179106   0.460   3.473  15.328 -0.0575 -0.1309 -0.8473
19205TIP3    H279107   0.529   3.578  15.411 -0.6555 -1.7079  1.7376
19206TIP3   OH279108   4.575   2.571  15.692 -0.1004  0.0513  0.0369
19206TIP3    H179109   4.484   2.565  15.663  0.2090  0.3469 -1.0715
19206TIP3    H279110   4.626   2.539  15.617  0.8172  2.1453 -0.3035
19207TIP3   OH279111   5.975   1.350   1.536  0.1852 -0.3492 -0.7740
19207TIP3    H179112   6.019   1.362   1.452 -0.0340  0.2074 -0.8172
19207TIP3    H279113   5.883   1.367   1.517  0.1080 -0.4185 -0.4629
19208TIP3   OH279114   1.390   0.275  14.921  0.1398  0.1495 -0.1832
19208TIP3    H179115   1.441   0.224  14.983  1.0460 -0.3919 -1.3420
19208TIP3    H279116   1.316   0.219  14.897 -0.1267  0.2997  0.2744
19209TIP3   OH279117   2.338   1.921   1.331  0.0389  0.0974 -0.5836
19209TIP3    H179118   2.423   1.946   1.369 -0.0732  0.5451 -0.6244
19209TIP3    H279119   2.331   1.972   1.251  0.5490 -1.3119 -1.5526
19210TIP3   OH279120   5.193   4.522  15.959  0.1273  0.1960 -0.3781
19210TIP3    H179121   5.162   4.588  16.021 -0.1354 -0.6351  0.4013
19210TIP3    H279122   5.154   4.547  15.875  0.5254  1.3607 -0.2363
19211TIP3   OH279123   3.615   0.365   5.594  0.0043 -0.4243 -0.7399
19211TIP3    H179124   3.562   0.309   5.537  0.0045 -0.5747 -0.5934
19211TIP3    H279125   3.664   0.420   5.534 -2.2726  1.5836 -0.9227
19212TIP3   OH279126   5.401   3.948   5.966  0.0430  0.2658 -0.0032
19212TIP3    H179127   5.335   3.889   5.930  0.2107 -0.5617  1.0097
19212TIP3    H279128   5.362   3.980   6.048  1.2557 -0.9868  1.1171
19213TIP3   OH279129   2.752   3.107   3.520 -0.2954 -0.3966  0.0793
19213TIP3    H179130   2.810   3.058   3.578 -0.3711  1.2285  1.6266
19213TIP3    H279131   2.716   3.042   3.460 -0.2477 -2.1709  1.8937
19214TIP3   OH279132   6.213   6.232  16.705 -0.0003 -0.2429  0.7448
19214TIP3    H179133   6.231   6.288  16.780  0.9776 -0.9353  1.0505
19214TIP3    H279134   6.253   6.147  16.728 -0.2268 -0.6444 -0.2881
19215TIP3   OH279135   2.936   3.613   0.985  0.0607  0.5702  0.9715
19215TIP3    H179136   2.865   3.658   1.031 -0.3080  1.0395 -0.0494
19215TIP3    H279137   2.991   3.683   0.951 -0.2015  0.2509 -0.1329
19216TIP3   OH279138   3.140   2.719   5.369 -0.5793 -0.2759 -0.1219
19216TIP3    H179139   3.203   2.737   5.299  0.1738  1.1221  0.8537
19216TIP3    H279140   3.086   2.798   5.373 -0.7891 -0.4504  0.6839
19217TIP3   OH279141   5.263   3.448   4.837 -0.6394 -0.4532  0.6621
19217TIP3    H179142   5.248   3.362   4.876  0.0683 -0.2954  1.3202
19217TIP3    H279143   5.253   3.509   4.910 -1.5797  0.0721  0.1075
19218TIP3   OH279144   2.807   3.405  12.203 -0.5113 -0.0929 -0.6488
19218TIP3    H179145   2.770   3.357  12.129 -1.1591 -1.0659  0.2693
19218TIP3    H279146   2.733   3.448  12.244 -0.0074  1.2804 -1.1356
19219TIP3   OH279147   2.302   3.793   5.188 -0.6779 -0.0790  0.2788
19219TIP3    H179148   2.338   3.779   5.100  0.5836  1.4990  0.4854
19219TIP3    H279149   2.219   3.839   5.173  0.2413  1.5404 -0.0952
19220TIP3   OH279150   4.890   6.151  15.216  0.8262  0.0113  0.8685
19220TIP3    H179151   4.812   6.192  15.177  0.1707 -0.4083  1.7253
19220TIP3    H279152   4.885   6.060  15.189  0.7993 -0.1059  1.2711
19221TIP3   OH279153   3.886   1.765   2.751 -0.2406 -0.0111 -0.1239
19221TIP3    H179154   3.969   1.771   2.704 -1.1585  4.4308 -1.5991
19221TIP3    H279155   3.820   1.764   2.682 -1.5156 -0.0614  1.0626
19222TIP3   OH279156   3.484   4.948   0.197 -0.4405 -0.0518 -0.7834
19222TIP3    H179157   3.425   4.873   0.200  0.6934 -0.9559  1.3865
19222TIP3    H279158   3.569   4.912   0.172  0.1077  0.4798  0.2287
19223TIP3   OH279159   5.018   1.301   0.042 -0.2133  0.1077 -0.8671
19223TIP3    H179160   5.014   1.209   0.014 -1.2650  0.1622 -0.9657
19223TIP3    H279161   5.098   1.307   0.094 -0.1796 -0.8916 -0.7768
19224TIP3   OH279162   1.309   4.932   1.422 -0.6910 -0.0869  0.0660
19224TIP3    H179163   1.225   4.962   1.456 -1.9088 -3.6256  0.6457
19224TIP3    H279164   1.339   4.868   1.486  0.6866 -1.4532 -1.8332
19225TIP3   OH279165   2.064   2.264   4.108 -0.3061  0.9008  0.3995
19225TIP3    H179166   1.993   2.208   4.078 -0.7079  2.0530 -0.8734
19225TIP3    H279167   2.138   2.241   4.052 -1.1858  3.3823 -1.9435
19226TIP3   OH279168   4.365   0.701   2.706 -0.1874 -0.0815 -0.1548
19226TIP3    H179169   4.367   0.700   2.802  2.0896 -1.2034 -0.1440
19226TIP3    H279170   4.323   0.618   2.682 -3.4807  1.4634 -0.2269
19227TIP3   OH279171   0.051   0.385   3.440 -0.1694  0.8665 -0.7942
19227TIP3    H179172   0.066   0.297   3.406 -1.4220  1.1511 -2.2122
19227TIP3    H279173   0.119   0.439   3.400 -0.2593  0.7989 -1.0343
19228TIP3   OH279174   2.872   6.269  12.335 -0.2715  0.3398 -0.2459
19228TIP3    H179175   2.915   6.186  12.355 -1.0546 -0.4355 -1.5903
19228TIP3    H279176   2.778   6.249  12.340 -0.5578  1.9350  2.4217
19229TIP3   OH279177   5.451   0.413  12.513  0.3558 -0.1389 -0.4084
19229TIP3    H179178   5.455   0.327  12.471 -1.3527 -0.1570 -0.6118
19229TIP3    H279179   5.517   0.465  12.468  1.0730 -1.2049 -0.6130
19230TIP3   OH279180   2.390   6.225   3.932 -0.0441  0.0447  0.4126
19230TIP3    H179181   2.325   6.269   3.878  0.8995 -0.2501 -1.0191
19230TIP3    H279182   2.371   6.132   3.922  0.9768 -0.0763 -0.5480
19231TIP3   OH279183   2.802   4.272   1.976 -0.1103  0.2222 -0.6038
19231TIP3    H179184   2.819   4.353   2.025  0.9001 -1.0689  1.2991
19231TIP3    H279185   2.716   4.244   2.005 -0.1260  0.2002 -0.6711
19232TIP3   OH279186   1.317   5.223  14.572  0.0128  0.0984  0.4865
19232TIP3    H179187   1.236   5.180  14.599 -0.0247 -0.0321  0.1710
19232TIP3    H279188   1.291   5.312  14.550 -0.0599  0.0337  0.3092
19233TIP3   OH279189   4.874   3.292   0.906  0.1652 -0.4404  0.2586
19233TIP3    H179190   4.839   3.254   0.987 -1.2746 -0.0299 -0.1391
19233TIP3    H279191   4.934   3.360   0.935  0.2869 -0.8389  0.9740
19234TIP3   OH279192   6.566   0.195  13.272  0.4128 -0.3999  0.2077
19234TIP3    H179193   6.530   0.221  13.357 -0.5684  0.4911 -0.4536
19234TIP3    H279194   6.517   0.248  13.209  2.1435  0.0384 -0.8121
19235TIP3   OH279195   6.687   6.601  12.817  0.5603  0.2692 -0.0601
19235TIP3    H179196   6.728   6.524  12.778  2.2275  0.6776  0.7845
19235TIP3    H279197   6.756   6.668  12.817 -0.2999  1.1987  0.8529
19236TIP3   OH279198   3.970   5.541  12.099 -0.8619  0.5848  0.3066
19236TIP3    H179199   4.007   5.574  12.181 -0.9033  1.8457 -0.1606
19236TIP3    H279200   4.034   5.478  12.067 -0.6638  0.3706  1.1055
19237TIP3   OH279201   5.933   5.801  12.804  0.0574 -0.5581  0.1066
19237TIP3    H179202   5.992   5.806  12.879 -0.5926 -0.1373  0.6011
19237TIP3    H279203   5.897   5.712  12.807 -0.5061 -0.3130  0.7152
19238TIP3   OH279204   3.884   3.741   5.980 -0.1181 -0.3672 -0.3325
19238TIP3    H179205   3.877   3.739   5.885 -2.6361  0.4075 -0.2416
19238TIP3    H279206   3.906   3.832   6.001 -1.9160  0.0613 -0.1374
19239TIP3   OH279207   5.935   0.003   1.645  0.0198  0.3164 -0.2686
19239TIP3    H179208   6.028   0.015   1.660  0.2009  0.5798 -1.4558
19239TIP3    H279209   5.922   0.027   1.553 -0.8767 -1.6111 -0.7083
19240TIP3   OH279210   4.263   3.519   0.157 -0.0582  0.3960  0.0418
19240TIP3    H179211   4.324   3.525   0.083  0.0961  0.5044  0.1777
19240TIP3    H279212   4.249   3.425   0.168 -0.1287  0.3806 -0.1628
19241TIP3   OH279213   5.215   4.184   3.158 -0.1458  0.2445  0.3018
19241TIP3    H179214   5.160   4.134   3.098 -0.0819 -2.5083  2.3196
19241TIP3    H279215   5.302   4.148   3.147  0.3083  1.2305  0.5266
19242TIP3   OH279216   2.951   2.045   4.759 -0.5367  0.0287 -0.0824
19242TIP3    H179217   2.976   2.081   4.845 -0.8131 -1.5999  0.7228
19242TIP3    H279218   2.933   2.122   4.705  3.6414  1.3358  0.0057
19243TIP3   OH279219   5.629   0.923  14.575 -0.5107  0.1965 -0.0754
19243TIP3    H179220   5.630   0.846  14.518 -0.5165  0.5893 -0.6048
19243TIP3    H279221   5.689   0.985  14.534  0.2776  0.0953  0.8868
19244TIP3   OH279222   5.313   3.402  15.046 -0.2814 -0.2707  0.3570
19244TIP3    H179223   5.279   3.460  14.977  2.3667  0.6758 -0.2701
19244TIP3    H279224   5.260   3.322  15.038 -1.2926  0.5116 -1.5324
19245TIP3   OH279225   2.472   2.621   5.574  0.2411  0.3783 -0.5470
19245TIP3    H179226   2.540   2.555   5.572  0.1535  0.2871 -2.4770
19245TIP3    H279227   2.442   2.622   5.665 -0.0449 -2.5125 -0.5225
19246TIP3   OH279228   1.969   0.035  17.108 -0.1156 -0.1544  0.1765
19246TIP3    H179229   1.915   0.081  17.173 -1.0824 -1.2532  0.1878
19246TIP3    H279230   2.040  -0.004  17.159  0.7090  1.2657  0.1707
19247TIP3   OH279231   2.927   4.447  13.039  0.0080  0.6482 -0.1664
19247TIP3    H179232   2.867   4.373  13.032 -1.6453  1.8175  0.6982
19247TIP3    H279233   2.967   4.455  12.952 -0.4238 -0.7123 -0.5070
19248TIP3   OH279234   2.176   0.948  14.269 -0.2621 -0.8986 -0.2474
19248TIP3    H179235   2.185   0.868  14.321 -2.8292 -3.9274 -3.9357
19248TIP3    H279236   2.089   0.981  14.291  0.4474  0.4829  0.6134
19249TIP3   OH279237   3.421   1.275  16.173 -0.4728 -0.2027 -0.3477
19249TIP3    H179238   3.504   1.310  16.205 -0.0618 -2.2199  0.9841
19249TIP3    H279239   3.392   1.215  16.241 -2.0408 -1.0346 -1.6691
19250TIP3   OH279240   2.103   3.391   1.301  0.0397 -0.0804  0.1018
19250TIP3    H179241   2.022   3.407   1.252 -0.1341 -1.8709 -0.2748
19250TIP3    H279242   2.162   3.353   1.236  1.5082  1.9197  0.1753
19251TIP3   OH279243   5.434   2.047  10.998  0.3463  0.1050  0.2013
19251TIP3    H179244   5.523   2.042  11.033  0.7918 -0.3945 -0.9630
19251TIP3    H279245   5.445   2.080  10.909 -0.5792 -0.5938 -0.1836
19252TIP3   OH279246   3.540   1.923   2.802 -0.0910  0.1519 -0.4621
19252TIP3    H179247   3.575   1.984   2.737 -1.0518  0.2601 -0.9049
19252TIP3    H279248   3.445   1.940   2.802 -0.3706 -1.2930 -0.5450
19253TIP3   OH279249   5.834   1.397  13.961 -0.3185 -0.1314 -0.1307
19253TIP3    H179250   5.914   1.440  13.931 -0.2115 -0.5067 -0.4026
19253TIP3    H279251   5.781   1.386  13.881 -0.3138 -0.5545 -0.0783
19254TIP3   OH279252   1.673   1.396  13.566 -0.2862  0.3592 -0.0003
19254TIP3    H179253   1.670   1.358  13.478  0.1857 -4.0092  1.6342
19254TIP3    H279254   1.587   1.434  13.579 -0.7480  0.0805 -1.9169
19255TIP3   OH279255   3.001   1.676   3.145  0.5126  0.4463 -0.2469
19255TIP3    H179256   2.965   1.741   3.205  2.0185  0.9814  0.1227
19255TIP3    H279257   3.055   1.727   3.084 -2.0392  0.1194 -3.0227
19256TIP3   OH279258   1.382   0.839  16.893 -0.0562 -0.6458 -0.6175
19256TIP3    H179259   1.432   0.777  16.945  1.4171  0.8895 -0.1315
19256TIP3    H279260   1.446   0.905  16.866 -1.4217  0.2835 -1.7138
19257TIP3   OH279261   6.012   2.757  10.435 -0.4771  0.1576  0.5679
19257TIP3    H179262   6.098   2.764  10.394  0.5480 -1.2100  2.3501
19257TIP3    H279263   5.988   2.665  10.426 -2.4223  0.7485 -1.0623
19258TIP3   OH279264   2.196   6.350   4.972  0.0006  0.0586  0.2253
19258TIP3    H179265   2.230   6.405   5.042 -0.1451 -0.3098  0.5879
19258TIP3    H279266   2.164   6.271   5.016  0.9126 -0.6572 -0.3587
19259TIP3   OH279267   2.423   2.296   2.632  0.2529 -0.2819  0.1920
19259TIP3    H179268   2.386   2.298   2.720 -1.1592 -0.2993 -0.3821
19259TIP3    H279269   2.478   2.218   2.631  0.0298 -0.4541  0.9598
19260TIP3   OH279270   1.517   1.365  11.891 -0.3014  0.2237  0.7357
19260TIP3    H179271   1.570   1.429  11.938  2.7957 -1.5253 -0.0882
19260TIP3    H279272   1.507   1.292  11.951 -1.2381  0.2273  0.6128
19261TIP3   OH279273   3.996   5.101   4.616 -0.1742 -0.6740 -0.7352
19261TIP3    H179274   3.985   5.196   4.610  0.4896 -0.6214 -1.3006
19261TIP3    H279275   4.081   5.089   4.657 -0.2349 -1.0248 -0.7115
19262TIP3   OH279276   4.289   6.380   4.221 -0.1568  0.1413 -0.2442
19262TIP3    H179277   4.283   6.412   4.311 -0.0461 -1.7049  0.4703
19262TIP3    H279278   4.380   6.397   4.196  0.7224 -1.9890  1.1424
19263TIP3   OH279279   4.913   6.060   1.974 -0.0756  0.8374 -0.3989
19263TIP3    H179280   4.865   6.094   2.050 -1.3732  0.9235 -1.2373
19263TIP3    H279281   4.845   6.040   1.909  0.9380 -0.0659 -1.2231
19264TIP3   OH279282   2.299   0.202  11.798  0.4589 -0.2443 -0.2539
19264TIP3    H179283   2.364   0.273  11.794  0.3598 -0.0993  0.5574
19264TIP3    H279284   2.244   0.216  11.721 -0.9177  1.8888  1.0332
19265TIP3   OH279285   4.133   4.463  12.412 -0.1162  0.4023  0.2178
19265TIP3    H179286   4.176   4.548  12.403 -0.4877  0.4766 -0.9950
19265TIP3    H279287   4.085   4.469  12.495 -2.4986  2.4719 -1.1613
19266TIP3   OH279288   6.191   4.491  15.708 -0.1276 -0.1154  0.5123
19266TIP3    H179289   6.280   4.502  15.739  0.9472 -2.8351 -1.2233
19266TIP3    H279290   6.142   4.461  15.785  0.6230  0.6520  1.3027
19267TIP3   OH279291   3.602   4.306   6.221 -0.3830 -0.4804 -0.0621
19267TIP3    H179292   3.672   4.243   6.236  0.9024  0.3715 -2.1161
19267TIP3    H279293   3.524   4.266   6.260  0.6095 -2.8069 -0.3449
19268TIP3   OH279294   6.211   2.458   5.403 -0.3024  0.1475  0.1173
19268TIP3    H179295   6.224   2.546   5.439  0.6337 -0.1407  0.4977
19268TIP3    H279296   6.176   2.473   5.315  0.4126  0.9198 -0.0465
19269TIP3   OH279297   6.515   6.435  16.797 -1.0835 -0.4880  0.4023
19269TIP3    H179298   6.538   6.344  16.817 -0.2272 -0.0642  1.4660
19269TIP3    H279299   6.491   6.472  16.882 -1.0865  0.3806  0.0271
19270TIP3   OH279300   1.556   2.606   0.827 -0.6430  0.0509 -0.6245
19270TIP3    H179301   1.624   2.559   0.779 -0.9950 -1.4766  0.3201
19270TIP3    H279302   1.601   2.683   0.863  0.2466 -0.2171 -1.1234
19271TIP3   OH279303   4.634   6.412  11.043  0.1236 -0.9349  0.0303
19271TIP3    H179304   4.563   6.429  10.982 -0.0975 -2.5337 -0.1952
19271TIP3    H279305   4.688   6.347  11.000  1.2322 -0.4230  0.5956
19272TIP3   OH279306   5.596   3.480   2.226 -0.5512  0.2710 -0.3646
19272TIP3    H179307   5.561   3.471   2.137 -0.8483 -0.2246 -0.1988
19272TIP3    H279308   5.521   3.508   2.279 -0.2455  1.1335 -0.3695
19273TIP3   OH279309   6.653   6.648   0.346  0.1497 -0.4841  0.1116
19273TIP3    H179310   6.609   6.693   0.273 -0.7895  0.6140  1.3040
19273TIP3    H279311   6.731   6.702   0.363  0.6486 -1.0324 -0.3981
19274TIP3   OH279312   4.649   0.209  12.275 -0.4466 -0.4528 -0.1654
19274TIP3    H179313   4.639   0.274  12.344  0.2911 -0.1284 -0.3584
19274TIP3    H279314   4.742   0.208  12.257 -0.1566 -2.8126  1.0451
19275TIP3   OH279315   4.447   4.512   0.556  0.0467 -0.1331  0.2020
19275TIP3    H179316   4.360   4.478   0.577 -0.0377 -0.3122 -0.3960
19275TIP3    H279317   4.507   4.458   0.606 -0.1100 -0.9340 -0.4514
19276TIP3   OH279318   6.453   4.058  15.034 -0.1341 -0.2120  0.0608
19276TIP3    H179319   6.449   4.134  14.976  0.1337  0.6529  1.1374
19276TIP3    H279320   6.410   4.087  15.115  0.6067 -0.9541  0.7431
19277TIP3   OH279321   2.663   5.498  15.601  0.1354  0.0957  0.5741
19277TIP3    H179322   2.727   5.549  15.651  1.2704 -0.7075 -0.0068
19277TIP3    H279323   2.582   5.550  15.605  0.8619  1.2185  1.1982
19278TIP3   OH279324   3.120   2.255  14.657 -0.1926  0.3438  0.7682
19278TIP3    H179325   3.198   2.210  14.690  0.5925 -1.5506 -3.1237
19278TIP3    H279326   3.055   2.243  14.727  1.6361 -2.0888  2.2376
19279TIP3   OH279327   6.557   2.384  16.112  0.4269 -0.3800 -0.2592
19279TIP3    H179328   6.646   2.405  16.139  0.1774 -0.3795  0.5968
19279TIP3    H279329   6.523   2.330  16.184 -0.0850 -0.8130 -0.8223
19280TIP3   OH279330   1.009   4.201  13.193 -0.0888  0.1914 -0.0616
19280TIP3    H179331   1.013   4.131  13.258 -1.6601  0.7612  0.7037
19280TIP3    H279332   1.084   4.185  13.136  1.9113  0.1813  2.3978
19281TIP3   OH279333   3.548   5.128  11.449  0.2922 -0.0824  0.6087
19281TIP3    H179334   3.506   5.119  11.364  0.5710  0.9752  0.3425
19281TIP3    H279335   3.517   5.212  11.483 -0.2143 -0.7172  1.7835
19282TIP3   OH279336   1.946   4.421   2.951  0.2777 -0.0362  0.4650
19282TIP3    H179337   1.907   4.504   2.978 -0.9138  0.3566 -2.0905
19282TIP3    H279338   1.895   4.354   2.997 -0.6789  0.6080  0.3781
19283TIP3   OH279339   6.495   5.814  16.305  0.4159 -0.2868 -0.5587
19283TIP3    H179340   6.499   5.908  16.324 -0.8052 -0.5673  1.3390
19283TIP3    H279341   6.454   5.776  16.382  0.1057 -2.2943 -1.6541
19284TIP3   OH279342   6.626   4.068  12.080 -0.2513  0.3820 -0.3286
19284TIP3    H179343   6.653   4.053  12.170  0.2614 -1.9551 -0.8147
19284TIP3    H279344   6.572   4.147  12.084 -1.4871 -0.4965  2.2535
19285TIP3   OH279345   4.515   3.129   2.786 -0.0579 -0.1367 -0.1303
19285TIP3    H179346   4.578   3.178   2.839 -3.0393  2.7433  1.0781
19285TIP3    H279347   4.489   3.056   2.842  0.5144 -0.0246  0.2950
19286TIP3   OH279348   2.732   0.020   1.521 -0.4995 -0.0702  0.2886
19286TIP3    H179349   2.704  -0.006   1.433  0.5247  1.1432 -0.4307
19286TIP3    H279350   2.692  -0.044   1.579 -1.7494 -0.5085 -1.0007
19287TIP3   OH279351   4.493   1.989   0.479  0.2799 -0.1725 -0.3785
19287TIP3    H179352   4.575   2.033   0.459  0.9415 -1.2472 -0.1080
19287TIP3    H279353   4.499   1.904   0.435  0.6073 -1.4615  1.9759
19288TIP3   OH279354   3.959   1.053   1.350 -0.5199 -0.1884 -0.0173
19288TIP3    H179355   3.909   0.995   1.407 -1.3687  0.2650 -0.2958
19288TIP3    H279356   3.984   1.126   1.408 -0.2125 -0.3893  0.1079
19289TIP3   OH279357   2.746   1.130   3.948  0.5987  0.3510 -0.1286
19289TIP3    H179358   2.689   1.084   4.010  1.1042 -1.9443 -1.2382
19289TIP3    H279359   2.788   1.199   4.000 -1.1251  0.3492  1.3512
19290TIP3   OH279360   0.788   6.313  10.628 -0.5706  0.5928 -0.2336
19290TIP3    H179361   0.716   6.291  10.569  0.7976 -2.1738 -1.0438
19290TIP3    H279362   0.776   6.255  10.703  2.1060 -1.8273 -1.5269
19291TIP3   OH279363   5.290   5.413  17.121 -0.0482 -0.1598 -0.4728
19291TIP3    H179364   5.271   5.358  17.045 -2.2842 -0.4240  0.2147
19291TIP3    H279365   5.226   5.483  17.117  1.6994  1.5279 -0.3996
19292TIP3   OH279366   5.535   0.251   0.406  0.2191 -0.4117  0.0672
19292TIP3    H179367   5.542   0.233   0.312  2.2740  0.6788 -0.0300
19292TIP3    H279368   5.616   0.296   0.428 -1.4729  2.0338  1.7603
19293TIP3   OH279369   5.519   2.239   4.286 -0.0930  0.0419  0.1678
19293TIP3    H179370   5.593   2.262   4.342  0.3059 -0.7832  0.0022
19293TIP3    H279371   5.508   2.145   4.299  0.2436 -0.2394 -1.4109
19294TIP3   OH279372   2.595   2.801  11.726  0.1955  0.0932  0.3052
19294TIP3    H179373   2.662   2.832  11.665 -0.8004  0.4481 -0.6484
19294TIP3    H279374   2.644   2.757  11.796  1.3952  0.0723 -0.5207
19295TIP3   OH279375   0.088   1.229  11.108  0.1731 -0.1661  0.0118
19295TIP3    H179376   0.142   1.166  11.061 -1.1538 -0.7985 -0.7326
19295TIP3    H279377   0.097   1.310  11.057  0.6578 -0.1727  0.0793
19296TIP3   OH279378   2.281   0.821  15.030 -0.1222 -0.3349 -0.4393
19296TIP3    H179379   2.288   0.841  14.936 -0.1410 -0.9592 -0.5782
19296TIP3    H279380   2.366   0.846  15.066 -0.0479 -0.2714 -0.6554
19297TIP3   OH279381   4.226   5.596  12.561  0.4485 -0.2482  0.7672
19297TIP3    H179382   4.222   5.614  12.467  3.5296 -0.9857  0.3994
19297TIP3    H279383   4.201   5.678  12.602  1.0661  0.7286 -0.7282
19298TIP3   OH279384   4.080   0.468   1.255  0.5056 -0.2116 -0.6384
19298TIP3    H179385   4.105   0.393   1.199 -0.4775 -0.9912 -0.0670
19298TIP3    H279386   3.993   0.493   1.223  0.8832  0.7699 -0.8990
19299TIP3   OH279387   4.916   6.344  15.416  0.3931  0.0437 -0.5914
19299TIP3    H179388   4.961   6.419  15.378 -1.4051  0.2572 -2.4337
19299TIP3    H279389   4.900   6.285  15.343 -0.3669 -1.0365  0.4009
19300TIP3   OH279390   5.741   4.906  15.438  0.0691 -0.5921 -0.2993
19300TIP3    H179391   5.783   4.983  15.477  0.9589 -1.5000  0.6070
19300TIP3    H279392   5.718   4.851  15.512  0.9246 -1.9278 -0.9810
19301TIP3   OH279393   1.516   5.113   0.849 -0.1299 -0.2347  0.3071
19301TIP3    H179394   1.576   5.084   0.780 -1.0270 -1.2388 -0.0669
19301TIP3    H279395   1.435   5.136   0.803 -0.1968  0.6928  0.8570
19302TIP3   OH279396   0.979   5.103  15.672  0.9247 -0.2485  0.3385
19302TIP3    H179397   0.888   5.078  15.692  0.9457 -0.1797  0.5232
19302TIP3    H279398   1.018   5.119  15.758  1.1712 -0.4772  0.2689
19303TIP3   OH279399   1.790   2.836   5.955  0.3741 -0.5298  0.2839
19303TIP3    H179400   1.860   2.826   6.020 -0.0683 -1.3258  0.6540
19303TIP3    H279401   1.815   2.913   5.905  0.9496 -0.1561  1.1228
19304TIP3   OH279402   3.400   2.769   4.690 -0.8321  0.2194  0.3916
19304TIP3    H179403   3.410   2.673   4.690  1.4938  0.4094  1.0704
19304TIP3    H279404   3.414   2.794   4.599 -0.2601  0.0157  0.4227
19305TIP3   OH279405   2.136   1.041  11.886  0.0446  0.2697 -0.2993
19305TIP3    H179406   2.157   0.963  11.834 -0.6409 -0.2600  0.1993
19305TIP3    H279407   2.221   1.073  11.917  0.3932  0.1433 -1.0951
19306TIP3   OH279408   0.491   5.413   4.204 -0.6921 -0.5198 -0.5803
19306TIP3    H179409   0.449   5.401   4.119 -1.1599 -0.4212 -0.3701
19306TIP3    H279410   0.494   5.508   4.216 -0.7245 -0.5358 -0.4431
19307TIP3   OH279411   5.066   1.164  12.005  0.4480 -0.4005 -0.3236
19307TIP3    H179412   5.023   1.215  11.936 -2.3466 -2.0302  0.0813
19307TIP3    H279413   5.094   1.229  12.069 -0.7724  0.8198 -0.9887
19308TIP3   OH279414   3.503   0.608  14.170 -0.1407 -0.3706 -0.2751
19308TIP3    H179415   3.520   0.698  14.195 -0.3364 -0.9049  2.0077
19308TIP3    H279416   3.590   0.569  14.158  0.0203 -0.4302  0.9813
19309TIP3   OH279417   1.589   1.250   5.280 -0.2561  0.8162  0.9919
19309TIP3    H179418   1.525   1.315   5.307 -0.0972  1.0609  0.7853
19309TIP3    H279419   1.633   1.289   5.204 -2.0081 -0.6258 -0.8810
19310TIP3   OH279420   4.648   4.881  15.216  0.0556 -0.0697 -0.5331
19310TIP3    H179421   4.601   4.963  15.202 -0.8844 -0.2834  1.0564
19310TIP3    H279422   4.717   4.904  15.278 -1.8244 -0.8911  2.0426
19311TIP3   OH279423   3.480   0.766  15.848  0.2690  0.1984 -0.2128
19311TIP3    H179424   3.496   0.853  15.887  1.3577  0.2264 -0.6821
19311TIP3    H279425   3.535   0.707  15.899 -1.3170 -0.4318  0.8391
19312TIP3   OH279426   5.718   2.547  15.813  0.4564 -0.1910 -0.4104
19312TIP3    H179427   5.628   2.530  15.786 -0.2223 -0.5578  1.8678
19312TIP3    H279428   5.733   2.638  15.789 -0.9887  0.2656  0.2869
19313TIP3   OH279429   1.353   3.486  14.891 -0.5038  0.5208  0.0648
19313TIP3    H179430   1.419   3.546  14.927 -1.4509  1.3929  0.4105
19313TIP3    H279431   1.330   3.526  14.806 -0.0492 -0.1951 -0.4040
19314TIP3   OH279432   0.050   4.603   2.943 -0.1552 -0.1565  0.0450
19314TIP3    H179433   0.059   4.515   2.979 -4.0276 -1.4634 -1.7119
19314TIP3    H279434   0.067   4.661   3.017  2.0170 -2.2877  1.3796
19315TIP3   OH279435   2.414   2.635   5.863 -0.5950  0.6498  0.0876
19315TIP3    H179436   2.404   2.725   5.833  0.9010  0.6172 -0.5971
19315TIP3    H279437   2.337   2.619   5.916 -1.6636  1.8255 -1.0355
19316TIP3   OH279438   1.799   0.618   0.877  0.1403 -0.0820  0.7281
19316TIP3    H179439   1.803   0.687   0.943  0.7218 -0.5353  1.1806
19316TIP3    H279440   1.708   0.620   0.845  0.6650  2.3505 -0.8731
19317TIP3   OH279441   4.589   6.438  12.770 -0.3778 -0.3545 -0.5310
19317TIP3    H179442   4.556   6.478  12.690 -0.6129 -1.0991 -0.8120
19317TIP3    H279443   4.560   6.347  12.765 -0.0347 -0.5089  0.1994
19318TIP3   OH279444   0.856   4.761  12.978 -0.2253  0.5299 -0.2087
19318TIP3    H179445   0.919   4.698  12.944 -0.1499  1.2560 -1.4885
19318TIP3    H279446   0.792   4.708  13.025 -0.1816 -0.5062 -1.2740
19319TIP3   OH279447   3.108   3.823   0.891  0.0893 -0.0051  0.5138
19319TIP3    H179448   3.119   3.918   0.899  1.0595 -0.0046 -0.6056
19319TIP3    H279449   3.193   3.792   0.860 -0.3719 -1.1863  0.4023
19320TIP3   OH279450   3.045   1.324  15.247  0.7852  0.5328  0.1582
19320TIP3    H179451   3.086   1.367  15.322  0.0654  1.2768  0.1338
19320TIP3    H279452   3.119   1.291  15.195  1.3107 -2.6324  2.6179
19321TIP3   OH279453   2.529   2.240  17.083 -0.6169  0.0892  0.2931
19321TIP3    H179454   2.433   2.232  17.080 -0.6497  0.7800 -1.1869
19321TIP3    H279455   2.557   2.222  16.993  0.8736 -2.5064  1.1592
19322TIP3   OH279456   6.628   0.200   4.848 -0.4791 -0.1392 -0.2442
19322TIP3    H179457   6.619   0.295   4.843  1.4332  0.0351 -1.2301
19322TIP3    H279458   6.651   0.183   4.940  1.9913  0.6994 -0.6259
19323TIP3   OH279459   0.156   4.995   3.621  0.0946 -0.4454  0.4782
19323TIP3    H179460   0.241   4.968   3.657 -0.0392  0.1162  1.2358
19323TIP3    H279461   0.170   5.084   3.589 -0.1045 -0.5001  0.2353
19324TIP3   OH279462   3.849   5.768   2.207  0.0571 -0.5327 -0.2003
19324TIP3    H179463   3.904   5.813   2.271  1.5836 -1.5691 -0.7345
19324TIP3    H279464   3.802   5.838   2.162  0.1547  0.3073  0.9589
19325TIP3   OH279465   4.626   0.984  14.299  0.1046 -0.3671 -0.3307
19325TIP3    H179466   4.541   0.948  14.275  0.5666 -0.9840 -1.0950
19325TIP3    H279467   4.684   0.961  14.226  0.8307  0.4199 -0.0306
19326TIP3   OH279468   2.555   1.280  13.586  0.7515  0.0473 -0.0365
19326TIP3    H179469   2.636   1.326  13.609  0.6041  0.2463  0.0956
19326TIP3    H279470   2.547   1.211  13.652 -0.4984  1.6031  1.5481
19327TIP3   OH279471   2.286   0.855  11.725  0.1718  0.5492  0.2373
19327TIP3    H179472   2.381   0.846  11.732  0.0116 -1.5590  0.2944
19327TIP3    H279473   2.263   0.810  11.644 -1.0651 -1.9538  1.8657
19328TIP3   OH279474   1.018   6.100   2.960 -0.2968  0.1666 -0.9190
19328TIP3    H179475   0.972   6.104   2.876 -0.1533 -1.3306 -1.0991
19328TIP3    H279476   1.107   6.130   2.940 -0.1569 -0.5488 -1.3944
19329TIP3   OH279477   6.590   4.214   0.599  0.4674  0.1233  0.0854
19329TIP3    H179478   6.665   4.185   0.651  0.5823  0.5922  0.1896
19329TIP3    H279479   6.599   4.309   0.596  0.6362  0.0837 -1.0608
19330TIP3   OH279480   6.444   3.312  17.189 -0.7598  0.3153  0.0840
19330TIP3    H179481   6.489   3.352  17.263 -0.4068  1.6385 -0.8221
19330TIP3    H279482   6.360   3.358  17.184 -1.0713 -0.2354  0.0552
19331TIP3   OH279483   5.646   5.990   3.055  0.4198 -0.3646 -0.2076
19331TIP3    H179484   5.553   5.970   3.062  0.5785 -1.0233  0.1034
19331TIP3    H279485   5.656   6.029   2.968 -0.2962  0.5838  0.1331
19332TIP3   OH279486   5.321   5.387   5.134  0.3188 -0.5282  0.2332
19332TIP3    H179487   5.246   5.411   5.188  0.3532  1.1772 -0.4101
19332TIP3    H279488   5.395   5.384   5.195  0.3984  1.5873  0.3195
19333TIP3   OH279489   2.336   3.630  11.340 -0.3551 -0.2831 -0.8193
19333TIP3    H179490   2.347   3.726  11.335 -0.2670 -0.3510 -3.1227
19333TIP3    H279491   2.242   3.617  11.337 -0.4025 -0.2507  0.3880
19334TIP3   OH279492   0.541   1.205  15.673  0.4164 -0.1505  0.5995
19334TIP3    H179493   0.607   1.275  15.667  1.0822 -0.8063  0.1256
19334TIP3    H279494   0.587   1.132  15.716  0.4995 -1.1776 -1.1557
19335TIP3   OH279495   6.002   5.148  12.396 -0.1365 -0.9961  0.1917
19335TIP3    H179496   5.979   5.201  12.472  2.4859 -1.0497  1.1471
19335TIP3    H279497   5.937   5.171  12.329 -1.6002  0.2012  1.9345
19336TIP3   OH279498   1.543   0.331  11.899  1.0501 -0.0861  0.0565
19336TIP3    H179499   1.511   0.271  11.832 -0.2968  0.5674  0.0789
19336TIP3    H279500   1.566   0.274  11.973  0.7258 -0.6627 -0.2754
19337TIP3   OH279501   4.804   5.374   2.917 -0.6124 -0.8073  0.2534
19337TIP3    H179502   4.710   5.380   2.937 -1.5104  0.9634 -3.5519
19337TIP3    H279503   4.813   5.288   2.875 -1.0224 -0.1437 -1.2388
19338TIP3   OH279504   1.007   4.593  12.815 -0.1917  0.3492  0.4095
19338TIP3    H179505   1.007   4.499  12.801  0.4459  0.0742  2.0549
19338TIP3    H279506   1.099   4.615  12.831 -0.2015  1.4096 -0.8284
19339TIP3   OH279507   3.982   0.058  17.157  0.1612 -0.3029 -0.3833
19339TIP3    H179508   3.895   0.035  17.191  0.1990 -1.8656 -1.2365
19339TIP3    H279509   4.039   0.056  17.234 -0.2797 -0.8962 -0.0645
19340TIP3   OH279510   6.314   4.504   5.956 -0.1680  0.1029 -0.0785
19340TIP3    H179511   6.322   4.458   6.039  0.4803  1.2113  0.4911
19340TIP3    H279512   6.404   4.525   5.932 -0.1557 -1.7580 -1.9972
19341TIP3   OH279513   5.288   3.628  16.125 -0.3583  0.1573  0.2153
19341TIP3    H179514   5.379   3.628  16.155 -0.9529  0.4059  2.1756
19341TIP3    H279515   5.272   3.719  16.099 -0.1535  0.1878  0.1919
19342TIP3   OH279516   5.262   6.638   1.941 -0.1650 -0.0425 -0.0282
19342TIP3    H179517   5.262   6.733   1.926  0.4762  0.0630  0.6028
19342TIP3    H279518   5.352   6.619   1.970  0.3719 -1.1767 -2.2308
19343TIP3   OH279519   2.021   0.492  16.735 -0.3508  0.2233 -0.7565
19343TIP3    H179520   2.023   0.437  16.814 -2.5115  1.8846  0.5624
19343TIP3    H279521   1.994   0.432  16.666 -0.4905 -0.8411  0.1809
19344TIP3   OH279522   1.596   0.041  13.795 -0.1120 -0.2080  0.6605
19344TIP3    H179523   1.510   0.077  13.816 -1.1933 -1.6787 -0.9384
19344TIP3    H279524   1.619   0.081  13.712  0.5662 -0.1461  0.8716
19345TIP3   OH279525   6.640   5.068   4.718  0.0054 -0.0224 -0.3399
19345TIP3    H179526   6.593   5.151   4.727  0.8461  0.6033 -1.5312
19345TIP3    H279527   6.572   5.004   4.697 -0.7907  0.1239  1.5289
19346TIP3   OH279528   1.144   5.712   3.487  0.3128 -0.3957  0.2086
19346TIP3    H179529   1.102   5.781   3.435  0.7822 -0.3707 -0.1371
19346TIP3    H279530   1.071   5.655   3.513 -0.1577  0.5177  0.9505
19347TIP3   OH279531   2.776   4.990  14.003  0.4725 -0.7452 -0.1320
19347TIP3    H179532   2.720   5.064  13.983 -0.4153 -1.2885  0.2901
19347TIP3    H279533   2.825   4.974  13.922 -1.2653 -1.3660 -1.0920
19348TIP3   OH279534   4.708   4.752  10.298  0.2285 -0.0560 -0.5028
19348TIP3    H179535   4.646   4.702  10.351 -0.0681 -0.3319 -1.0922
19348TIP3    H279536   4.794   4.721  10.325  0.2485  1.6946  1.7103
19349TIP3   OH279537   0.817   6.681  16.851 -0.1404 -0.2163  0.3173
19349TIP3    H179538   0.772   6.719  16.775  0.6103 -0.7678 -0.4176
19349TIP3    H279539   0.803   6.586  16.841  0.3277 -0.3190  0.6349
19350TIP3   OH279540   2.420   4.071   2.342  0.3003  0.0367  0.6742
19350TIP3    H179541   2.340   4.117   2.369  0.5088  0.5357  0.4495
19350TIP3    H279542   2.464   4.050   2.425 -1.0336 -2.0536  0.9289
19351TIP3   OH279543   5.950   3.012   6.446 -0.1675 -0.2147  0.6032
19351TIP3    H179544   5.873   2.955   6.445 -1.1492  1.0620  1.0462
19351TIP3    H279545   6.015   2.964   6.395 -0.8759 -1.8200  1.1209
19352TIP3   OH279546   5.837   3.800   0.830 -0.0510  0.1545 -0.3368
19352TIP3    H179547   5.926   3.767   0.825  0.8210  1.7869  2.2192
19352TIP3    H279548   5.799   3.756   0.906 -0.5753  1.2481  0.0569
19353TIP3   OH279549   4.969   5.012  15.109  0.6505 -0.6276 -0.2344
19353TIP3    H179550   4.978   5.030  15.202 -0.0285 -0.8971 -0.1141
19353TIP3    H279551   4.956   4.917  15.103  1.7647 -0.7727 -0.6883
19354TIP3   OH279552   3.646   6.012   2.203  0.1284  0.4154  0.8328
19354TIP3    H179553   3.618   6.075   2.137 -1.8620  0.2102  1.4093
19354TIP3    H279554   3.609   6.046   2.285 -0.7505 -1.3131  1.1997
19355TIP3   OH279555   5.761   3.694  13.072 -0.0610  0.9724 -1.1747
19355TIP3    H179556   5.692   3.630  13.084 -1.2034  1.5230 -3.9134
19355TIP3    H279557   5.825   3.675  13.141 -1.0461 -2.1259 -0.9751
19356TIP3   OH279558   3.592   5.480  12.263 -0.1760 -0.1275 -0.3627
19356TIP3    H179559   3.609   5.548  12.328  0.5028 -0.2791 -0.3755
19356TIP3    H279560   3.620   5.519  12.180 -0.7007 -0.0689 -0.5199
19357TIP3   OH279561   5.350   6.376  16.546 -0.2315 -0.0690 -0.0347
19357TIP3    H179562   5.293   6.320  16.598 -0.0211  0.4438  0.7687
19357TIP3    H279563   5.432   6.378  16.594 -0.7976  2.3836  0.9676
19358TIP3   OH279564   4.427   6.738  11.794  0.1852  0.1898  0.0026
19358TIP3    H179565   4.444   6.822  11.837  0.0346  0.7428 -0.9961
19358TIP3    H279566   4.370   6.760  11.721 -1.2915 -1.0296  0.7348
19359TIP3   OH279567   1.372   5.702  16.857  0.1930 -0.1065  0.4102
19359TIP3    H179568   1.439   5.770  16.862 -0.5196  0.5812  0.7716
19359TIP3    H279569   1.407   5.638  16.795  0.8776  0.5790  0.0833
19360TIP3   OH279570   3.803   2.131  13.877  0.0594 -0.4264 -0.4044
19360TIP3    H179571   3.854   2.150  13.956 -0.3375  1.2079 -0.4915
19360TIP3    H279572   3.869   2.127  13.807  0.1378  1.8042 -0.5382
19361TIP3   OH279573   3.442   5.699   0.567  0.2513 -0.4850  0.2216
19361TIP3    H179574   3.403   5.778   0.605  0.3073 -0.6622  0.6422
19361TIP3    H279575   3.386   5.680   0.491  0.2466 -0.0333  0.1091
19362TIP3   OH279576   1.191   2.768   3.319 -0.2841  0.0330  0.1187
19362TIP3    H179577   1.223   2.850   3.282  1.0995 -0.5880 -0.1124
19362TIP3    H279578   1.267   2.729   3.361 -1.2341 -0.5077  1.4139
19363TIP3   OH279579   2.635   4.585   1.393  0.1411 -0.2062 -0.1819
19363TIP3    H179580   2.614   4.664   1.343  0.5127  1.4164  2.0742
19363TIP3    H279581   2.561   4.526   1.377 -1.8356  1.8926  0.6159
19364TIP3   OH279582   1.669   6.238  15.832 -0.1313 -0.4171 -0.2775
19364TIP3    H179583   1.593   6.185  15.808 -1.1799  1.2529 -0.9140
19364TIP3    H279584   1.675   6.303  15.761  2.0371 -0.6275 -0.3432
19365TIP3   OH279585   3.626   4.204  14.595  0.1075 -0.1296  0.0688
19365TIP3    H179586   3.673   4.287  14.588 -0.0506 -0.0083  0.4179
19365TIP3    H279587   3.538   4.229  14.622  0.0900 -0.4172  0.2845
19366TIP3   OH279588   0.805   5.534   4.712 -0.2398 -0.1199  0.4520
19366TIP3    H179589   0.763   5.475   4.775  0.2182  1.0686  1.9272
19366TIP3    H279590   0.737   5.552   4.647 -1.3895  0.1929  1.7016
19367TIP3   OH279591   6.213   5.974   5.657 -0.3329 -0.2006  0.3093
19367TIP3    H179592   6.209   6.062   5.620 -0.2616 -0.8869 -1.4254
19367TIP3    H279593   6.245   5.987   5.746 -0.2360  1.5120  0.0627
19368TIP3   OH279594   6.139   1.539  15.335 -0.2678  0.7458 -0.2731
19368TIP3    H179595   6.193   1.460  15.342  0.9578  1.5655 -0.2980
19368TIP3    H279596   6.053   1.511  15.367  0.2495 -0.4871  0.1230
19369TIP3   OH279597   6.768   3.585   1.471  0.0199  0.2663  0.1994
19369TIP3    H179598   6.858   3.619   1.469  0.0213  0.2705  0.2929
19369TIP3    H279599   6.763   3.536   1.554 -0.6360  1.8490  1.1436
19370TIP3   OH279600   4.530   4.104  11.430 -0.4644  0.4004 -0.5401
19370TIP3    H179601   4.599   4.072  11.488  0.4349  2.0172 -0.6628
19370TIP3    H279602   4.543   4.055  11.348  0.6967  0.8433 -0.6364
19371TIP3   OH279603   4.349   0.639  17.135 -0.7334 -0.3641 -0.0421
19371TIP3    H179604   4.262   0.669  17.110 -0.0627  1.0299 -0.8154
19371TIP3    H279605   4.353   0.547  17.106 -2.5368 -1.0312  1.6140
19372TIP3   OH279606   0.539   1.025   3.629 -0.1436 -0.1724 -0.0414
19372TIP3    H179607   0.618   0.997   3.676 -1.2393 -0.3714  1.7553
19372TIP3    H279608   0.477   1.048   3.698 -1.8404 -0.4792 -1.4056
19373TIP3   OH279609   1.727   5.298   0.318 -0.2790  0.2656  0.1005
19373TIP3    H179610   1.741   5.261   0.231  1.2323  0.3884  0.2726
19373TIP3    H279611   1.659   5.365   0.305 -1.0269 -0.6283 -0.7207
19374TIP3   OH279612   4.713   3.660   1.186  0.5886 -0.3779  0.4218
19374TIP3    H179613   4.718   3.587   1.125  0.0269 -1.1195  1.2426
19374TIP3    H279614   4.780   3.641   1.252  0.9946  0.2695  0.2085
19375TIP3   OH279615   2.870   2.042   3.761 -0.1236  0.2948  0.1461
19375TIP3    H179616   2.818   1.974   3.718  0.4230  0.3323 -0.6045
19375TIP3    H279617   2.943   1.995   3.801  0.3008  0.4426 -0.4454
19376TIP3   OH279618   4.817   5.552   4.618  0.5501  0.4137  0.7441
19376TIP3    H179619   4.797   5.517   4.532  0.3240  2.1948  0.0267
19376TIP3    H279620   4.758   5.506   4.678  1.0084 -1.1532  0.0398
19377TIP3   OH279621   2.040   3.273  15.471  0.4460  0.7017 -0.2343
19377TIP3    H179622   2.018   3.294  15.380 -2.1502  1.7354  0.5354
19377TIP3    H279623   2.099   3.198  15.465  0.7516  1.0582 -2.7692
19378TIP3   OH279624   2.732   2.231  14.723 -0.0684  0.3713  0.6136
19378TIP3    H179625   2.675   2.307  14.718  1.3074  1.3788 -1.6112
19378TIP3    H279626   2.696   2.169  14.659 -0.6619 -0.5212  1.7647
19379TIP3   OH279627   2.173   2.329  14.226 -0.2030  0.3839 -0.3853
19379TIP3    H179628   2.092   2.291  14.260 -0.7495  0.6822 -1.3166
19379TIP3    H279629   2.163   2.423  14.241 -1.1093  0.6959 -2.6270
19380TIP3   OH279630   3.737   0.496   3.333  0.4545 -0.2537  0.0796
19380TIP3    H179631   3.788   0.507   3.253  1.1384 -0.6262  0.4595
19380TIP3    H279632   3.787   0.543   3.400 -0.3123  0.3884  0.2149
19381TIP3   OH279633   6.285   2.101  16.200 -0.4293  0.0209  0.0661
19381TIP3    H179634   6.246   2.017  16.174  0.3289  0.5072 -3.0435
19381TIP3    H279635   6.320   2.137  16.119  2.5366  1.6930  1.9131
19382TIP3   OH279636   6.437   2.143  15.019  0.2297  0.3759  0.6517
19382TIP3    H179637   6.350   2.109  14.998  0.6830  0.6248 -1.8757
19382TIP3    H279638   6.489   2.065  15.038  0.1489 -0.0149 -0.6565
19383TIP3   OH279639   2.701   5.248   3.320 -0.1350 -0.1743 -0.1658
19383TIP3    H179640   2.676   5.233   3.229 -0.4517  2.4841 -0.6136
19383TIP3    H279641   2.647   5.323   3.347  0.6213 -0.3242  1.9070
19384TIP3   OH279642   5.869   6.527  15.338  0.5834 -0.4782 -0.0766
19384TIP3    H179643   5.824   6.579  15.405  2.0252 -0.0234  0.5759
19384TIP3    H279644   5.798   6.494  15.282 -0.4149  2.0511 -0.4442
19385TIP3   OH279645   1.649   5.044  14.616  0.4751 -0.2289 -0.4074
19385TIP3    H179646   1.659   5.116  14.678 -1.1467 -0.5286  0.2591
19385TIP3    H279647   1.633   5.086  14.531 -0.1239  0.2039 -0.0837
19386TIP3   OH279648   2.450   3.426   4.526 -0.2257 -0.1266 -0.3588
19386TIP3    H179649   2.467   3.343   4.569  0.7607  0.9169  1.3754
19386TIP3    H279650   2.519   3.432   4.459  0.3615 -0.2547  0.2170
19387TIP3   OH279651   2.726   6.741  11.695  0.1534  0.0072  0.8235
19387TIP3    H179652   2.747   6.832  11.717 -0.4185  0.5909 -0.8572
19387TIP3    H279653   2.807   6.693  11.712  0.4573  0.8122  1.7725
19388TIP3   OH279654   1.450   6.400   5.611 -0.4704 -0.2491 -0.2922
19388TIP3    H179655   1.467   6.354   5.529  1.0925  0.3912 -0.3666
19388TIP3    H279656   1.537   6.420   5.646 -1.0961 -0.3039  1.4186
19389TIP3   OH279657   1.589   0.105  13.518 -0.2808  0.4307  0.2868
19389TIP3    H179658   1.513   0.074  13.468  1.7336 -2.3387 -1.3343
19389TIP3    H279659   1.641   0.154  13.454  1.1558 -1.0737  0.2553
19390TIP3   OH279660   2.033   6.671   1.882  0.4068  0.0821  0.0160
19390TIP3    H179661   2.030   6.576   1.871 -0.9987  0.1509 -0.3744
19390TIP3    H279662   2.115   6.697   1.840  2.1710 -1.1956  2.3816
19391TIP3   OH279663   0.660   0.940  11.279 -0.3194  0.5324 -0.0495
19391TIP3    H179664   0.713   1.011  11.315 -0.8480  0.8623  0.0924
19391TIP3    H279665   0.591   0.984  11.229 -0.3881  0.1068 -0.3380
19392TIP3   OH279666   4.248   0.412   5.078 -0.0605 -0.0859  0.4772
19392TIP3    H179667   4.285   0.336   5.034  0.2260  0.4200 -0.1804
19392TIP3    H279668   4.155   0.410   5.057 -0.2536 -0.8467  1.3611
19393TIP3   OH279669   4.965   4.361   2.410  0.4986 -0.8700  0.4061
19393TIP3    H179670   5.007   4.381   2.326 -1.5274  1.1165 -0.2576
19393TIP3    H279671   5.000   4.275   2.435  1.9055 -1.0822 -1.9745
19394TIP3   OH279672   2.038   1.826  13.995 -0.0998 -0.2655  0.2831
19394TIP3    H179673   2.091   1.792  13.923  0.5687  2.0873 -0.3973
19394TIP3    H279674   1.947   1.814  13.966  0.1102 -1.1640 -0.0398
19395TIP3   OH279675   5.018   6.030   2.255 -0.0255  0.1183  0.3133
19395TIP3    H179676   5.049   5.987   2.335 -0.1268 -0.1291  0.2199
19395TIP3    H279677   5.095   6.036   2.199 -0.5308 -2.2880 -0.7307
19396TIP3   OH279678   5.619   6.131   5.660 -0.1476 -0.4842 -0.0776
19396TIP3    H179679   5.564   6.193   5.709  1.7470  0.9477  0.3407
19396TIP3    H279680   5.592   6.045   5.693 -1.1445  0.2546  1.1505
19397TIP3   OH279681   5.000   4.354  14.328 -0.3011  0.0346 -0.2208
19397TIP3    H179682   5.049   4.273  14.339  1.7813  1.4395  1.5325
19397TIP3    H279683   4.985   4.386  14.417 -0.2257  2.0571 -0.8744
19398TIP3   OH279684   4.945   0.141  15.846 -0.6945  0.4312  0.5297
19398TIP3    H179685   4.862   0.129  15.892 -0.7931  1.1160  0.5492
19398TIP3    H279686   4.952   0.236  15.836 -0.5217  0.3122 -0.5860
19399TIP3   OH279687   0.459   6.148  16.078  0.1660 -0.3742  0.1058
19399TIP3    H179688   0.545   6.185  16.060 -0.6765  0.9933 -1.4420
19399TIP3    H279689   0.445   6.086  16.006 -1.0391  1.1313 -1.0268
19400TIP3   OH279690   0.718   6.579  12.988  0.0644  0.2262 -0.2513
19400TIP3    H179691   0.721   6.616  13.076  1.8120 -0.4074 -0.0179
19400TIP3    H279692   0.756   6.647  12.932 -0.3027  0.3087 -0.4044
19401TIP3   OH279693   5.604   6.344  14.756  0.4153 -0.1887 -0.1462
19401TIP3    H179694   5.697   6.323  14.766  0.1083 -1.9108 -0.5908
19401TIP3    H279695   5.590   6.343  14.661 -0.0908 -0.0755 -0.0731
19402TIP3   OH279696   2.707   4.593   4.629  0.2572 -0.2117 -0.1672
19402TIP3    H179697   2.767   4.633   4.566  1.1685  0.1073  0.8669
19402TIP3    H279698   2.624   4.638   4.615 -0.2393 -1.7761 -2.7231
19403TIP3   OH279699   2.440   2.824   0.992  0.2705  0.4280  0.4441
19403TIP3    H179700   2.461   2.897   1.051 -1.2103  0.4573  0.9613
19403TIP3    H279701   2.372   2.775   1.038  0.3054 -0.5257 -0.5008
19404TIP3   OH279702   3.436   5.967   4.874 -0.3017  0.0448  0.1869
19404TIP3    H179703   3.458   5.974   4.967 -0.4881 -0.4692  0.2754
19404TIP3    H279704   3.362   5.907   4.872  1.1862 -1.8912 -0.4775
19405TIP3   OH279705   3.510   5.533  16.955 -0.3417 -0.2222  0.3609
19405TIP3    H179706   3.474   5.454  16.916  0.2355 -0.3874  0.1433
19405TIP3    H279707   3.437   5.594  16.958  0.0138  0.6115 -3.0766
19406TIP3   OH279708   5.495   1.897   6.670 -0.4584 -0.1954 -0.2205
19406TIP3    H179709   5.443   1.863   6.597  1.0013  0.1111 -1.4546
19406TIP3    H279710   5.486   1.831   6.739 -2.7266  0.0073 -0.2207
19407TIP3   OH279711   1.687   6.305  16.207  0.0311 -0.1520  0.0512
19407TIP3    H179712   1.635   6.384  16.224  0.5751  0.1740  0.2344
19407TIP3    H279713   1.631   6.252  16.150 -0.2129  0.5112 -0.3452
19408TIP3   OH279714   3.448   3.507  16.545 -0.4228 -0.3857  0.3871
19408TIP3    H179715   3.429   3.601  16.537  0.3559 -0.1643  1.0566
19408TIP3    H279716   3.375   3.464  16.499  1.1907  0.6195 -3.5674
19409TIP3   OH279717   0.242   6.626  14.317 -0.0300 -0.3237  0.9633
19409TIP3    H179718   0.172   6.613  14.381  0.7046  0.6833  2.0090
19409TIP3    H279719   0.198   6.668  14.243 -0.4616  0.8224  1.8390
19410TIP3   OH279720   0.956   5.259   4.210  0.0765 -0.6437  0.5085
19410TIP3    H179721   1.000   5.335   4.248  0.6415 -0.7741  0.1258
19410TIP3    H279722   0.928   5.207   4.284 -0.5605  0.0752  0.7865
19411TIP3   OH279723   1.463   6.205  12.174 -0.2671 -0.4995  0.5225
19411TIP3    H179724   1.424   6.134  12.225 -1.2993  0.2986  0.8759
19411TIP3    H279725   1.455   6.282  12.230 -0.1144  0.1089 -0.2731
19412TIP3   OH279726   2.216   5.571   1.748  0.2100  0.3128  0.3051
19412TIP3    H179727   2.282   5.573   1.678 -1.5660 -0.8928 -1.5121
19412TIP3    H279728   2.257   5.522   1.819  0.5344 -2.5036 -1.6810
19413TIP3   OH279729   0.347   6.779   6.028 -0.0419  0.1396  0.5706
19413TIP3    H179730   0.439   6.752   6.032  0.0823  0.3486 -0.5947
19413TIP3    H279731   0.349   6.874   6.024 -0.1970  0.1004 -1.3258
19414TIP3   OH279732   3.544   0.690  11.704  0.0950 -0.4020 -0.1571
19414TIP3    H179733   3.490   0.751  11.655  0.2095  0.0591  0.2778
19414TIP3    H279734   3.624   0.739  11.724  0.4737 -0.9152 -0.3771
19415TIP3   OH279735   2.540   6.543   2.713 -0.0391 -0.1975 -0.2713
19415TIP3    H179736   2.527   6.483   2.785 -2.3456 -0.3019 -0.7001
19415TIP3    H279737   2.474   6.519   2.648  0.4078  1.3858 -1.4047
19416TIP3   OH279738   3.959   6.533   3.725 -0.1207 -0.3015 -0.0543
19416TIP3    H179739   4.027   6.568   3.668  1.2875 -0.7553  1.3025
19416TIP3    H279740   4.004   6.510   3.806 -2.0514  0.2509  1.2424
19417TIP3   OH279741   6.007   0.052  16.146 -0.2109  0.3174 -0.2254
19417TIP3    H179742   5.918   0.067  16.179 -1.2143 -2.6898 -1.2582
19417TIP3    H279743   6.005   0.085  16.056 -0.9229 -1.4541 -0.8896
19418TIP3   OH279744   0.087   4.752   5.999  0.2905 -0.2776 -0.3456
19418TIP3    H179745   0.118   4.708   6.079 -0.9973 -1.1582 -0.3029
19418TIP3    H279746   0.130   4.704   5.928 -1.4847 -2.0340 -0.3237
19419TIP3   OH279747   2.579   2.879  12.651  0.1857  0.4316  0.2857
19419TIP3    H179748   2.507   2.931  12.686 -0.9044  0.0955 -1.3396
19419TIP3    H279749   2.540   2.829  12.579  1.5348 -1.5059  0.8153
19420TIP3   OH279750   3.150   3.307  14.202  0.2277 -0.3699  0.0163
19420TIP3    H179751   3.188   3.220  14.198  0.5996 -0.2969  1.4436
19420TIP3    H279752   3.059   3.295  14.175  0.8166 -0.7968 -1.9718
19421TIP3   OH279753   6.080   2.985   3.612  0.4847  1.0214 -0.3471
19421TIP3    H179754   6.108   3.070   3.579  1.3736  0.7522 -0.3031
19421TIP3    H279755   6.125   2.922   3.556  0.3975  0.5719  0.0844
19422TIP3   OH279756   5.676   4.353   5.884  0.5418 -0.0634 -0.4133
19422TIP3    H179757   5.768   4.354   5.859  0.9170 -0.6651  0.8291
19422TIP3    H279758   5.648   4.263   5.869  0.0658  0.1815 -1.0433
19423TIP3   OH279759   1.695   5.179   1.704  0.0903  0.7800 -0.2157
19423TIP3    H179760   1.694   5.114   1.775  1.3617  0.6348 -0.3237
19423TIP3    H279761   1.651   5.135   1.631  2.8140 -0.8612 -1.0242
19424TIP3   OH279762   0.212   4.687   4.104  0.1622  0.2090  0.2245
19424TIP3    H179763   0.178   4.609   4.060  1.7468  0.1266 -0.9403
19424TIP3    H279764   0.151   4.703   4.176 -1.5182 -0.7183 -0.9318
19425TIP3   OH279765   3.383   1.535  11.304 -0.1891  0.1701 -0.1343
19425TIP3    H179766   3.405   1.628  11.313  0.8644  0.0501 -1.1745
19425TIP3    H279767   3.320   1.532  11.231 -0.3164  0.0721 -0.0220
19426TIP3   OH279768   6.283   1.284  15.462  0.0927 -0.2285 -0.0978
19426TIP3    H179769   6.256   1.255  15.375 -0.8128  1.2917 -0.3560
19426TIP3    H279770   6.255   1.214  15.520 -1.5797 -0.1295 -0.7429
19427TIP3   OH279771   6.505   1.478   4.290  0.2947  0.5103 -0.0621
19427TIP3    H179772   6.572   1.504   4.354 -0.9337  0.1691  1.4119
19427TIP3    H279773   6.554   1.429   4.224  1.6552  1.1235  0.4433
19428TIP3   OH279774   1.585   0.035   0.375 -0.7264  0.2106  0.0026
19428TIP3    H179775   1.565   0.095   0.303  0.8668 -0.6926 -1.2796
19428TIP3    H279776   1.513   0.047   0.437 -1.7446  1.6145 -1.3575
19429TIP3   OH279777   3.397   5.180   0.033  0.8829  0.0444  0.0551
19429TIP3    H179778   3.407   5.259   0.085  0.5426  0.7220 -0.8845
19429TIP3    H279779   3.398   5.109   0.097  1.8430  0.7523  0.8484
19430TIP3   OH279780   3.887   1.096  16.770  0.3602  0.6830 -0.1990
19430TIP3    H179781   3.951   1.164  16.751 -0.6537  1.0440 -2.6308
19430TIP3    H279782   3.802   1.140  16.763 -0.2590 -0.2545  0.8780
19431TIP3   OH279783   4.023   1.141  11.338 -0.2217 -0.3241  0.2152
19431TIP3    H179784   4.117   1.140  11.316 -0.5497 -0.5763 -1.2531
19431TIP3    H279785   4.015   1.213  11.401  0.9255 -0.1845  0.2374
19432TIP3   OH279786   5.717   2.076  13.460  0.1703 -0.1031  0.0367
19432TIP3    H179787   5.625   2.101  13.447  0.3617 -0.1581 -1.7035
19432TIP3    H279788   5.764   2.160  13.459  0.1422 -0.0590  1.1295
19433TIP3   OH279789   5.266   5.535   2.487 -0.4487  0.5006  0.0113
19433TIP3    H179790   5.321   5.488   2.423 -1.9236  0.8784 -1.6075
19433TIP3    H279791   5.234   5.466   2.545 -0.8984 -0.2305 -1.0581
19434TIP3   OH279792   4.551   0.291   5.633 -0.4826  0.5016 -0.4260
19434TIP3    H179793   4.565   0.201   5.606 -1.6406  0.1820 -0.0183
19434TIP3    H279794   4.508   0.333   5.559 -2.2025  0.0422  0.2602
19435TIP3   OH279795   4.919   6.505   4.358 -0.0824  0.1122  0.2725
19435TIP3    H179796   4.843   6.525   4.413  0.6030  0.9088  0.9655
19435TIP3    H279797   4.982   6.574   4.379  0.7267 -0.3742 -0.4999
19436TIP3   OH279798   4.735   6.131  12.649  0.3654  0.1590 -0.1070
19436TIP3    H179799   4.714   6.116  12.557  0.4372  0.3693 -0.1594
19436TIP3    H279800   4.671   6.196  12.678  0.4433  0.2125 -0.0532
19437TIP3   OH279801   3.181   4.607   4.615 -0.0319  0.4382 -0.1482
19437TIP3    H179802   3.209   4.633   4.527  1.3752 -2.2216 -0.5994
19437TIP3    H279803   3.257   4.627   4.670  0.3948 -0.9282 -0.1980
19438TIP3   OH279804   4.373   1.578  11.868 -0.3141  0.0553  0.1291
19438TIP3    H179805   4.315   1.536  11.932 -1.1263  0.3227 -0.4072
19438TIP3    H279806   4.313   1.624  11.809  0.4247 -0.1393 -0.7886
19439TIP3   OH279807   1.365   5.330   0.567  0.7220  0.4684 -0.4639
19439TIP3    H179808   1.322   5.415   0.570  2.1017  1.1871  0.3208
19439TIP3    H279809   1.459   5.350   0.572  1.0528 -1.1132  1.1533
19440TIP3   OH279810   6.116   5.774   1.761 -0.1799 -0.2659 -0.0737
19440TIP3    H179811   6.168   5.798   1.837 -0.2048  1.3702 -0.5279
19440TIP3    H279812   6.137   5.682   1.745  0.6134 -0.3361  1.2751
19441TIP3   OH279813   1.928   0.335   6.110 -0.2959  0.3428  0.1823
19441TIP3    H179814   1.915   0.424   6.078  0.9423  1.2955  2.1750
19441TIP3    H279815   2.023   0.322   6.108 -0.4045 -0.6347  0.6824
19442TIP3   OH279816   3.951   4.976   3.264 -0.4419 -0.2958  0.9747
19442TIP3    H179817   3.880   4.947   3.322 -2.2775  0.9846 -0.5147
19442TIP3    H279818   3.970   4.901   3.208 -2.8478  0.2152 -0.6593
19443TIP3   OH279819   1.885   6.154   0.690 -0.7415 -0.3344 -0.1542
19443TIP3    H179820   1.867   6.226   0.751  0.2629  0.2126 -0.4752
19443TIP3    H279821   1.890   6.077   0.746  0.1755  0.1564  0.4767
19444TIP3   OH279822   0.942   2.051  14.145 -0.1493  0.5095  0.4154
19444TIP3    H179823   0.850   2.029  14.130 -0.3665  1.0770  0.8588
19444TIP3    H279824   0.949   2.061  14.240  0.6754 -0.8035  0.5194
19445TIP3   OH279825   6.277   2.805  11.042  0.2002  0.0554 -0.3381
19445TIP3    H179826   6.316   2.721  11.067 -0.6535 -0.4257 -0.5920
19445TIP3    H279827   6.320   2.828  10.960  0.7699  0.0990 -0.0318
19446TIP3   OH279828   2.524   1.606  14.218  0.0520  0.1888  0.4323
19446TIP3    H179829   2.473   1.612  14.298  0.6017  0.2026  0.7834
19446TIP3    H279830   2.612   1.633  14.243 -0.2411  2.3803 -0.6551
19447TIP3   OH279831   3.669   6.082   0.678  0.0395  0.6205  0.2564
19447TIP3    H179832   3.699   6.071   0.588 -0.2539  1.4349  0.0485
19447TIP3    H279833   3.683   5.996   0.719  1.6496  0.6797 -0.1067
19448TIP3   OH279834   5.679   1.555  17.069  0.1441  0.3778 -0.3319
19448TIP3    H179835   5.643   1.487  17.011 -0.4575 -0.6878  1.2226
19448TIP3    H279836   5.674   1.635  17.017  0.1282 -0.6114 -1.9407
19449TIP3   OH279837   5.026   5.831  11.656  0.0622  0.0635  0.0051
19449TIP3    H179838   5.112   5.853  11.621  0.8216 -1.4782  0.7725
19449TIP3    H279839   5.042   5.753  11.710 -1.4062  1.0715  2.0193
19450TIP3   OH279840   2.963   4.939  13.516  0.0365  0.1947  0.0260
19450TIP3    H179841   2.885   4.947  13.460  0.1978 -0.5430 -0.3127
19450TIP3    H279842   2.957   4.852  13.554 -0.7279  1.1285  2.1961
19451TIP3   OH279843   5.546   5.522  15.241 -0.4976  0.0104  0.2289
19451TIP3    H179844   5.485   5.481  15.180  0.6321 -1.6925  0.1762
19451TIP3    H279845   5.546   5.614  15.217 -0.2089 -0.5666 -2.2758
19452TIP3   OH279846   1.928   5.210   6.860 -0.6830 -0.3687 -0.5787
19452TIP3    H179847   1.927   5.132   6.916  0.4997  0.9472  1.4032
19452TIP3    H279848   1.838   5.243   6.864 -0.7150 -0.5255  0.2499
19453TIP3   OH279849   3.168   3.050   2.606 -0.5006 -0.3525 -0.0689
19453TIP3    H179850   3.179   2.997   2.527 -0.5739 -1.4563  0.6372
19453TIP3    H279851   3.086   3.097   2.591  1.3054  2.4605 -2.2789
19454TIP3   OH279852   4.265   6.798  12.739  0.1530  0.4291 -0.2004
19454TIP3    H179853   4.341   6.831  12.691 -0.0136 -1.3759 -1.8338
19454TIP3    H279854   4.296   6.787  12.829  2.0987 -0.9987 -0.9859
19455TIP3   OH279855   3.731   0.885  15.220  0.6816 -0.0822 -0.0712
19455TIP3    H179856   3.812   0.849  15.257 -0.7540 -3.4179  0.1458
19455TIP3    H279857   3.711   0.960  15.275  3.3789  0.6216  0.0979
19456TIP3   OH279858   3.240   5.900   2.811  0.0250 -0.3764  0.2230
19456TIP3    H179859   3.317   5.863   2.854 -0.6380 -1.9047  0.1457
19456TIP3    H279860   3.266   5.912   2.720  0.0027 -1.4341  0.0720
19457TIP3   OH279861   1.678   3.044   2.213 -0.0319 -0.0831 -0.3174
19457TIP3    H179862   1.674   2.999   2.128 -0.0188  1.6889 -1.3111
19457TIP3    H279863   1.623   3.122   2.201  2.1497  1.6632  0.3342
19458TIP3   OH279864   5.362   3.968  13.265 -0.3797 -0.8956 -0.0447
19458TIP3    H179865   5.365   4.034  13.195  1.3664 -0.7096  0.1517
19458TIP3    H279866   5.341   3.886  13.220 -1.5149 -0.4056 -0.4469
19459TIP3   OH279867   5.969   4.362  11.351  0.1068 -0.0919  0.0754
19459TIP3    H179868   6.053   4.318  11.339 -0.0465 -0.0987 -1.0861
19459TIP3    H279869   5.907   4.292  11.374  0.1764 -0.2612 -0.2524
19460TIP3   OH279870   5.951   5.853  11.904 -0.8226  0.5566  0.3564
19460TIP3    H179871   5.951   5.861  12.000 -0.2766  4.2924  0.1919
19460TIP3    H279872   6.034   5.810  11.884 -1.5636 -1.5990  1.5152
19461TIP3   OH279873   2.970   5.190   3.276  0.1177  0.0140 -0.2266
19461TIP3    H179874   2.997   5.214   3.187  0.8587  2.0285  0.4719
19461TIP3    H279875   2.893   5.244   3.293  1.2536  1.3461  1.0602
19462TIP3   OH279876   0.819   0.715  11.943  1.1586 -0.2993  0.0929
19462TIP3    H179877   0.780   0.672  11.867  0.0242 -0.9747  1.0285
19462TIP3    H279878   0.747   0.760  11.986  2.1786  1.9221 -0.3975
19463TIP3   OH279879   6.234   3.360  14.527 -0.2276 -0.1925  0.3450
19463TIP3    H179880   6.223   3.273  14.565  1.9070 -0.4971  0.4016
19463TIP3    H279881   6.329   3.368  14.511 -0.6925  0.8775 -2.6151
19464TIP3   OH279882   3.707   5.811   1.123  0.4925  0.3659 -0.6768
19464TIP3    H179883   3.688   5.813   1.029  0.0259  1.5102 -0.5759
19464TIP3    H279884   3.732   5.720   1.140 -2.1588 -0.6091 -1.3771
19465TIP3   OH279885   5.119   1.603   0.906 -0.1880  0.1236  0.0591
19465TIP3    H179886   5.158   1.554   0.979 -0.6304 -1.7323 -0.8925
19465TIP3    H279887   5.031   1.625   0.937  0.7609  2.4878  1.3941
19466TIP3   OH279888   3.720   3.812  16.685 -0.3417 -0.0134  0.3962
19466TIP3    H179889   3.723   3.766  16.769 -0.0355 -1.8213 -0.5507
19466TIP3    H279890   3.811   3.822  16.659 -0.4649 -1.0600 -0.5202
19467TIP3   OH279891   4.440   3.665   5.604 -0.0139 -0.4147  0.4251
19467TIP3    H179892   4.436   3.590   5.545 -2.7384 -0.4367  0.5048
19467TIP3    H279893   4.531   3.694   5.599  0.8424 -2.9539 -0.5297
19468TIP3   OH279894   5.785   4.355   2.413 -0.1593  0.1195 -0.0670
19468TIP3    H179895   5.751   4.266   2.405 -0.7655  0.1872  1.3610
19468TIP3    H279896   5.722   4.409   2.365 -0.8021 -0.0292  0.5889
19469TIP3   OH279897   5.084   4.614  10.762 -0.1206 -0.2288  0.0364
19469TIP3    H179898   5.042   4.670  10.697 -0.5984  1.3279  1.6004
19469TIP3    H279899   5.169   4.656  10.779 -0.4154 -0.0200  1.1041
19470TIP3   OH279900   6.306   3.551  15.593 -0.0001 -0.0377  0.0876
19470TIP3    H179901   6.399   3.537  15.610  0.4596  0.8867 -1.4399
19470TIP3    H279902   6.265   3.543  15.679  1.4507 -0.6813  0.7678
19471TIP3   OH279903   5.100   1.154   5.102 -0.1295  0.5246 -0.3661
19471TIP3    H179904   5.125   1.063   5.115  0.3907  0.7464  0.2357
19471TIP3    H279905   5.165   1.204   5.150  0.5651  1.3099 -2.0286
19472TIP3   OH279906   4.017   0.864   5.984  0.4175  0.2612 -0.2152
19472TIP3    H179907   4.020   0.952   6.023 -0.8001  0.2273 -0.0037
19472TIP3    H279908   4.021   0.881   5.889  0.8849  0.4898 -0.1619
19473TIP3   OH279909   1.012   5.200  12.359 -0.2855  0.2766  0.4531
19473TIP3    H179910   0.969   5.130  12.408 -0.3320  0.1210  0.1901
19473TIP3    H279911   0.963   5.279  12.381  0.1362  0.3359  1.2266
19474TIP3   OH279912   1.196   4.671  14.753  0.0658  0.0900  0.0936
19474TIP3    H179913   1.214   4.760  14.722 -2.0307  0.4366 -0.2697
19474TIP3    H279914   1.153   4.683  14.838  1.1854 -0.6807  0.8127
19475TIP3   OH279915   0.393   3.363  12.021 -0.4010  0.4053 -0.2388
19475TIP3    H179916   0.342   3.418  11.961 -0.2696 -0.0503 -0.7758
19475TIP3    H279917   0.410   3.420  12.096 -0.0026  1.2114 -0.9184
19476TIP3   OH279918   6.601   6.758   0.099 -0.0410 -0.3721  0.0757
19476TIP3    H179919   6.592   6.831   0.038 -1.9564  0.1466  0.9117
19476TIP3    H279920   6.620   6.683   0.043  0.7322  0.5176 -0.9131
19477TIP3   OH279921   1.566   5.813  12.131  0.4482 -0.7876 -0.0434
19477TIP3    H179922   1.538   5.741  12.187 -1.5057  0.6792  0.9853
19477TIP3    H279923   1.605   5.876  12.191 -0.6939  0.3316 -0.4282
19478TIP3   OH279924   2.953   0.998   6.051  0.2779 -0.1296 -0.8605
19478TIP3    H179925   2.970   1.083   6.092  0.1251  0.2861 -1.6422
19478TIP3    H279926   2.924   1.020   5.962  0.0386 -0.9931 -1.0001
19479TIP3   OH279927   0.434   2.427   2.412  0.2859  0.5213 -0.3491
19479TIP3    H179928   0.340   2.408   2.404  0.4162 -0.2737 -0.0158
19479TIP3    H279929   0.437   2.522   2.428 -0.3850  0.7706 -1.5942
19480TIP3   OH279930   5.100   1.968  11.933 -0.0742 -0.7576  0.1585
19480TIP3    H179931   5.176   2.006  11.890 -0.4064 -1.1746 -0.8272
19480TIP3    H279932   5.104   2.000  12.023  0.3202  0.6063 -0.3258
19481TIP3   OH279933   2.158   1.309  14.207 -0.5748 -0.0540  0.4963
19481TIP3    H179934   2.155   1.396  14.246 -0.5604  0.4557 -0.5805
19481TIP3    H279935   2.067   1.291  14.180 -0.4128  0.0668 -0.1648
19482TIP3   OH279936   5.857   2.068   5.411 -0.3914 -0.8242 -0.0345
19482TIP3    H179937   5.914   2.044   5.484 -0.4752 -2.7368 -0.5390
19482TIP3    H279938   5.769   2.071   5.449 -0.0869  2.1567  0.7510
19483TIP3   OH279939   4.884   1.262   3.692  0.0577 -0.2679  0.2702
19483TIP3    H179940   4.790   1.258   3.711 -0.8322  0.2991 -3.2287
19483TIP3    H279941   4.904   1.177   3.654  1.0554 -0.4751  1.2389
19484TIP3   OH279942   0.558   5.861  12.517 -0.0787  0.4021 -0.5110
19484TIP3    H179943   0.517   5.799  12.578  0.2022  0.6371 -0.0747
19484TIP3    H279944   0.485   5.916  12.487 -0.1773  0.4683 -0.1627
19485TIP3   OH279945   6.661   5.994  16.996  0.6865  0.1438  0.1171
19485TIP3    H179946   6.712   6.047  17.057 -0.1384 -0.7439  1.6477
19485TIP3    H279947   6.603   5.942  17.052 -1.1489  0.3418 -1.4809
19486TIP3   OH279948   2.691   2.804   1.814 -0.4254  0.5103 -0.5814
19486TIP3    H179949   2.611   2.760   1.782 -0.5431 -0.2544  0.7061
19486TIP3    H279950   2.667   2.839   1.899  0.2493  1.4405 -0.7576
19487TIP3   OH279951   1.608   2.328   5.137 -0.4020 -0.0601  0.2839
19487TIP3    H179952   1.679   2.384   5.168  0.6657 -1.2930  0.1542
19487TIP3    H279953   1.547   2.388   5.094 -0.0147  1.1703  1.3866
19488TIP3   OH279954   3.795   4.877  16.653 -0.5757  0.7254  0.0366
19488TIP3    H179955   3.811   4.950  16.594  0.4629  1.9489  1.7153
19488TIP3    H279956   3.703   4.886  16.680 -0.9019  0.4533 -0.9561
19489TIP3   OH279957   1.539   2.328   5.412  0.3376 -0.0551  0.2994
19489TIP3    H179958   1.585   2.383   5.350  0.7861  1.8593  2.2024
19489TIP3    H279959   1.448   2.359   5.409  0.1597 -0.5834 -0.0208
19490TIP3   OH279960   2.358   6.422  12.888  0.3756 -0.7920  0.0383
19490TIP3    H179961   2.444   6.431  12.928  0.8490 -2.4865 -0.4828
19490TIP3    H279962   2.338   6.328  12.895 -1.6319 -0.3884  0.5354
19491TIP3   OH279963   6.113   5.407   3.998  0.1078 -0.3567 -0.9362
19491TIP3    H179964   6.029   5.392   4.041  0.8331  0.1657  0.7573
19491TIP3    H279965   6.091   5.448   3.915 -1.2700  2.8034  0.8207
19492TIP3   OH279966   5.277   3.427  15.910  0.1480 -0.1909  0.0102
19492TIP3    H179967   5.288   3.505  15.966  0.8539 -0.3187  0.0523
19492TIP3    H279968   5.322   3.449  15.829 -0.2347 -0.3024 -0.2378
19493TIP3   OH279969   1.294   2.996  16.580  0.7703 -0.1281  0.3017
19493TIP3    H179970   1.389   2.992  16.566  0.8677  2.3357 -0.2982
19493TIP3    H279971   1.284   3.044  16.662  0.0238 -1.1365  0.8177
19494TIP3   OH279972   1.235   1.622   4.732 -0.5824 -0.5889 -0.3012
19494TIP3    H179973   1.202   1.534   4.750 -2.0687  0.1713  0.8444
19494TIP3    H279974   1.201   1.643   4.645 -0.7021 -0.9180 -0.3348
19495TIP3   OH279975   5.143   0.689  12.799 -0.5662 -0.5517  0.2712
19495TIP3    H179976   5.208   0.678  12.730  1.4869  0.0413  2.0222
19495TIP3    H279977   5.136   0.602  12.839  1.1175 -0.0929  1.6850
19496TIP3   OH279978   5.576   5.368   4.297 -0.2780 -0.1283 -0.1900
19496TIP3    H179979   5.651   5.381   4.355 -0.9992  0.3464  0.6581
19496TIP3    H279980   5.569   5.273   4.288 -1.1359 -0.2952  1.8396
19497TIP3   OH279981   6.084   2.797  10.731  0.6383  0.4077  0.4424
19497TIP3    H179982   6.167   2.753  10.716  1.4618  2.0633 -0.0792
19497TIP3    H279983   6.038   2.790  10.647 -0.8115 -2.4810  1.3396
19498TIP3   OH279984   5.532   4.055  17.036 -0.3444  0.1103  0.0792
19498TIP3    H179985   5.583   4.033  17.114 -0.6252  0.3266  0.3246
19498TIP3    H279986   5.597   4.058  16.966  0.4102  2.7038  0.7793
19499TIP3   OH279987   3.611   5.655   5.586 -0.4894 -0.6339  0.3495
19499TIP3    H179988   3.551   5.722   5.553 -0.2246  0.5280  2.0554
19499TIP3    H279989   3.586   5.575   5.540 -2.9286 -0.0489  0.5123
19500TIP3   OH279990   4.954   2.089  16.255 -0.1693 -0.0342  0.3904
19500TIP3    H179991   4.888   2.158  16.258 -0.9371 -0.7140 -0.4133
19500TIP3    H279992   4.991   2.087  16.343  0.2220  1.7317  0.2941
19501TIP3   OH279993   5.411   0.681   0.196  0.2853  0.0748 -0.2895
19501TIP3    H179994   5.463   0.621   0.249 -0.4553 -0.3304 -0.0129
19501TIP3    H279995   5.321   0.652   0.207 -0.1672  1.6181  0.3518
19502TIP3   OH279996   0.216   5.530   4.447  0.3529  0.2329 -0.0108
19502TIP3    H179997   0.150   5.568   4.389 -0.4740 -0.7653  0.2509
19502TIP3    H279998   0.276   5.603   4.465 -0.4368  1.0554 -0.5860
19503TIP3   OH279999   1.757   1.031  11.774 -0.8042  0.2673  0.1250
19503TIP3    H180000   1.821   1.015  11.705 -0.7756 -1.0204  0.4288
19503TIP3    H280001   1.676   0.994  11.740 -0.6444 -0.9778  1.0148
19504TIP3   OH280002   1.317   2.474   2.514 -0.5728  0.3955 -0.9679
19504TIP3    H180003   1.404   2.464   2.474 -0.2800  1.4418 -0.6159
19504TIP3    H280004   1.291   2.385   2.537 -0.3016 -0.1240 -2.5426
19505TIP3   OH280005   4.644   1.096  10.955  0.4040 -0.3084 -0.5299
19505TIP3    H180006   4.568   1.048  10.987  1.8564 -2.2178  0.3077
19505TIP3    H280007   4.624   1.117  10.864 -1.5247  0.2027 -0.0263
19506TIP3   OH280008   2.440   5.585  15.266 -0.6047  0.5735  0.2529
19506TIP3    H180009   2.481   5.505  15.231  2.6525  1.1988  2.1870
19506TIP3    H280010   2.427   5.640  15.189  0.2569 -0.5589 -0.7543
19507TIP3   OH280011   0.799   3.266  10.644  0.4157  0.4383 -0.1913
19507TIP3    H180012   0.744   3.190  10.623  1.0195 -0.1241  0.2178
19507TIP3    H280013   0.831   3.297  10.559 -0.2973  0.5935 -0.4054
19508TIP3   OH280014   4.882   5.000   5.395 -0.2511 -0.4036 -0.0386
19508TIP3    H180015   4.902   4.911   5.367 -1.1477  0.2014 -3.0171
19508TIP3    H280016   4.963   5.049   5.377 -0.2785 -0.3331  0.0327
19509TIP3   OH280017   2.962   0.649   1.855 -0.5335 -0.0497 -0.5904
19509TIP3    H180018   2.936   0.654   1.947  1.7066  0.4293  0.0649
19509TIP3    H280019   2.924   0.727   1.816 -1.5952 -0.3061 -0.1359
19510TIP3   OH280020   6.656   5.539   6.161 -0.4472  0.0095  0.3560
19510TIP3    H180021   6.621   5.451   6.147  1.5435 -0.6090 -1.1665
19510TIP3    H280022   6.581   5.596   6.150 -1.1823 -1.2753 -2.3203
19511TIP3   OH280023   6.220   0.572   1.626  0.0084  0.3540  0.7749
19511TIP3    H180024   6.169   0.648   1.654 -4.1005 -1.2153 -1.5630
19511TIP3    H280025   6.212   0.571   1.531  1.4490 -2.0388  0.5916
19512TIP3   OH280026   5.865   2.940   2.861  0.2325  0.6717 -0.0424
19512TIP3    H180027   5.866   2.928   2.766  0.2645  0.1184  0.0221
19512TIP3    H280028   5.772   2.938   2.885  0.1660  1.7393 -0.1644
19513TIP3   OH280029   3.065   0.643   4.477  0.0037 -0.5463  0.0265
19513TIP3    H180030   3.053   0.551   4.501  1.7919 -1.1092 -1.0137
19513TIP3    H280031   3.102   0.640   4.389 -0.3179  1.2043 -0.2014
19514TIP3   OH280032   3.696   1.831   3.433  0.3152  0.1644  0.1795
19514TIP3    H180033   3.672   1.738   3.435 -1.2299  0.5315  1.5658
19514TIP3    H280034   3.734   1.848   3.519  0.1099  0.9236  0.1259
19515TIP3   OH280035   3.699   0.047  17.192  0.9628 -0.1033  0.0914
19515TIP3    H180036   3.651  -0.026  17.153  1.6505 -0.1691 -0.6512
19515TIP3    H280037   3.666   0.052  17.282  0.3137 -0.7953 -0.0970
19516TIP3   OH280038   2.144   2.068   1.726 -0.2683  0.3496  0.3114
19516TIP3    H180039   2.103   2.127   1.663 -2.6265  0.6889  2.0303
19516TIP3    H280040   2.079   1.999   1.740  1.1033 -0.8993  0.7527
19517TIP3   OH280041   0.753   0.936  13.415  0.1565 -0.1471  0.0943
19517TIP3    H180042   0.752   0.841  13.411 -0.4401 -0.1514  0.2910
19517TIP3    H280043   0.723   0.957  13.504  1.0374  0.2088  0.3212
19518TIP3   OH280044   4.139   5.744   1.161 -0.0472  0.0857  0.2340
19518TIP3    H180045   4.098   5.822   1.123  0.0693  0.0645  0.0663
19518TIP3    H280046   4.078   5.673   1.141  0.3482 -0.0512 -0.5325
19519TIP3   OH280047   3.650   0.032  16.460  0.0045 -0.1174  0.2251
19519TIP3    H180048   3.699   0.065  16.385 -0.4757  1.8623  0.7146
19519TIP3    H280049   3.704   0.055  16.535 -0.2443 -0.6838  0.5782
19520TIP3   OH280050   2.745   6.412   0.385 -0.4407  0.5479  0.5852
19520TIP3    H180051   2.658   6.398   0.347  0.5830 -0.8466 -1.4122
19520TIP3    H280052   2.806   6.376   0.321  1.7748  2.9770  1.1566
19521TIP3   OH280053   5.994   4.989  10.835  0.7205 -0.2751  0.0745
19521TIP3    H180054   6.008   5.082  10.824 -0.5085 -0.3285 -2.7380
19521TIP3    H280055   6.079   4.949  10.817  0.8833  0.2350 -0.3166
19522TIP3   OH280056   1.570   6.036   0.255 -0.1240 -0.2463 -0.4488
19522TIP3    H180057   1.650   6.002   0.295 -0.6304  0.3596  1.1985
19522TIP3    H280058   1.501   5.976   0.285 -0.8376  1.4232  1.4634
19523TIP3   OH280059   6.456   0.703   4.731 -0.4131 -0.3060 -0.4191
19523TIP3    H180060   6.533   0.647   4.727  0.6863  0.8924  2.0133
19523TIP3    H280061   6.472   0.770   4.664  0.2425 -0.5499 -0.5152
19524TIP3   OH280062   5.184   5.382   1.703  0.8272  0.0850  0.3776
19524TIP3    H180063   5.227   5.364   1.787  0.8563  0.3083  0.4109
19524TIP3    H280064   5.254   5.416   1.647  0.5367  1.2446  0.6873
19525TIP3   OH280065   5.152   3.951   0.546  0.6983  0.1633  1.1310
19525TIP3    H180066   5.090   3.884   0.517  0.8047 -0.2320  1.7722
19525TIP3    H280067   5.111   4.034   0.525  0.4966 -0.1035  0.4493
19526TIP3   OH280068   6.340   5.023   2.366 -0.1627  0.0915 -0.4775
19526TIP3    H180069   6.430   5.017   2.397  0.0110 -0.2709 -1.0345
19526TIP3    H280070   6.287   5.015   2.444  0.3111  3.9579  0.4399
19527TIP3   OH280071   4.931   5.720   1.373  0.5242  0.2859 -0.2411
19527TIP3    H180072   4.913   5.672   1.292 -0.9147  0.0096  0.2135
19527TIP3    H280073   4.853   5.774   1.387  0.6695  0.1924  1.0549
19528TIP3   OH280074   1.458   0.814   3.189  0.1956  0.0466  0.5518
19528TIP3    H180075   1.424   0.816   3.099  1.2206 -1.7840  0.0614
19528TIP3    H280076   1.393   0.763   3.238  0.9683 -1.3356  0.1811
19529TIP3   OH280077   5.610   4.946  11.079 -0.5222 -0.3606  0.7190
19529TIP3    H180078   5.535   4.998  11.106 -0.6091  0.0671 -0.2875
19529TIP3    H280079   5.581   4.899  11.001  0.1924 -0.3266  0.4176
19530TIP3   OH280080   2.880   0.484   2.195  0.3532  0.0686 -0.0380
19530TIP3    H180081   2.791   0.450   2.181  0.3880 -1.8392  3.3604
19530TIP3    H280082   2.937   0.412   2.166  1.0517  1.8495 -3.6857
19531TIP3   OH280083   3.122   4.696  14.203  0.7315 -0.4196 -0.1451
19531TIP3    H180084   3.099   4.695  14.110  1.5866 -0.3320 -0.3720
19531TIP3    H280085   3.040   4.680  14.249 -0.1910  1.9185 -0.8132
19532TIP3   OH280086   4.198   4.570  14.858 -0.0385  0.2442  0.8198
19532TIP3    H180087   4.110   4.587  14.824  0.8775  1.0882 -1.3446
19532TIP3    H280088   4.219   4.649  14.909 -0.9529 -0.4862  2.3883
19533TIP3   OH280089   2.522   0.771  13.143 -0.2953 -0.1795 -0.2601
19533TIP3    H180090   2.586   0.841  13.140 -0.1769 -0.2938 -0.4287
19533TIP3    H280091   2.512   0.743  13.052 -0.0988 -0.5951 -0.1620
19534TIP3   OH280092   1.098   3.995   5.518 -0.1670  0.6982  0.0777
19534TIP3    H180093   1.068   3.988   5.428 -1.4518 -1.8437  0.6276
19534TIP3    H280094   1.037   3.943   5.569  1.6626  0.4169  2.1658
19535TIP3   OH280095   0.725   2.920   5.292 -0.6177 -0.1703  0.1002
19535TIP3    H180096   0.708   2.969   5.212  1.4053  1.0298  0.3254
19535TIP3    H280097   0.770   2.983   5.349  3.6035 -2.5476 -0.1720
19536TIP3   OH280098   3.568   5.798  16.470  0.0913  0.0187  0.2591
19536TIP3    H180099   3.619   5.717  16.480  0.3271  0.1630  0.2386
19536TIP3    H280100   3.482   5.777  16.507 -0.3994 -0.7693 -1.2501
19537TIP3   OH280101   1.009   1.498   1.565 -0.4265  0.3673 -0.2981
19537TIP3    H180102   0.918   1.473   1.581 -0.3697  0.6673  0.5433
19537TIP3    H280103   1.060   1.438   1.618 -0.1056 -0.0731 -1.0958
19538TIP3   OH280104   1.038   1.653  11.639 -0.2197 -0.0615  0.0949
19538TIP3    H180105   0.989   1.735  11.634 -0.1677 -0.0985 -1.8149
19538TIP3    H280106   0.984   1.590  11.592  0.5068 -0.7192  0.1301
19539TIP3   OH280107   0.790   5.729   4.355  0.7269  0.1707  0.2795
19539TIP3    H180108   0.799   5.648   4.404  0.4777 -0.0882 -0.0986
19539TIP3    H280109   0.846   5.792   4.401  1.8452 -0.5216 -0.1032
19540TIP3   OH280110   5.279   3.090  14.792  0.1395 -0.0493  0.1592
19540TIP3    H180111   5.334   3.060  14.720 -1.2669 -0.0960 -0.9620
19540TIP3    H280112   5.327   3.067  14.871  0.2994 -3.0115 -0.6732
19541TIP3   OH280113   4.988   3.022  16.894  0.4996  0.2905  0.3880
19541TIP3    H180114   5.071   3.043  16.936 -0.0674  0.0912  1.6530
19541TIP3    H280115   4.923   3.075  16.940 -0.3188 -0.8571  0.6048
19542TIP3   OH280116   6.748   6.007  14.696  0.3289  0.0527 -0.4649
19542TIP3    H180117   6.664   6.027  14.738  0.4217  1.2627 -0.8152
19542TIP3    H280118   6.731   5.927  14.646 -0.9145  0.7959 -1.3070
19543TIP3   OH280119   5.584   1.499  16.429 -0.4381 -0.2377  0.7563
19543TIP3    H180120   5.544   1.436  16.368 -0.3221  0.5655 -0.1788
19543TIP3    H280121   5.512   1.530  16.483 -0.6076 -0.7059  0.8021
19544TIP3   OH280122   4.708   3.827   2.659  0.7689 -0.0430 -0.0383
19544TIP3    H180123   4.790   3.819   2.610  0.9504  0.5608  0.1667
19544TIP3    H280124   4.668   3.907   2.627 -0.3256 -0.9319 -0.9917
19545TIP3   OH280125   0.352   6.091  16.499 -0.3128 -0.3597  0.3617
19545TIP3    H180126   0.324   6.168  16.550 -0.2192 -0.2076  0.1850
19545TIP3    H280127   0.287   6.024  16.520 -0.4234 -0.2177  0.4795
19546TIP3   OH280128   3.882   6.399   2.299  0.3330 -0.0931 -0.3502
19546TIP3    H180129   3.870   6.492   2.280 -0.3801  0.2383  1.5086
19546TIP3    H280130   3.802   6.374   2.344 -0.1989 -2.0537 -2.2410
19547TIP3   OH280131   0.839   2.803  15.550 -0.2213  0.3047  0.2273
19547TIP3    H180132   0.850   2.838  15.639 -0.9310 -0.4038  0.6047
19547TIP3    H280133   0.806   2.714  15.563 -1.1692  0.4947 -0.7518
19548TIP3   OH280134   5.125   2.938  11.959 -0.1924  0.0795  0.2406
19548TIP3    H180135   5.161   2.967  12.043 -1.0217  2.2549 -0.0882
19548TIP3    H280136   5.190   2.876  11.925  0.6511 -0.0629  2.0036
19549TIP3   OH280137   0.077   3.641   0.055 -0.6191 -0.1490  0.1578
19549TIP3    H180138   0.078   3.598   0.140  0.0035  1.0985  0.8025
19549TIP3    H280139   0.095   3.570  -0.008 -1.1271 -1.0848  1.0384
19550TIP3   OH280140   4.778   0.375  10.363 -0.1968  0.0358  0.0582
19550TIP3    H180141   4.721   0.303  10.336 -0.3314  0.7759 -1.7515
19550TIP3    H280142   4.718   0.445  10.390 -0.1540  0.4350 -0.8365
19551TIP3   OH280143   2.717   4.608   6.237  0.5250  0.8260  0.4045
19551TIP3    H180144   2.676   4.622   6.322 -1.7947  1.8065 -0.8165
19551TIP3    H280145   2.729   4.695   6.201 -0.9921  0.3766 -1.3511
19552TIP3   OH280146   0.321   6.610   5.621 -0.3879 -0.4141  0.7145
19552TIP3    H180147   0.297   6.683   5.678 -0.5028 -0.6763  1.0044
19552TIP3    H280148   0.254   6.610   5.552  1.2972  1.6632 -1.0530
19553TIP3   OH280149   2.743   6.155   0.104  0.1683 -0.0456  0.4631
19553TIP3    H180150   2.828   6.129   0.067  0.9098  0.9445  1.3953
19553TIP3    H280151   2.736   6.104   0.185 -0.3711 -0.4969  0.1391
19554TIP3   OH280152   6.434   2.759   1.383  0.0563 -0.2686  0.1658
19554TIP3    H180153   6.365   2.824   1.396  1.3814  1.0159  1.0647
19554TIP3    H280154   6.408   2.685   1.439  0.6991  1.2728  2.6473
19555TIP3   OH280155   4.161   3.144   5.733  0.4034  0.2219  0.4887
19555TIP3    H180156   4.172   3.238   5.715 -1.6841  0.4311 -0.0389
19555TIP3    H280157   4.102   3.142   5.809  0.2930 -0.6491  0.3818
19556TIP3   OH280158   0.316   3.158  13.509  0.0744  0.0931 -0.0028
19556TIP3    H180159   0.318   3.167  13.413  1.6686  1.4236  0.1134
19556TIP3    H280160   0.276   3.240  13.539  0.7427  0.2247  0.5205
19557TIP3   OH280161   1.251   3.792   0.817 -0.0938  0.0229  0.3216
19557TIP3    H180162   1.244   3.887   0.803 -3.7820 -0.3633 -1.5284
19557TIP3    H280163   1.273   3.757   0.731  0.5306 -0.8837  0.8398
19558TIP3   OH280164   1.469   5.074  12.781 -0.8467  0.1770 -0.3334
19558TIP3    H180165   1.516   5.143  12.734  1.5729 -1.2521 -0.1935
19558TIP3    H280166   1.474   5.099  12.873 -1.0516  0.4083 -0.3847
19559TIP3   OH280167   2.618   6.120   6.139 -0.1168 -0.1140 -0.5363
19559TIP3    H180168   2.573   6.090   6.060  0.3326 -1.7084 -0.2260
19559TIP3    H280169   2.621   6.043   6.196  1.7444  0.3011  0.0112
19560TIP3   OH280170   5.671   4.336  10.754  0.3670 -0.0060 -0.0116
19560TIP3    H180171   5.760   4.353  10.784 -0.0220  2.1573  0.0818
19560TIP3    H280172   5.619   4.408  10.791 -1.5435 -1.5144  0.4068
19561TIP3   OH280173   3.773   1.464   0.048 -0.3731 -0.2412  0.1232
19561TIP3    H180174   3.745   1.410   0.121 -0.0268  0.5709  0.8761
19561TIP3    H280175   3.781   1.552   0.085  1.1828 -0.0722 -0.5355
19562TIP3   OH280176   2.716   3.297   3.263  0.1901 -0.3782  0.1054
19562TIP3    H180177   2.714   3.219   3.318  0.0229 -0.9949 -0.7581
19562TIP3    H280178   2.630   3.337   3.274  0.2442 -0.3682  0.4816
19563TIP3   OH280179   5.364   1.587  13.642  0.2282 -0.5568  0.1837
19563TIP3    H180180   5.342   1.678  13.661  1.6466 -0.1877  0.2314
19563TIP3    H280181   5.363   1.581  13.547 -0.6509 -0.7154  0.1959
19564TIP3   OH280182   2.747   1.719   1.649  1.0246 -0.2393 -0.0796
19564TIP3    H180183   2.811   1.665   1.696  0.9499 -0.4156 -0.1781
19564TIP3    H280184   2.730   1.793   1.707  1.7791  0.1265 -0.3145
19565TIP3   OH280185   6.685   2.611   3.633 -0.0310 -0.1892 -0.9046
19565TIP3    H180186   6.596   2.641   3.651 -0.0377  0.0119 -1.2527
19565TIP3    H280187   6.740   2.668   3.687 -0.1472 -0.7636 -0.1653
19566TIP3   OH280188   0.950   6.384   4.499 -0.3819 -0.1809  0.5537
19566TIP3    H180189   0.986   6.405   4.413  0.0504  1.6313  1.1470
19566TIP3    H280190   0.860   6.356   4.480 -0.0207 -0.6852 -0.5527
19567TIP3   OH280191   6.187   2.437   3.764 -0.0179 -0.0607  0.2230
19567TIP3    H180192   6.174   2.484   3.681 -0.0116  0.2134  0.3771
19567TIP3    H280193   6.155   2.349   3.746  1.0695 -0.3374 -0.4317
19568TIP3   OH280194   1.946   2.789  12.020 -0.0188  0.4840  0.0864
19568TIP3    H180195   1.878   2.785  12.088  0.2543 -2.3434  0.3018
19568TIP3    H280196   1.900   2.767  11.939  0.2597  0.6495 -0.1185
19569TIP3   OH280197   2.399   3.296   5.346  0.2622 -0.8944 -0.2304
19569TIP3    H180198   2.372   3.250   5.425 -0.2708 -1.6209 -0.8260
19569TIP3    H280199   2.481   3.254   5.320  1.3851  0.4994  0.8888
19570TIP3   OH280200   6.008   0.445  14.900 -0.3386  0.4523 -0.4532
19570TIP3    H180201   6.092   0.483  14.926 -0.0636  0.0258 -0.6938
19570TIP3    H280202   5.965   0.423  14.983  0.4655 -0.7540 -0.3281
19571TIP3   OH280203   1.913   0.150  15.346 -0.4015 -0.2239  0.0446
19571TIP3    H180204   1.986   0.178  15.291  1.6865 -0.4308  2.5159
19571TIP3    H280205   1.902   0.057  15.324 -1.3711  0.2710 -1.7906
19572TIP3   OH280206   5.207   6.091   4.071 -0.5937  0.0394 -0.0181
19572TIP3    H180207   5.138   6.151   4.042 -0.7978  1.0384  2.2918
19572TIP3    H280208   5.162   6.031   4.131  0.3923  0.2667  0.9770
19573TIP3   OH280209   0.902   2.778  14.572  0.2884  0.4387 -0.2095
19573TIP3    H180210   0.936   2.829  14.645  1.6110 -0.5020 -0.1214
19573TIP3    H280211   0.814   2.751  14.601  1.2031 -0.8694  1.5613
19574TIP3   OH280212   3.541   6.589  14.157 -0.0541  0.2092  0.2577
19574TIP3    H180213   3.447   6.591  14.141 -0.1030 -1.3781  0.1592
19574TIP3    H280214   3.580   6.619  14.075 -0.4689  0.5867  0.1959
19575TIP3   OH280215   6.334   0.025  11.169 -0.3641 -0.1013 -0.4132
19575TIP3    H180216   6.275   0.088  11.127 -1.3151 -1.5862 -1.4285
19575TIP3    H280217   6.418   0.040  11.127 -0.9010 -0.3869 -1.6459
19576TIP3   OH280218   6.633   4.586  10.572 -1.0211 -0.0752  0.0754
19576TIP3    H180219   6.663   4.498  10.549 -1.2988  0.3277 -2.0594
19576TIP3    H280220   6.684   4.610  10.649  0.9267 -1.1487 -0.7966
19577TIP3   OH280221   3.783   1.606   2.252 -0.4423 -0.0943 -0.2653
19577TIP3    H180222   3.830   1.574   2.175  0.9763  2.7470 -0.6913
19577TIP3    H280223   3.702   1.642   2.217 -0.1996  0.4022 -0.3177
19578TIP3   OH280224   0.386   0.443   3.922 -0.0360 -0.4483 -0.0424
19578TIP3    H180225   0.304   0.465   3.965 -0.7322  0.4294 -1.7552
19578TIP3    H280226   0.444   0.517   3.940 -0.7634  0.5658 -1.6431
19579TIP3   OH280227   0.302   4.732   2.107  0.5395  0.5197 -0.0655
19579TIP3    H180228   0.300   4.641   2.135  3.0261  0.3414 -0.1978
19579TIP3    H280229   0.306   4.729   2.012 -2.0996  0.9323 -0.2666
19580TIP3   OH280230   3.189   5.120   6.027  0.5856  0.1891 -0.1341
19580TIP3    H180231   3.257   5.184   6.049  0.1534  0.5518  0.2018
19580TIP3    H280232   3.148   5.100   6.112  0.0336  0.2653 -0.3786
19581TIP3   OH280233   4.294   0.399  13.560  0.5776 -0.6958  0.2802
19581TIP3    H180234   4.365   0.463  13.561  0.2772 -0.2507 -1.8524
19581TIP3    H280235   4.309   0.347  13.481 -1.6363 -0.3488 -0.4592
19582TIP3   OH280236   4.840   1.203  16.843  0.7523  0.2957 -0.1209
19582TIP3    H180237   4.776   1.136  16.868 -0.2102  1.4051  0.5320
19582TIP3    H280238   4.922   1.175  16.885  0.3292 -0.3800  0.2765
19583TIP3   OH280239   1.723   0.697  12.731  0.3161  0.1273  0.1769
19583TIP3    H180240   1.791   0.713  12.665  0.9349 -2.7382 -0.0330
19583TIP3    H280241   1.643   0.685  12.681  0.2669  0.5301  0.1611
19584TIP3   OH280242   3.398   3.137  12.852  0.4549  0.1695 -0.6767
19584TIP3    H180243   3.477   3.179  12.885 -0.6325  0.6410  1.5041
19584TIP3    H280244   3.386   3.174  12.765  1.4778  1.7157 -0.2053
19585TIP3   OH280245   5.466   4.752  13.943  0.8383  0.1746 -0.1566
19585TIP3    H180246   5.416   4.683  13.987  2.4343  0.2721  1.9521
19585TIP3    H280247   5.535   4.706  13.896  0.7112  0.2393 -0.4120
19586TIP3   OH280248   1.288   5.574  16.077 -0.0554 -0.0399  0.1914
19586TIP3    H180249   1.201   5.613  16.087  0.1498  0.3104  0.6310
19586TIP3    H280250   1.329   5.584  16.162  0.7536  0.6158 -0.2631
19587TIP3   OH280251   1.556   5.161  16.600  0.1181  0.1407  0.3746
19587TIP3    H180252   1.563   5.226  16.531 -0.4464 -1.1408 -0.9328
19587TIP3    H280253   1.463   5.137  16.603  0.5348 -1.7734 -0.3329
19588TIP3   OH280254   3.978   6.101  13.348  0.5251 -0.4100 -0.2978
19588TIP3    H180255   4.058   6.048  13.340  0.2160 -1.4215  2.3354
19588TIP3    H280256   4.008   6.191  13.347  1.8855 -0.7937  1.7841
19589TIP3   OH280257   4.222   1.269  15.393 -0.2023  0.2173  0.3514
19589TIP3    H180258   4.299   1.256  15.337 -0.4462  0.2906 -0.0049
19589TIP3    H280259   4.148   1.260  15.333 -0.4927 -0.4525  0.8010
19590TIP3   OH280260   1.103   2.024  10.871 -0.5186 -0.4056  0.1336
19590TIP3    H180261   1.131   2.058  10.786 -2.9736 -0.5424 -0.8059
19590TIP3    H280262   1.144   2.082  10.935  0.7896  0.1434 -1.1524
19591TIP3   OH280263   0.386   1.519  16.482  0.3467 -0.8882  0.8207
19591TIP3    H180264   0.397   1.547  16.391 -1.8375 -2.5490 -0.0339
19591TIP3    H280265   0.371   1.601  16.530  1.8209  0.0399 -0.1991
19592TIP3   OH280266   0.532   2.778   4.096 -0.0965  0.2638 -0.3749
19592TIP3    H180267   0.456   2.830   4.069 -0.1109  0.4099 -0.0573
19592TIP3    H280268   0.557   2.815   4.180 -0.7186 -0.8805  0.3368
19593TIP3   OH280269   3.719   6.569  11.921  0.2864 -0.3526  0.2372
19593TIP3    H180270   3.770   6.524  11.853  0.4689  0.4487 -0.1698
19593TIP3    H280271   3.773   6.645  11.944  0.7085 -1.1541  2.0213
19594TIP3   OH280272   0.889   5.263  12.881  0.7794 -0.8192  0.0664
19594TIP3    H180273   0.923   5.311  12.956 -1.6168 -0.9878  1.3445
19594TIP3    H280274   0.933   5.178  12.886  1.4655 -0.4452  0.6047
19595TIP3   OH280275   3.677   0.039  13.705 -0.0641  0.2891 -0.2798
19595TIP3    H180276   3.676  -0.021  13.631 -2.1714 -1.4390  1.0273
19595TIP3    H280277   3.740   0.107  13.680  4.9105 -3.8586 -0.6935
19596TIP3   OH280278   6.775   3.679  15.809 -0.5295  0.2467  0.1383
19596TIP3    H180279   6.791   3.586  15.827 -0.0839  0.0924 -0.9841
19596TIP3    H280280   6.710   3.679  15.738  0.4158  0.7569 -0.7566
19597TIP3   OH280281   5.310   0.997   1.846 -0.5514  0.0226 -0.4429
19597TIP3    H180282   5.255   0.921   1.829 -0.2545 -0.7684  1.8362
19597TIP3    H280283   5.316   1.002   1.941 -0.3549  2.7783 -0.5217
19598TIP3   OH280284   1.334   5.368  15.851  0.0456 -0.5870  0.6973
19598TIP3    H180285   1.341   5.433  15.921  0.0264 -0.2031  0.3459
19598TIP3    H280286   1.382   5.405  15.778  0.9299 -1.4369  0.8261
19599TIP3   OH280287   6.489   0.954  15.112  0.0144 -0.1717  0.5015
19599TIP3    H180288   6.485   0.978  15.204  0.7141  1.8217  0.0695
19599TIP3    H280289   6.468   1.035  15.065  2.4160 -0.3899 -1.1135
19600TIP3   OH280290   5.609   5.869   0.579  0.4986 -0.2445  0.0317
19600TIP3    H180291   5.547   5.796   0.578  0.9360 -0.6218 -1.1414
19600TIP3    H280292   5.652   5.865   0.494  1.1997  0.8191  0.3182
19601TIP3   OH280293   6.547   1.305   2.004  0.0563  0.1517  0.0399
19601TIP3    H180294   6.575   1.375   1.944 -1.1989  0.7299  0.0935
19601TIP3    H280295   6.623   1.289   2.059  0.2562  1.7789  0.2848
19602TIP3   OH280296   2.438   3.054   1.880  0.7256 -0.1501 -0.3583
19602TIP3    H180297   2.465   2.988   1.816 -0.2472 -0.0768 -0.8603
19602TIP3    H280298   2.374   3.008   1.936  1.5522 -0.2094  0.5588
19603TIP3   OH280299   5.066   1.225  13.075 -0.0889 -0.0148  0.2091
19603TIP3    H180300   5.010   1.268  13.139  0.5222  0.8973  0.1525
19603TIP3    H280301   5.106   1.297  13.026  0.8045 -0.6505 -0.0281
19604TIP3   OH280302   3.521   4.190  12.946  0.2246 -0.2800  0.3883
19604TIP3    H180303   3.452   4.231  12.893 -1.2225 -1.3170  1.3617
19604TIP3    H280304   3.601   4.200  12.895 -0.7248  0.5946 -0.9909
19605TIP3   OH280305   4.644   4.415  16.051 -0.1089  0.0118  0.0333
19605TIP3    H180306   4.707   4.483  16.074  1.1290 -1.7710  2.2830
19605TIP3    H280307   4.689   4.362  15.985 -1.3996  1.6871 -2.3877
19606TIP3   OH280308   0.053   2.686   4.893 -0.0699  0.3258  0.1718
19606TIP3    H180309   0.060   2.733   4.976 -2.6211 -1.0127  1.2732
19606TIP3    H280310   0.116   2.615   4.900 -0.3262  0.1707  1.0377
19607TIP3   OH280311   2.369   3.802   5.459 -0.3739 -1.0189 -0.0602
19607TIP3    H180312   2.380   3.816   5.365 -0.9176 -2.7156 -0.4154
19607TIP3    H280313   2.430   3.731   5.480  0.6539  0.1605  1.1509
19608TIP3   OH280314   3.192   4.903  12.109  0.0300 -0.1433  0.3139
19608TIP3    H180315   3.265   4.958  12.138 -1.3615  1.8546  0.1699
19608TIP3    H280316   3.114   4.944  12.147 -1.1603 -1.4501 -0.6294
19609TIP3   OH280317   6.242   4.641   1.164  0.0847  0.1536  0.9269
19609TIP3    H180318   6.316   4.691   1.128  0.6582 -0.5983  1.0321
19609TIP3    H280319   6.176   4.707   1.183  0.8604  0.8898  1.1473
19610TIP3   OH280320   1.320   5.607   1.233 -0.9078 -0.2692  0.3470
19610TIP3    H180321   1.396   5.658   1.262  0.3653 -0.2663 -2.5832
19610TIP3    H280322   1.351   5.517   1.229 -0.3037 -0.0537 -2.6018
19611TIP3   OH280323   0.642   2.752  13.371  0.0433  0.0874  0.2784
19611TIP3    H180324   0.701   2.703  13.429 -1.6993 -1.3073  0.9405
19611TIP3    H280325   0.656   2.844  13.395 -0.4825 -0.4175  2.8392
19612TIP3   OH280326   0.862   3.314  12.632  1.1280 -0.2837 -0.5473
19612TIP3    H180327   0.839   3.406  12.619  1.0817 -0.1825  0.2451
19612TIP3    H280328   0.952   3.307  12.598  1.4539  0.2507  0.1818
19613TIP3   OH280329   5.258   6.062   4.675  0.1202 -0.6866  0.0036
19613TIP3    H180330   5.177   6.113   4.683  0.3787 -0.4690  1.4999
19613TIP3    H280331   5.235   5.990   4.617 -0.6949  0.2562 -0.8873
19614TIP3   OH280332   6.501   0.722  11.071  0.1636  0.0736 -0.2293
19614TIP3    H180333   6.484   0.655  11.005 -1.4401 -1.9263  2.0264
19614TIP3    H280334   6.594   0.715  11.089  0.2316 -0.7503 -0.8558
19615TIP3   OH280335   3.817   5.886  12.348 -0.6174 -0.0948  0.3930
19615TIP3    H180336   3.855   5.803  12.377  0.0548  0.6306  1.6690
19615TIP3    H280337   3.858   5.902  12.263 -0.9860 -1.2045 -0.0211
19616TIP3   OH280338   6.264   5.122   1.810  0.0156 -0.1926 -0.3775
19616TIP3    H180339   6.298   5.118   1.899  0.4295 -1.9583 -0.5806
19616TIP3    H280340   6.169   5.131   1.820 -0.0175 -1.0990  0.2652
19617TIP3   OH280341   6.564   3.856   5.117  0.6932 -0.5544  0.4080
19617TIP3    H180342   6.506   3.781   5.105 -0.1524  0.0636  0.5406
19617TIP3    H280343   6.557   3.878   5.210  0.5812 -0.0513  0.2892
19618TIP3   OH280344   3.613   0.617  15.268  0.2770 -0.1425  0.6012
19618TIP3    H180345   3.646   0.604  15.356 -0.3910  0.3198  0.9263
19618TIP3    H280346   3.611   0.712  15.256  2.3293 -0.1980 -0.6715
19619TIP3   OH280347   5.059   1.209   5.498 -0.6654  0.7720  0.3982
19619TIP3    H180348   5.012   1.133   5.464 -0.4595  0.8960 -0.1819
19619TIP3    H280349   5.114   1.237   5.425  0.6630  0.3468  1.2194
19620TIP3   OH280350   1.233   6.235  12.592  0.6196  0.0597 -0.3686
19620TIP3    H180351   1.257   6.215  12.682  1.7792 -0.2937 -0.7375
19620TIP3    H280352   1.166   6.170  12.570  1.0201 -0.4557 -0.0734
19621TIP3   OH280353   4.277   0.917  15.462  0.4662 -0.1958  0.0485
19621TIP3    H180354   4.286   0.935  15.368  1.0781 -0.3921  0.0647
19621TIP3    H280355   4.198   0.964  15.488  1.3483  1.5083 -0.1632
19622TIP3   OH280356   5.920   2.631  12.978  0.4096 -0.0926 -0.7134
19622TIP3    H180357   5.857   2.646  12.908  1.1215  0.1035 -1.3267
19622TIP3    H280358   5.957   2.717  12.997  1.4007 -0.3728 -1.2534
19623TIP3   OH280359   6.794   2.835   1.955 -0.0534 -0.1665  0.0530
19623TIP3    H180360   6.798   2.913   1.900  2.7389 -0.1713  0.0854
19623TIP3    H280361   6.744   2.772   1.904 -0.8217  1.0485 -0.7521
19624TIP3   OH280362   3.152   2.957  10.900  0.2573 -0.1745 -0.2991
19624TIP3    H180363   3.126   2.902  10.975  1.4163 -0.4040 -0.0509
19624TIP3    H280364   3.245   2.939  10.888  1.0177  2.6601  0.6021
19625TIP3   OH280365   4.258   3.590   5.259 -0.4505 -0.8937  0.0933
19625TIP3    H180366   4.287   3.589   5.168  0.9556  2.6028  0.3646
19625TIP3    H280367   4.182   3.648   5.260 -0.9910 -1.5891  1.0523
19626TIP3   OH280368   1.021   0.663   1.393  0.0951  0.6090 -0.0654
19626TIP3    H180369   1.016   0.611   1.313 -0.4275  0.5820 -0.0129
19626TIP3    H280370   1.113   0.691   1.397  0.0942  0.7221 -0.7389
19627TIP3   OH280371   4.837   6.629  16.689  0.3342  0.5993 -0.2768
19627TIP3    H180372   4.880   6.597  16.610 -0.4156  0.3255 -0.5863
19627TIP3    H280373   4.909   6.659  16.745  0.9008  0.4101 -0.8858
19628TIP3   OH280374   5.711   6.562  15.657 -0.2052 -0.4600 -0.5069
19628TIP3    H180375   5.665   6.637  15.621 -0.0260  0.2939  0.7814
19628TIP3    H280376   5.663   6.486  15.625 -1.8127  0.2774  0.0822
19629TIP3   OH280377   6.123   4.511   5.762  0.0457  0.1421 -0.0035
19629TIP3    H180378   6.049   4.556   5.801  0.5026  0.2214  0.7845
19629TIP3    H280379   6.176   4.482   5.836  1.1206  0.6207 -0.5602
19630TIP3   OH280380   6.065   0.275   4.279 -1.2271 -0.1815 -0.6606
19630TIP3    H180381   6.065   0.318   4.365 -0.6170 -0.3222 -0.5916
19630TIP3    H280382   6.075   0.347   4.217 -0.4621 -0.1890 -0.5553
19631TIP3   OH280383   0.338   6.084   0.815 -0.0307  0.6242  0.3040
19631TIP3    H180384   0.421   6.052   0.851  1.1532  0.8673 -2.0389
19631TIP3    H280385   0.336   6.177   0.836  0.6606  0.7702 -0.2534
19632TIP3   OH280386   0.873   5.994  15.174  0.2794  0.0723 -0.1240
19632TIP3    H180387   0.941   6.056  15.202 -0.1366 -0.8685  3.3630
19632TIP3    H280388   0.798   6.049  15.152  0.3311  0.9192  1.6807
19633TIP3   OH280389   0.792   4.405   1.677 -0.0826 -0.0250  0.1048
19633TIP3    H180390   0.703   4.439   1.688 -0.2052  0.6684 -2.2979
19633TIP3    H280391   0.834   4.416   1.762 -2.0313  0.4008  1.0562
19634TIP3   OH280392   0.866   1.293   0.172  0.0840  0.6293  0.2819
19634TIP3    H180393   0.951   1.281   0.214  0.2476 -1.0620 -0.4563
19634TIP3    H280394   0.872   1.242   0.091 -2.1349 -0.7831  0.9247
19635TIP3   OH280395   1.163   0.722  12.022 -0.1907 -0.2328 -0.5404
19635TIP3    H180396   1.147   0.710  11.928  1.5940  1.2619 -1.0907
19635TIP3    H280397   1.211   0.644  12.048  2.0574  0.7028 -1.6366
19636TIP3   OH280398   3.400   5.991  14.498  0.1181  0.2295  0.2497
19636TIP3    H180399   3.439   5.920  14.550 -0.5885  0.3525  0.9696
19636TIP3    H280400   3.324   6.019  14.549 -0.1416  0.8901 -0.4794
19637TIP3   OH280401   0.811   3.677   2.728 -0.3437 -0.1899  0.0034
19637TIP3    H180402   0.766   3.659   2.811 -0.7813 -0.2594 -0.2420
19637TIP3    H280403   0.904   3.670   2.749 -0.3764  1.5346  0.8925
19638TIP3   OH280404   4.810   4.669  14.224 -0.1544  0.1623  0.9959
19638TIP3    H180405   4.819   4.751  14.271  1.1836  1.3096 -1.0815
19638TIP3    H280406   4.900   4.640  14.209 -0.5576 -0.7428  0.1867
19639TIP3   OH280407   0.846   5.699   5.392  0.7477 -0.4105  0.0892
19639TIP3    H180408   0.810   5.783   5.365  0.2663 -0.4140  0.7199
19639TIP3    H280409   0.908   5.676   5.322  2.7039  1.5966  1.0487
19640TIP3   OH280410   2.305   3.523  13.772 -0.6084 -0.3946  0.1847
19640TIP3    H180411   2.392   3.534  13.735 -0.0803  2.9948  1.9941
19640TIP3    H280412   2.318   3.465  13.847  0.0480 -0.1053  0.2992
19641TIP3   OH280413   6.247   1.008  11.488 -0.2722 -0.5461  0.0842
19641TIP3    H180414   6.233   0.943  11.420  0.4507 -0.8954  0.2614
19641TIP3    H280415   6.341   1.008  11.502 -0.2638  0.5130  0.1136
19642TIP3   OH280416   2.467   1.700   6.419  0.3011 -0.0967  0.1550
19642TIP3    H180417   2.474   1.678   6.512  1.0766  2.1473  0.6765
19642TIP3    H280418   2.552   1.676   6.383 -0.3804 -2.0504 -0.2864
19643TIP3   OH280419   6.628   5.622   2.600  0.1411  0.3768  0.4718
19643TIP3    H180420   6.707   5.586   2.560  0.4336  1.1753  0.3179
19643TIP3    H280421   6.631   5.716   2.580 -0.3157  0.5891  1.3373
19644TIP3   OH280422   3.338   0.467  10.668 -0.2813  0.3518  0.1056
19644TIP3    H180423   3.267   0.493  10.609 -0.9020 -0.6514  0.3686
19644TIP3    H280424   3.396   0.413  10.614  1.1486  2.3914 -0.5110
19645TIP3   OH280425   3.314   4.842   5.477  0.0433 -0.1965  0.4519
19645TIP3    H180426   3.279   4.892   5.404  3.8775  0.4094 -1.2365
19645TIP3    H280427   3.316   4.905   5.550 -0.9085  0.1717  0.1641
19646TIP3   OH280428   6.622   0.219  13.785 -0.1811  0.5446 -0.3544
19646TIP3    H180429   6.536   0.260  13.772 -1.0001  0.3926  3.3699
19646TIP3    H280430   6.612   0.130  13.753 -1.6885  0.3357  0.6032
19647TIP3   OH280431   3.048   2.468   5.403  0.6117  0.2703  0.0491
19647TIP3    H180432   3.089   2.554   5.394 -0.3601  1.1090  2.7537
19647TIP3    H280433   3.034   2.457   5.497 -4.5737 -0.2528 -0.4779
19648TIP3   OH280434   3.523   6.081   1.518 -0.9126  0.0430 -0.1067
19648TIP3    H180435   3.460   6.139   1.561 -1.8935  0.2275 -1.7127
19648TIP3    H280436   3.522   6.108   1.426  3.2119  1.6039  0.1012
19649TIP3   OH280437   3.770   3.412   4.704 -0.2462  0.2716 -0.6020
19649TIP3    H180438   3.712   3.341   4.675 -0.7571  0.4125  0.0341
19649TIP3    H280439   3.764   3.410   4.799 -0.2763  1.1702 -0.5744
19650TIP3   OH280440   3.962   6.533   1.022 -0.4120  0.2979 -0.5101
19650TIP3    H180441   3.970   6.541   0.927  0.3765 -1.8311 -0.6834
19650TIP3    H280442   3.872   6.503   1.037 -0.3241 -0.0622 -0.6730
19651TIP3   OH280443   6.691   1.379  13.629  0.2136  0.1722  0.2539
19651TIP3    H180444   6.771   1.347  13.587 -0.1214  0.0943 -0.3303
19651TIP3    H280445   6.700   1.474  13.628 -0.4413  0.2477 -1.3316
19652TIP3   OH280446   1.191   2.859  15.391 -0.2718  0.0681  0.1313
19652TIP3    H180447   1.123   2.845  15.325 -0.7637 -1.1979  0.8617
19652TIP3    H280448   1.169   2.798  15.461 -0.2963  1.9593  1.8916
19653TIP3   OH280449   2.879   2.741  16.879  0.7287 -0.3294  0.1090
19653TIP3    H180450   2.874   2.837  16.882  0.4806 -0.3644  1.0005
19653TIP3    H280451   2.876   2.714  16.970 -0.7622 -1.2784 -0.1976
19654TIP3   OH280452   3.160   5.272   0.366  0.4589  0.1587 -0.0127
19654TIP3    H180453   3.150   5.202   0.302 -0.2468  1.3614 -1.2853
19654TIP3    H280454   3.166   5.227   0.451  0.6903 -1.4408 -0.8355
19655TIP3   OH280455   3.938   6.353   5.569  0.3330  0.1182  0.5149
19655TIP3    H180456   4.015   6.299   5.549 -1.3466 -1.5210 -1.9640
19655TIP3    H280457   3.884   6.297   5.625  0.7397  1.1883  2.0634
19656TIP3   OH280458   1.075   3.927  13.366 -0.3538 -0.2065  0.3891
19656TIP3    H180459   1.012   3.908  13.435  0.1998 -0.8189  0.7361
19656TIP3    H280460   1.044   3.878  13.290 -0.2401 -0.5785  0.5854
19657TIP3   OH280461   3.573   6.536   0.213  0.0816  0.1641  0.3262
19657TIP3    H180462   3.621   6.594   0.272 -0.2242  0.8249 -0.0575
19657TIP3    H280463   3.537   6.595   0.147 -0.3005 -0.4632 -0.0285
19658TIP3   OH280464   1.515   5.635  16.309  0.1685  0.0701  0.4179
19658TIP3    H180465   1.488   5.708  16.364  0.0058  0.7545 -0.5519
19658TIP3    H280466   1.564   5.675  16.237 -0.4708 -0.6922 -0.4690
19659TIP3   OH280467   4.442   3.848  13.527 -0.1504  0.1131 -0.1070
19659TIP3    H180468   4.468   3.934  13.561 -1.9995  1.7605 -2.5144
19659TIP3    H280469   4.348   3.856  13.511 -0.0335 -1.7151 -2.1519
19660TIP3   OH280470   4.694   5.716   3.572 -0.4376  0.2518 -0.2454
19660TIP3    H180471   4.741   5.798   3.587  0.3280 -0.3390  0.7083
19660TIP3    H280472   4.745   5.670   3.506 -1.2897  0.8489 -1.3611
19661TIP3   OH280473   2.453   1.714   4.154 -0.5523  0.6940 -0.6751
19661TIP3    H180474   2.418   1.642   4.206 -1.5810  0.6598 -1.3901
19661TIP3    H280475   2.433   1.792   4.204 -0.8864  0.6087 -0.6788
19662TIP3   OH280476   0.423   1.586  15.521 -0.4767 -0.2582  0.1218
19662TIP3    H180477   0.412   1.493  15.502 -0.8340 -0.2513  0.2860
19662TIP3    H280478   0.335   1.622  15.515 -0.1830  0.3004 -1.1426
19663TIP3   OH280479   3.821   4.505   0.921  0.4033  0.0266  0.2605
19663TIP3    H180480   3.810   4.427   0.868 -1.4704 -0.0878  0.7603
19663TIP3    H280481   3.798   4.478   1.010 -1.3045  1.3521  0.2755
19664TIP3   OH280482   1.337   3.679  11.038 -0.0245  0.1341  0.6132
19664TIP3    H180483   1.303   3.591  11.021 -1.1021  0.3558  1.5060
19664TIP3    H280484   1.432   3.667  11.045 -0.0700 -0.7991 -0.1362
19665TIP3   OH280485   3.415   4.148   3.430  0.2208  0.0427 -0.1916
19665TIP3    H180486   3.447   4.088   3.498  0.8999  0.0834 -0.4616
19665TIP3    H280487   3.447   4.234   3.457  0.7811  0.0108 -0.7255
19666TIP3   OH280488   2.999   4.316  10.839  0.4278  0.4088 -0.1768
19666TIP3    H180489   2.962   4.272  10.763  1.0981  1.7285 -1.3166
19666TIP3    H280490   3.091   4.290  10.840  0.1779 -0.4771  0.8552
19667TIP3   OH280491   6.124   2.423   3.457 -0.1669  0.1482  0.7208
19667TIP3    H180492   6.116   2.329   3.472  0.9280  0.2373  2.0130
19667TIP3    H280493   6.055   2.443   3.394 -0.0237 -1.6134 -0.0311
19668TIP3   OH280494   1.525   3.013   1.477  0.1300  0.9438  0.0899
19668TIP3    H180495   1.595   3.048   1.533  1.0014  1.5943 -1.3497
19668TIP3    H280496   1.450   3.006   1.536  1.3559  0.3100  1.6790
19669TIP3   OH280497   1.664   2.378  12.344  0.3630  0.0621 -0.0049
19669TIP3    H180498   1.728   2.328  12.394  1.2550  1.5066  0.3543
19669TIP3    H280499   1.624   2.314  12.285  1.6134 -1.0166  0.2839
19670TIP3   OH280500   2.977   1.821  14.436 -0.7665 -0.6856 -0.2005
19670TIP3    H180501   2.934   1.736  14.444 -1.6783 -0.1758  0.4814
19670TIP3    H280502   2.951   1.869  14.515  2.8577 -1.1101  1.4252
19671TIP3   OH280503   2.426   0.051   0.435  0.4979  0.0047  0.4336
19671TIP3    H180504   2.333   0.054   0.456  0.2045  1.2034 -0.8482
19671TIP3    H280505   2.428   0.039   0.340  1.6977 -2.1579  0.6585
19672TIP3   OH280506   5.938   5.940   3.653 -0.2815 -0.1886 -0.2708
19672TIP3    H180507   6.009   5.929   3.716 -0.0700 -0.8931 -0.6241
19672TIP3    H280508   5.980   5.932   3.568 -0.6708  0.1017 -0.4922
19673TIP3   OH280509   5.972   5.707  14.802  0.0810 -0.6294 -0.1442
19673TIP3    H180510   6.020   5.737  14.880 -1.4641 -2.7411  1.7715
19673TIP3    H280511   6.040   5.692  14.737  1.6379 -0.2011  1.2925
19674TIP3   OH280512   6.120   5.718   1.189 -0.0671 -0.0727  0.0520
19674TIP3    H180513   6.047   5.758   1.235  0.4550  2.5383 -1.1520
19674TIP3    H280514   6.196   5.769   1.217  0.8095 -0.7945 -0.9272
19675TIP3   OH280515   5.879   1.531   4.757  0.0261 -0.7409  0.2872
19675TIP3    H180516   5.804   1.499   4.707 -0.3461 -0.6794  0.8068
19675TIP3    H280517   5.950   1.536   4.693 -0.1532 -1.7228 -0.0053
19676TIP3   OH280518   3.761   0.744   2.397 -0.6808 -0.1575  0.7999
19676TIP3    H180519   3.747   0.743   2.492 -2.5756  1.1575  0.6062
19676TIP3    H280520   3.842   0.792   2.385  0.1548 -1.2631  1.7699
19677TIP3   OH280521   0.368   3.620  14.627  0.3320  0.7389  0.5108
19677TIP3    H180522   0.357   3.529  14.652 -0.5564  0.6274 -0.2107
19677TIP3    H280523   0.301   3.668  14.676 -0.5380  0.6986 -0.5773
19678TIP3   OH280524   6.139   0.609  13.927  0.2291  0.1849  0.1974
19678TIP3    H180525   6.186   0.670  13.984 -0.7890  3.6724 -2.3807
19678TIP3    H280526   6.055   0.596  13.971  0.5793  0.3265  0.9358
19679TIP3   OH280527   6.286   1.373   4.155  0.1273  0.2879  0.2695
19679TIP3    H180528   6.279   1.295   4.211 -1.8331 -0.0316 -0.3532
19679TIP3    H280529   6.350   1.428   4.200  0.8746 -1.2599  1.2184
19680TIP3   OH280530   1.214   4.901   0.451 -0.0080  0.0433 -0.3612
19680TIP3    H180531   1.270   4.855   0.514  2.0298  1.1995 -1.2243
19680TIP3    H280532   1.191   4.834   0.387  1.5018 -0.2091 -0.6823
19681TIP3   OH280533   5.972   3.862   6.789  0.2746  0.1463  0.1052
19681TIP3    H180534   5.927   3.931   6.741 -0.3912 -1.0558 -1.0596
19681TIP3    H280535   5.903   3.798   6.809  0.5493  0.5381  2.5866
19682TIP3   OH280536   1.931   6.774   1.556 -0.3505 -0.2183  0.0106
19682TIP3    H180537   2.020   6.782   1.523 -0.4553 -1.3711 -0.5799
19682TIP3    H280538   1.920   6.850   1.614  1.7379 -1.1804  1.8103
19683TIP3   OH280539   3.438   4.828  13.964 -0.1788  0.5723  0.0245
19683TIP3    H180540   3.446   4.733  13.973  0.2197  0.6394  0.3880
19683TIP3    H280541   3.522   4.856  13.928 -0.4743  0.7332 -0.5574
19684TIP3   OH280542   6.733   2.119  11.214 -0.2077 -0.3569  0.0899
19684TIP3    H180543   6.688   2.054  11.160  0.4718 -0.1515 -0.7648
19684TIP3    H280544   6.666   2.184  11.234 -0.4109 -0.2772 -0.7864
19685TIP3   OH280545   3.553   6.080  14.027  0.2306  0.0366  0.3046
19685TIP3    H180546   3.632   6.077  14.081  0.0728 -1.7160  0.5213
19685TIP3    H280547   3.485   6.041  14.083 -0.5415  0.5432 -0.2590
19686TIP3   OH280548   1.066   3.618   2.847 -0.0676  0.3071  0.0059
19686TIP3    H180549   1.049   3.683   2.915 -0.3357 -0.9444  1.1887
19686TIP3    H280550   1.155   3.637   2.817  0.3146  0.4664  1.1892
19687TIP3   OH280551   2.456   3.024   0.224  0.3309  0.4250  0.2958
19687TIP3    H180552   2.445   3.117   0.246 -2.8516 -0.1970  1.7525
19687TIP3    H280553   2.510   3.026   0.144  0.7756  3.4670  0.5253
19688TIP3   OH280554   0.200   1.924   5.264 -0.0985  0.2781  0.3491
19688TIP3    H180555   0.286   1.902   5.229 -1.4180 -2.4768 -1.4383
19688TIP3    H280556   0.176   1.850   5.320 -1.3935  0.9349  0.7225
19689TIP3   OH280557   4.943   1.420   5.635 -0.2493 -0.3511 -0.1363
19689TIP3    H180558   4.984   1.341   5.601  0.4786 -0.6098  1.2743
19689TIP3    H280559   4.877   1.443   5.570  0.6978 -1.1320 -1.4173
19690TIP3   OH280560   3.595   6.641  11.084 -0.0742  0.7294  0.1923
19690TIP3    H180561   3.534   6.670  11.152 -0.1012  1.7728 -0.2616
19690TIP3    H280562   3.670   6.700  11.093 -0.0911  0.8907 -0.6983
19691TIP3   OH280563   0.901   4.118  11.984 -0.0678  0.4801 -0.2156
19691TIP3    H180564   0.836   4.157  11.926  0.3620  0.6269 -0.5978
19691TIP3    H280565   0.911   4.182  12.055 -0.8445  0.1475  0.2170
19692TIP3   OH280566   0.936   4.323   1.200 -0.1843 -0.8130 -0.4293
19692TIP3    H180567   0.946   4.415   1.174 -0.1767 -0.1724  1.6123
19692TIP3    H280568   0.925   4.327   1.295 -0.2431 -2.9391 -0.3064
19693TIP3   OH280569   6.250   1.353   5.165  0.0799 -0.2415  0.3758
19693TIP3    H180570   6.233   1.276   5.111  0.9545  0.7887 -1.4545
19693TIP3    H280571   6.181   1.415   5.141  0.3637  0.1582  0.5817
19694TIP3   OH280572   6.577   1.807  11.838 -0.3201  0.3179  0.0764
19694TIP3    H180573   6.665   1.843  11.833 -0.6470  1.0197 -0.8596
19694TIP3    H280574   6.589   1.712  11.837  0.4015  0.4082 -0.4741
19695TIP3   OH280575   1.511   2.754  11.717 -0.0181  0.1821 -0.0695
19695TIP3    H180576   1.486   2.743  11.808 -1.1926  1.5537 -0.1849
19695TIP3    H280577   1.546   2.843  11.713  0.8464 -0.1712 -0.7965
19696TIP3   OH280578   1.927   5.825   5.717 -0.2754  0.2817 -1.0233
19696TIP3    H180579   1.926   5.827   5.622  0.2724  0.1746 -1.0333
19696TIP3    H280580   2.013   5.860   5.741 -0.0163 -0.6294 -0.5948
19697TIP3   OH280581   4.164   1.289   5.775 -0.0936 -0.7702  0.6450
19697TIP3    H180582   4.258   1.274   5.773 -0.0017 -0.1445 -1.2293
19697TIP3    H280583   4.129   1.234   5.705 -0.9271  0.1873  0.2912
19698TIP3   OH280584   2.741   0.349  12.534 -0.1727  0.1702  0.3403
19698TIP3    H180585   2.753   0.352  12.439  0.2691  1.0510  0.4149
19698TIP3    H280586   2.778   0.432  12.566  0.4776 -0.4868  1.3635
19699TIP3   OH280587   0.854   4.215   4.381  0.5171 -0.0026  0.1133
19699TIP3    H180588   0.903   4.295   4.366  1.5392 -0.5911  0.2328
19699TIP3    H280589   0.763   4.244   4.392  0.9134  1.1635  0.4722
19700TIP3   OH280590   2.490   3.805  13.434  0.6705 -0.1974  0.3778
19700TIP3    H180591   2.498   3.765  13.521  2.6248 -1.8858 -0.4930
19700TIP3    H280592   2.552   3.878  13.436  1.7043 -1.0460  0.0119
19701TIP3   OH280593   1.181   6.777   5.688  0.2414  0.1435  0.1940
19701TIP3    H180594   1.169   6.834   5.611 -0.4335  1.3159  1.1258
19701TIP3    H280595   1.176   6.688   5.653  1.1694  0.6372 -1.2907
19702TIP3   OH280596   3.541   2.557   5.995  0.0844 -0.0206 -0.3113
19702TIP3    H180597   3.628   2.523   5.975  0.3050 -0.8266  1.7086
19702TIP3    H280598   3.508   2.591   5.912  0.7409 -3.2296 -2.0317
19703TIP3   OH280599   4.130   0.594  12.898  0.2453  0.3021  0.2213
19703TIP3    H180600   4.049   0.644  12.907  0.7734  1.0835  0.8857
19703TIP3    H280601   4.196   0.648  12.942  1.2303 -0.0772 -0.7326
19704TIP3   OH280602   1.121   0.565  15.775 -0.3756  0.0856  0.2804
19704TIP3    H180603   1.172   0.487  15.752  0.4956  0.6214  0.3591
19704TIP3    H280604   1.159   0.635  15.722 -0.8828  0.5409  0.5120
19705TIP3   OH280605   1.420   4.036   3.302 -0.0110 -0.0774 -0.6843
19705TIP3    H180606   1.327   4.021   3.284 -0.0402 -0.5101 -0.2117
19705TIP3    H280607   1.466   3.981   3.239 -0.1203 -2.8520  1.4768
19706TIP3   OH280608   6.736   5.303  15.642  0.0302 -0.5375  0.0142
19706TIP3    H180609   6.641   5.318  15.642 -0.1584 -1.5479 -1.5175
19706TIP3    H280610   6.774   5.391  15.648 -0.9567 -0.2065  2.4384
19707TIP3   OH280611   0.837   2.298  11.365  0.4997 -0.1547 -0.5267
19707TIP3    H180612   0.815   2.343  11.446 -0.0867 -0.2650 -0.6227
19707TIP3    H280613   0.888   2.222  11.393  0.7734  0.1077 -0.3041
19708TIP3   OH280614   4.080   3.206  14.618  0.4714  0.3965 -0.1168
19708TIP3    H180615   3.996   3.209  14.663 -1.3571 -1.2012 -3.1168
19708TIP3    H280616   4.137   3.157  14.677 -0.6202  1.5838  2.0243
19709TIP3   OH280617   4.508   2.512  16.928  0.0420 -0.4215 -0.0219
19709TIP3    H180618   4.517   2.605  16.904  1.4976 -0.7108 -0.6931
19709TIP3    H280619   4.432   2.482  16.879 -1.4922  0.7825  1.4643
19710TIP3   OH280620   3.795   4.403  14.524 -0.3601  0.1268  0.0384
19710TIP3    H180621   3.880   4.442  14.504  0.9424 -2.8220 -0.6751
19710TIP3    H280622   3.751   4.397  14.439 -0.0360 -1.0135 -0.0594
19711TIP3   OH280623   3.789   4.531  13.451  0.0177  0.1456 -0.6256
19711TIP3    H180624   3.706   4.554  13.409  0.4159  0.6717 -1.1452
19711TIP3    H280625   3.796   4.594  13.524  0.2566  0.5152 -0.9646
19712TIP3   OH280626   5.683   3.776   0.271 -0.0293 -0.1031  0.3334
19712TIP3    H180627   5.604   3.805   0.225  0.9113  0.6638 -0.8596
19712TIP3    H280628   5.692   3.684   0.247  0.9671  0.5190 -1.8614
19713TIP3   OH280629   4.673   3.725  11.000 -0.3587 -0.2310 -0.2029
19713TIP3    H180630   4.692   3.652  10.941  0.1631  1.2180 -1.9152
19713TIP3    H280631   4.746   3.786  10.987 -0.3538  0.2648  1.7984
19714TIP3   OH280632   5.625   6.495   5.560  0.2904  0.4602 -0.1659
19714TIP3    H180633   5.686   6.425   5.583  1.5641  0.9498 -1.8747
19714TIP3    H280634   5.622   6.494   5.465 -0.5689  1.9840 -0.1877
19715TIP3   OH280635   4.262   0.221  16.774 -0.1957  0.8773  0.2508
19715TIP3    H180636   4.340   0.258  16.732 -0.1388  0.8963  0.3689
19715TIP3    H280637   4.190   0.277  16.747 -0.1105  1.0755  0.4273
19716TIP3   OH280638   5.533   0.922  13.482  0.2561 -0.0432  0.2090
19716TIP3    H180639   5.584   0.971  13.546  1.1365 -0.2324 -0.3285
19716TIP3    H280640   5.509   0.986  13.416 -0.0099 -0.0056  0.3387
19717TIP3   OH280641   6.161   1.020  13.646  0.5375  0.1524  0.0639
19717TIP3    H180642   6.149   1.084  13.577  0.7583 -0.7944 -0.8901
19717TIP3    H280643   6.251   0.990  13.636  0.4027 -0.3970  0.4101
19718TIP3   OH280644   1.243   6.375   5.149 -0.0834 -0.1775  0.8011
19718TIP3    H180645   1.162   6.351   5.103 -0.3382  3.9291 -1.3002
19718TIP3    H280646   1.313   6.356   5.087 -0.1123  2.0677 -0.0095
19719TIP3   OH280647   0.101   6.516   0.215 -0.0672 -0.1092  0.6379
19719TIP3    H180648   0.006   6.508   0.207  0.0736 -0.3939 -1.2092
19719TIP3    H280649   0.114   6.561   0.298 -1.9045  1.5259  0.1188
19720TIP3   OH280650   0.799   0.546   4.238  0.0774  0.5638 -0.1252
19720TIP3    H180651   0.859   0.553   4.312  1.1280  1.1439 -0.9925
19720TIP3    H280652   0.725   0.496   4.271  0.3117  1.2054  1.4327
19721TIP3   OH280653   0.618   0.835   0.116 -0.2708  0.3022 -0.0031
19721TIP3    H180654   0.528   0.801   0.107  0.4735 -2.0595  0.6740
19721TIP3    H280655   0.607   0.927   0.138 -2.6041 -0.2680  1.5720
19722TIP3   OH280656   1.591   4.935   6.240  0.1339 -0.1287 -0.3462
19722TIP3    H180657   1.603   4.841   6.250 -1.1219 -0.4967 -1.8680
19722TIP3    H280658   1.512   4.955   6.291  0.8604  0.2761  0.6524
19723TIP3   OH280659   0.252   5.696  17.122 -0.3332 -0.2392 -0.2976
19723TIP3    H180660   0.212   5.659  17.201 -1.8522  1.9145  0.0382
19723TIP3    H280661   0.346   5.693  17.139 -0.6480  1.4013  2.2465
19724TIP3   OH280662   0.734   6.213   3.444  0.0665  0.2242  0.6004
19724TIP3    H180663   0.769   6.224   3.532  1.1066 -0.8895  0.3470
19724TIP3    H280664   0.717   6.120   3.435 -1.3147  0.5015  0.0741
19725TIP3   OH280665   3.018   2.037  11.943 -0.1405 -0.1830  0.5521
19725TIP3    H180666   3.076   1.989  12.002 -1.2304 -0.1239  1.6943
19725TIP3    H280667   2.957   1.971  11.910 -1.6497  0.3728  2.1363
19726TIP3   OH280668   6.789   4.386   2.555 -0.3435 -0.3916  0.0316
19726TIP3    H180669   6.790   4.317   2.488  0.8874 -0.7732  0.4149
19726TIP3    H280670   6.869   4.435   2.539 -1.6667  1.6109 -0.8501
19727TIP3   OH280671   5.331   1.762  16.334 -0.4937  0.5950 -0.1180
19727TIP3    H180672   5.300   1.672  16.329  0.4051  0.2994 -0.6380
19727TIP3    H280673   5.294   1.805  16.257  0.0427  0.3545 -0.5105
19728TIP3   OH280674   0.441   2.662   0.083  0.0232 -0.4319 -0.6380
19728TIP3    H180675   0.409   2.575   0.105  0.5953 -0.1314  1.6439
19728TIP3    H280676   0.525   2.669   0.127  0.0628  1.2193 -0.8996
19729TIP3   OH280677   6.649   1.495  11.766 -0.0143 -0.1247  0.1763
19729TIP3    H180678   6.596   1.416  11.778 -0.7417  0.5212  1.4052
19729TIP3    H280679   6.675   1.520  11.855 -0.0615  1.2033 -0.1587
19730TIP3   OH280680   3.287   2.043   5.793 -0.4070  0.0739 -0.4936
19730TIP3    H180681   3.373   2.002   5.803 -0.8027 -0.6255  0.1444
19730TIP3    H280682   3.259   2.062   5.882 -0.9573  0.2304 -0.6961
19731TIP3   OH280683   5.585   5.207  16.358  0.1952 -0.3125 -0.3789
19731TIP3    H180684   5.646   5.260  16.410 -1.7025  0.7980  0.8276
19731TIP3    H280685   5.583   5.122  16.402  0.4699 -0.1886 -0.1278
19732TIP3   OH280686   0.024   3.082   1.064  0.3684  0.1203 -0.2822
19732TIP3    H180687  -0.032   3.004   1.065  0.7511 -0.1845  1.3869
19732TIP3    H280688  -0.037   3.155   1.051 -0.2847 -0.3003  0.3174
19733TIP3   OH280689   6.172   0.321   2.491  0.2465 -0.4326  0.2496
19733TIP3    H180690   6.217   0.296   2.411 -2.4895  0.1284 -1.5959
19733TIP3    H280691   6.144   0.411   2.476 -0.1489 -0.2380  1.9404
19734TIP3   OH280692   3.793   5.329  14.150  0.2036  0.2843  0.0120
19734TIP3    H180693   3.860   5.381  14.106  0.2566  0.0450 -0.1919
19734TIP3    H280694   3.839   5.251  14.181  0.2348  0.5985  0.7758
19735TIP3   OH280695   5.099   4.133   2.529  0.1304 -0.0675  0.0943
19735TIP3    H180696   5.004   4.121   2.520  0.0726 -0.0944  0.6803
19735TIP3    H280697   5.119   4.098   2.616  0.5055  0.9507  0.4259
19736TIP3   OH280698   6.057   4.103   1.303 -0.3301 -0.4853 -0.5669
19736TIP3    H180699   6.040   4.189   1.263 -1.2849 -0.6927 -0.6324
19736TIP3    H280700   6.053   4.120   1.398  0.0214 -0.3620 -0.5712
19737TIP3   OH280701   0.968   3.065   5.695 -0.0875  0.5729 -0.2103
19737TIP3    H180702   0.904   3.011   5.741  0.8744 -1.3278 -0.9741
19737TIP3    H280703   1.023   3.002   5.648  1.2509  2.2274 -0.9810
19738TIP3   OH280704   1.482   0.642   4.775  0.6323  0.8054  0.8261
19738TIP3    H180705   1.394   0.612   4.799 -0.1510  1.4382 -1.0206
19738TIP3    H280706   1.498   0.602   4.689  1.5409  1.8367  0.4977
19739TIP3   OH280707   0.758   5.212   0.449  0.1636  0.1602 -0.7589
19739TIP3    H180708   0.708   5.150   0.503  1.0867 -0.1793 -0.2602
19739TIP3    H280709   0.773   5.287   0.507  0.0007  0.3734 -0.9925
19740TIP3   OH280710   3.888   0.672  16.492  0.2716 -0.3330 -0.1109
19740TIP3    H180711   3.864   0.621  16.415  0.6356 -1.1833  0.3259
19740TIP3    H280712   3.862   0.617  16.566  0.9081  0.0013  0.3698
19741TIP3   OH280713   3.665   6.749   1.694  0.2798 -0.3594  0.3547
19741TIP3    H180714   3.627   6.836   1.684 -2.2143 -1.4763 -0.9647
19741TIP3    H280715   3.696   6.726   1.606 -2.2548 -2.0412 -0.2110
19742TIP3   OH280716   6.079   3.374   2.117 -0.2747  0.7446 -0.2902
19742TIP3    H180717   6.039   3.422   2.190 -0.1320 -0.0422  0.3160
19742TIP3    H280718   6.171   3.364   2.143 -0.3116  0.1118 -0.3915
19743TIP3   OH280719   3.426   0.222   5.432  0.4700 -0.7341  0.2907
19743TIP3    H180720   3.360   0.247   5.368 -0.6339  0.0834  1.6805
19743TIP3    H280721   3.414   0.128   5.445  1.0112 -1.0011 -0.9883
19744TIP3   OH280722   0.144   5.348  13.905 -0.7946 -0.3844 -0.5119
19744TIP3    H180723   0.052   5.371  13.895 -0.7910 -0.5490 -0.9120
19744TIP3    H280724   0.189   5.396  13.836 -0.0929  2.5229  1.7650
19745TIP3   OH280725   2.031   1.508   0.831 -0.1254  0.2872 -0.0791
19745TIP3    H180726   2.031   1.592   0.785  0.5576 -0.1741 -0.9630
19745TIP3    H280727   2.116   1.505   0.875 -0.5900  0.5234  0.8501
19746TIP3   OH280728   2.292   2.832   1.977 -0.8554  0.0457  0.1416
19746TIP3    H180729   2.370   2.827   2.032 -0.5613  0.5028 -0.2337
19746TIP3    H280730   2.256   2.743   1.979  0.5277 -0.5781 -0.9476
19747TIP3   OH280731   3.935   1.772   6.016 -0.3759 -0.3101 -0.0172
19747TIP3    H180732   4.030   1.763   6.010 -0.0061  2.7153 -0.5176
19747TIP3    H280733   3.906   1.698   6.070  2.4501 -0.3772  1.5561
19748TIP3   OH280734   3.118   3.236  12.998  0.3253  0.2665 -0.2247
19748TIP3    H180735   3.166   3.244  12.915  0.5790  0.0945 -0.0941
19748TIP3    H280736   3.033   3.201  12.972  0.8632 -1.0596 -0.2746
19749TIP3   OH280737   0.713   3.984  16.295  0.0514  0.3594 -0.0538
19749TIP3    H180738   0.711   3.978  16.390 -2.0737  2.0888  0.0662
19749TIP3    H280739   0.653   3.916  16.265  1.4840 -0.8698 -0.2663
19750TIP3   OH280740   0.044   6.630   4.273  0.0983 -0.4742  0.2003
19750TIP3    H180741   0.060   6.584   4.356  1.4115 -1.3352 -0.4988
19750TIP3    H280742   0.127   6.624   4.225 -0.1673  1.3345 -0.5718
19751TIP3   OH280743   4.673   2.152  15.746 -0.6727 -0.3535  0.1271
19751TIP3    H180744   4.727   2.182  15.820 -0.9644 -0.5923  0.4429
19751TIP3    H280745   4.719   2.076  15.711  0.4358  0.8562 -1.1171
19752TIP3   OH280746   4.504   2.999  16.982 -0.0745 -0.0635  0.5112
19752TIP3    H180747   4.467   3.054  16.913  0.2166 -2.5795 -1.8037
19752TIP3    H280748   4.428   2.971  17.033 -0.9466 -1.5706 -1.4711
19753TIP3   OH280749   5.076   1.328  15.316  0.0778  0.0900 -0.2374
19753TIP3    H180750   5.096   1.305  15.225 -2.7553 -0.7714 -0.7478
19753TIP3    H280751   5.094   1.249  15.366 -2.0836 -0.8103 -0.7512
19754TIP3   OH280752   0.283   4.457   2.120  0.4399 -0.6832 -1.0792
19754TIP3    H180753   0.281   4.384   2.183 -2.2413 -0.6428 -1.0094
19754TIP3    H280754   0.243   4.421   2.041  2.7655 -0.4004 -2.4902
19755TIP3   OH280755   5.644   4.764  15.686  0.1966  0.5651 -0.1832
19755TIP3    H180756   5.733   4.732  15.694  0.0269 -0.1578 -1.0024
19755TIP3    H280757   5.632   4.822  15.761  1.0188 -0.1214  0.4966
19756TIP3   OH280758   1.651   6.388  12.882 -0.6027 -0.2352 -0.0566
19756TIP3    H180759   1.696   6.423  12.959 -1.0636 -1.6640  0.8898
19756TIP3    H280760   1.718   6.389  12.813  0.3000 -0.4903  0.7932
19757TIP3   OH280761   5.589   0.375  11.367 -0.1021 -0.0309  0.3964
19757TIP3    H180762   5.558   0.308  11.428  0.2517 -0.1632  0.4338
19757TIP3    H280763   5.531   0.369  11.292  1.1458 -1.7536 -0.4951
19758TIP3   OH280764   1.671   4.438  14.115  0.4021 -0.2350 -0.2563
19758TIP3    H180765   1.763   4.413  14.101  1.1747  1.7111  0.9420
19758TIP3    H280766   1.661   4.441  14.210 -0.2031  1.8883 -0.3550
19759TIP3   OH280767   2.441   1.313   2.359 -0.0789  0.2610 -0.1708
19759TIP3    H180768   2.480   1.287   2.276 -1.8834  0.7648 -1.2128
19759TIP3    H280769   2.395   1.236   2.390  0.0311  0.2757  0.0330
19760TIP3   OH280770   0.984   4.867   0.629 -0.3190 -0.1949  0.6173
19760TIP3    H180771   1.048   4.936   0.616 -0.8844  0.6609  2.0741
19760TIP3    H280772   0.955   4.878   0.720 -0.1288 -2.6003  1.0488
19761TIP3   OH280773   4.027   1.976  11.742  0.2593  0.4490 -0.5860
19761TIP3    H180774   4.030   2.058  11.693 -2.6291  0.4209 -1.0061
19761TIP3    H280775   3.942   1.978  11.786 -0.7864 -3.0875 -2.1140
19762TIP3   OH280776   2.918   6.558  11.751 -0.0360 -0.2021  0.1351
19762TIP3    H180777   2.959   6.482  11.792 -0.0956  0.3262  1.2125
19762TIP3    H280778   2.984   6.591  11.690 -0.7066 -2.2135 -1.8090
19763TIP3   OH280779   3.499   3.698   3.705  0.4144 -0.3415  0.1593
19763TIP3    H180780   3.436   3.631   3.733 -0.0161 -0.1750 -0.3954
19763TIP3    H280781   3.582   3.668   3.740  0.2000 -1.1090  0.0333
19764TIP3   OH280782   4.270   1.055  14.931  0.2433 -0.0503 -0.7253
19764TIP3    H180783   4.175   1.054  14.941  0.4481  0.8925  2.3283
19764TIP3    H280784   4.296   1.145  14.954  1.9056 -0.4386 -0.9377
19765TIP3   OH280785   3.855   1.340  17.041 -0.1874  0.3996  0.3814
19765TIP3    H180786   3.840   1.400  17.113  1.2659  2.5106 -0.9754
19765TIP3    H280787   3.773   1.292  17.032 -1.3226  2.0113  1.6626
19766TIP3   OH280788   4.025   6.428  17.073 -0.7392  0.9974  0.0532
19766TIP3    H180789   3.977   6.375  17.009  0.0802 -0.0175  0.2560
19766TIP3    H280790   3.961   6.492  17.104 -1.5082  0.6830 -0.8327
19767TIP3   OH280791   5.286   3.408   4.439 -0.5658 -0.2776  0.8793
19767TIP3    H180792   5.235   3.362   4.372  1.4121 -0.5863 -0.5073
19767TIP3    H280793   5.232   3.403   4.518 -2.3091 -1.2324 -0.3075
19768TIP3   OH280794   6.797   5.969  10.932  0.4482  0.0748  0.0532
19768TIP3    H180795   6.786   5.874  10.928 -0.9985  0.1328  1.5605
19768TIP3    H280796   6.792   5.998  10.841 -1.0342 -1.1257 -0.2770
19769TIP3   OH280797   4.049   2.758   2.464 -0.1799 -0.4433  0.4955
19769TIP3    H180798   3.999   2.702   2.523 -0.9118  1.7989  2.1353
19769TIP3    H280799   4.001   2.756   2.382 -1.4070 -0.5290  1.2003
19770TIP3   OH280800   4.508   4.330   2.035  0.8492 -0.4863 -0.7829
19770TIP3    H180801   4.450   4.381   1.978  1.4529  0.6836 -0.3782
19770TIP3    H280802   4.560   4.396   2.081  3.9436 -1.4701 -2.5604
19771TIP3   OH280803   4.769   4.784   4.732  0.2108 -0.0044  0.4596
19771TIP3    H180804   4.784   4.872   4.699  0.2235 -0.5644 -1.1447
19771TIP3    H280805   4.702   4.793   4.799 -0.1706  1.1513 -0.0663
19772TIP3   OH280806   5.988   1.663  13.652  0.0322 -0.1438  0.1962
19772TIP3    H180807   5.921   1.713  13.605 -1.8943 -0.9259  1.9783
19772TIP3    H280808   5.975   1.573  13.622  1.1272 -0.1395 -0.3358
19773TIP3   OH280809   3.575   0.053   5.803 -0.4981 -0.2417 -0.2253
19773TIP3    H180810   3.599   0.142   5.826  1.2633 -0.2191 -1.8804
19773TIP3    H280811   3.565   0.008   5.886  1.0083  0.9088  0.6197
19774TIP3   OH280812   5.253   6.463   4.664  0.2586  0.4409  0.5397
19774TIP3    H180813   5.273   6.372   4.686  3.0618  0.8015 -0.1239
19774TIP3    H280814   5.171   6.481   4.710  1.0499 -1.5853  2.9851
19775TIP3   OH280815   0.624   6.125   2.294 -0.3973 -0.1392 -0.2523
19775TIP3    H180816   0.635   6.065   2.221 -0.9060 -0.7180  0.1332
19775TIP3    H280817   0.649   6.074   2.371  2.3019  1.1285 -0.1909
19776TIP3   OH280818   0.487   0.293   0.099 -0.1257 -0.1970  0.5467
19776TIP3    H180819   0.405   0.259   0.135 -1.3812  0.4418 -1.5305
19776TIP3    H280820   0.459   0.359   0.035  1.9158 -1.3798 -1.7034
19777TIP3   OH280821   4.580   6.241  16.607  0.2703  0.7417 -0.1455
19777TIP3    H180822   4.492   6.246  16.644 -0.6742 -1.1681 -1.9075
19777TIP3    H280823   4.627   6.178  16.662  0.4239  1.4698  0.5666
19778TIP3   OH280824   4.306   6.293  16.669 -1.1818  0.4316 -0.3807
19778TIP3    H180825   4.326   6.361  16.734  1.3911 -0.1596 -0.4268
19778TIP3    H280826   4.212   6.301  16.654 -1.9542  0.4750  3.5276
19779TIP3   OH280827   3.523   2.703   6.218  0.3231  0.5087 -0.0535
19779TIP3    H180828   3.528   2.649   6.139  0.5007  0.8285 -0.2597
19779TIP3    H280829   3.588   2.665   6.278 -1.0523 -0.8626  0.6359
19780TIP3   OH280830   1.047   1.650   3.263  0.2540 -0.4869 -0.0173
19780TIP3    H180831   1.024   1.566   3.223  0.9232 -0.7607  0.1456
19780TIP3    H280832   1.048   1.632   3.357 -0.1984 -0.1376  0.0547
19781TIP3   OH280833   6.358   4.597  12.056 -0.2024  0.0571  0.1427
19781TIP3    H180834   6.444   4.555  12.050 -1.0907 -1.6909 -1.3184
19781TIP3    H280835   6.313   4.551  12.126 -0.4572 -0.0251 -0.0725
19782TIP3   OH280836   6.619   5.116   5.092  1.1871 -0.8062  0.3031
19782TIP3    H180837   6.528   5.087   5.083  1.3729 -1.2220 -0.2996
19782TIP3    H280838   6.613   5.201   5.135  0.4345 -0.2579 -0.8212
19783TIP3   OH280839   3.633   0.563  15.950 -0.2399 -0.3994 -0.1037
19783TIP3    H180840   3.675   0.495  16.002 -1.6538 -0.2998  1.2581
19783TIP3    H280841   3.672   0.556  15.863  0.6119 -2.0266  0.3846
19784TIP3   OH280842   4.979   1.786  16.203  0.2432  0.1971  0.1558
19784TIP3    H180843   4.924   1.853  16.162  0.6473  1.1168  1.0734
19784TIP3    H280844   5.068   1.811  16.181  0.4298  0.3308  1.0283
19785TIP3   OH280845   3.402   5.647  14.438 -0.7306 -0.0670 -0.0776
19785TIP3    H180846   3.470   5.693  14.388 -1.1591 -0.4039 -1.0025
19785TIP3    H280847   3.399   5.560  14.399  0.7446 -1.2529  2.2919
19786TIP3   OH280848   6.800   0.417  14.830  0.1217  0.0238 -0.4584
19786TIP3    H180849   6.807   0.513  14.835 -0.0887 -0.0287  1.9082
19786TIP3    H280850   6.707   0.401  14.816  0.3372  0.1472 -2.2809
19787TIP3   OH280851   5.337   5.262   1.925 -0.0430  0.0727  0.1278
19787TIP3    H180852   5.403   5.204   1.886 -1.6463 -1.6933 -0.1061
19787TIP3    H280853   5.386   5.340   1.950  1.9379 -0.7412 -0.9659
19788TIP3   OH280854   5.444   0.885  13.134 -0.6952 -0.1892  0.7280
19788TIP3    H180855   5.414   0.906  13.046 -0.7561 -0.2645  0.7296
19788TIP3    H280856   5.458   0.969  13.176  0.0651 -0.1454  0.4017
19789TIP3   OH280857   3.780   3.319   3.582 -0.3048 -0.3929  0.3689
19789TIP3    H180858   3.762   3.276   3.666 -0.5791 -0.1626  0.4298
19789TIP3    H280859   3.875   3.320   3.575 -0.2369  0.5020  1.1642
19790TIP3   OH280860   5.411   5.268  10.920 -0.2928  0.0031  0.7415
19790TIP3    H180861   5.436   5.199  10.859 -0.5058 -2.0962  2.8603
19790TIP3    H280862   5.482   5.333  10.913  2.1493 -2.3909  1.5043
19791TIP3   OH280863   1.313   5.778  15.244 -0.0333  0.0503 -0.1809
19791TIP3    H180864   1.232   5.737  15.276 -0.3433  0.9559  0.2077
19791TIP3    H280865   1.284   5.842  15.179  0.0323  2.7195  2.2450
19792TIP3   OH280866   6.109   4.713   4.027 -0.1454 -0.0620  0.1224
19792TIP3    H180867   6.069   4.672   4.104 -0.6563 -0.1000 -0.1570
19792TIP3    H280868   6.198   4.679   4.026 -0.4707 -0.9403  0.0669
19793TIP3   OH280869   4.333   5.575  13.515  0.4143 -0.5822  0.1890
19793TIP3    H180870   4.238   5.572  13.499  0.4945  2.0780 -1.3499
19793TIP3    H280871   4.371   5.534  13.437  0.5572  0.0170 -0.0578
19794TIP3   OH280872   1.117   5.852   1.668 -0.3105 -0.4094 -0.0666
19794TIP3    H180873   1.099   5.785   1.601  0.1954 -0.5689 -0.0489
19794TIP3    H280874   1.170   5.917   1.622  3.5046 -2.3917  1.0429
19795TIP3   OH280875   6.227   5.157   4.864  0.7026 -0.3261  0.9739
19795TIP3    H180876   6.308   5.191   4.826 -0.1667  0.9511  0.1813
19795TIP3    H280877   6.192   5.098   4.798 -0.5155  1.4526 -0.0449
19796TIP3   OH280878   0.652   4.278  11.417 -0.0327 -0.2931 -0.3638
19796TIP3    H180879   0.565   4.238  11.411  0.8287 -2.0796 -2.3633
19796TIP3    H280880   0.712   4.204  11.407  1.6885  1.1047 -0.7419
19797TIP3   OH280881   6.571   2.739   6.416 -0.6073 -0.1331  0.4472
19797TIP3    H180882   6.659   2.720   6.448 -0.5402 -1.2412 -0.3312
19797TIP3    H280883   6.541   2.657   6.377 -1.9310  0.2685  0.5561
19798TIP3   OH280884   1.234   0.537   4.810  0.4099 -0.0207 -0.4495
19798TIP3    H180885   1.177   0.525   4.735  2.0595  1.7828 -2.0949
19798TIP3    H280886   1.211   0.623   4.845  0.6512 -0.2166  0.2212
19799TIP3   OH280887   1.588   0.840   4.913 -0.4828 -1.1946 -0.2827
19799TIP3    H180888   1.669   0.822   4.961 -1.1836 -0.1411  1.3968
19799TIP3    H280889   1.569   0.758   4.866  0.4924 -2.1391  0.8965
19800TIP3   OH280890   6.540   5.556   0.981  0.6747 -0.4585 -1.0762
19800TIP3    H180891   6.624   5.526   1.015 -0.4116 -3.0675 -0.4494
19800TIP3    H280892   6.476   5.525   1.045 -0.7456  2.4706 -0.9079
19801TIP3   OH280893   0.041   5.334  14.761  0.0430 -0.1886 -0.2758
19801TIP3    H180894   0.052   5.278  14.838  0.1041 -1.2437 -1.0343
19801TIP3    H280895  -0.034   5.297  14.714  0.4747 -0.0174 -1.1174
19802TIP3   OH280896   4.969   0.215   5.175 -0.4971 -0.0249 -0.0749
19802TIP3    H180897   4.942   0.146   5.114  0.5372 -1.0806  0.6198
19802TIP3    H280898   4.955   0.178   5.262 -1.8936  1.4409  0.3842
19803TIP3   OH280899   1.278   3.975   3.597 -0.3227  0.2494 -0.2294
19803TIP3    H180900   1.264   4.011   3.509  1.7133 -0.1624 -0.7671
19803TIP3    H280901   1.255   3.883   3.589 -1.2822  0.4497  0.0141
19804TIP3   OH280902   6.756   5.128   1.350 -0.5347  0.5631 -0.5531
19804TIP3    H180903   6.751   5.051   1.407  0.5599  0.9039  0.0237
19804TIP3    H280904   6.670   5.131   1.307 -0.3646 -1.3758 -1.1197
19805TIP3   OH280905   5.835   0.707   3.052  0.3650 -0.1094  0.0413
19805TIP3    H180906   5.927   0.702   3.078  1.0216  0.5321 -1.9153
19805TIP3    H280907   5.838   0.731   2.959 -1.7896  0.0589 -0.0417
19806TIP3   OH280908   6.341   0.030   3.888  0.1831 -0.5153 -0.1824
19806TIP3    H180909   6.338   0.105   3.829  1.8091 -0.9021 -0.8172
19806TIP3    H280910   6.345   0.069   3.975  1.1130  0.1723 -0.5051
19807TIP3   OH280911   3.530   1.993   1.765 -0.6565  0.2319 -0.1408
19807TIP3    H180912   3.529   2.041   1.848  0.9957  1.8233 -0.9602
19807TIP3    H280913   3.600   2.035   1.715 -0.1461 -2.1223 -1.5077
19808TIP3   OH280914   4.534   6.553   2.642  0.4374 -0.4101  0.2092
19808TIP3    H180915   4.442   6.545   2.666  0.1368  0.2751 -0.6547
19808TIP3    H280916   4.574   6.600   2.715  0.2643 -1.3249  0.9127
19809TIP3   OH280917   2.476   2.523   0.798 -0.4089  0.1804  0.3212
19809TIP3    H180918   2.495   2.537   0.890  1.0097  0.0355  0.0714
19809TIP3    H280919   2.553   2.478   0.764 -1.4192 -0.8819 -0.6768
19810TIP3   OH280920   2.479   6.455  13.694 -0.4900 -0.7638 -0.0848
19810TIP3    H180921   2.488   6.384  13.758  1.1013  0.0846  0.7039
19810TIP3    H280922   2.474   6.535  13.747  1.3946  0.0069 -0.9784
19811TIP3   OH280923   3.128   5.121  10.829 -0.2628 -0.3785 -0.1483
19811TIP3    H180924   3.215   5.155  10.805 -0.6616 -0.1125 -1.2769
19811TIP3    H280925   3.092   5.188  10.888  0.5468 -0.8157  0.8845
19812TIP3   OH280926   4.350   6.444  11.579 -0.0905  0.6066 -0.2178
19812TIP3    H180927   4.335   6.399  11.496  1.1091  1.4387 -0.9175
19812TIP3    H280928   4.273   6.423  11.633  0.0569 -1.5831 -0.7985
19813TIP3   OH280929   3.803   4.863  14.200  0.2463 -0.4861  0.5377
19813TIP3    H180930   3.719   4.877  14.245  0.1696  0.6926  0.0628
19813TIP3    H280931   3.786   4.789  14.141 -0.9291  0.6128 -0.5978
19814TIP3   OH280932   6.693   6.190   0.556  0.1886 -0.3263  0.3094
19814TIP3    H180933   6.713   6.248   0.629  3.5655 -0.4011 -0.3847
19814TIP3    H280934   6.730   6.105   0.580  3.3550  0.1419 -2.0965
19815TIP3   OH280935   4.684   6.117  17.064  0.1515  0.0134 -0.2426
19815TIP3    H180936   4.688   6.175  17.140 -1.4138 -1.0044  0.6634
19815TIP3    H280937   4.640   6.169  16.996  0.5259  0.5379 -0.0872
19816TIP3   OH280938   0.417   0.217   5.920  0.3034 -0.0072  0.3964
19816TIP3    H180939   0.490   0.239   5.979 -1.4590  0.8465  2.3860
19816TIP3    H280940   0.402   0.297   5.870  0.3280  0.0140  0.4227
19817TIP3   OH280941   6.448   5.290  14.220  0.0261  0.0007  0.1819
19817TIP3    H180942   6.488   5.281  14.134 -1.0933  0.8729 -0.4722
19817TIP3    H280943   6.444   5.201  14.255 -1.0508 -0.6306 -1.4143
19818TIP3   OH280944   4.114   3.046  12.034  0.1284  0.1322  0.7445
19818TIP3    H180945   4.141   3.136  12.052  0.3537  0.1789  0.1717
19818TIP3    H280946   4.165   2.993  12.096 -2.0820  0.5864  3.1453
19819TIP3   OH280947   3.639   1.577   3.333  0.7386  0.6711  0.3203
19819TIP3    H180948   3.620   1.553   3.242 -1.2666  1.2688  0.5291
19819TIP3    H280949   3.604   1.504   3.384  1.5679  0.4872  0.6359
19820TIP3   OH280950   3.022   2.566   5.061  0.1380  0.4484 -0.5370
19820TIP3    H180951   3.006   2.594   5.151  1.5010  1.9706 -0.7334
19820TIP3    H280952   3.000   2.472   5.061  0.7425  0.2624  1.5263
19821TIP3   OH280953   5.128   4.897  15.463  0.0190  0.1769 -0.7121
19821TIP3    H180954   5.179   4.876  15.542 -0.0668 -0.1889 -0.7504
19821TIP3    H280955   5.178   4.965  15.420 -0.2002  0.7573 -0.0688
19822TIP3   OH280956   4.482   2.665  10.978  0.1128 -0.0695  0.5303
19822TIP3    H180957   4.412   2.648  10.915 -0.5622  0.3045  1.1673
19822TIP3    H280958   4.485   2.760  10.986  0.6007 -0.0876  0.6187
19823TIP3   OH280959   1.889   0.877  15.664 -0.3333 -0.3242  0.0269
19823TIP3    H180960   1.903   0.790  15.702 -1.2200  0.2288  1.7477
19823TIP3    H280961   1.857   0.860  15.576  0.4379 -1.7105 -0.0179
19824TIP3   OH280962   3.432   3.345   2.395 -0.3419  0.4503 -0.1254
19824TIP3    H180963   3.497   3.415   2.391 -1.0110  1.0782 -0.1905
19824TIP3    H280964   3.422   3.316   2.304  0.4926 -0.2721 -0.0072
19825TIP3   OH280965   6.396   1.193   3.978 -0.4491  0.3492  0.2011
19825TIP3    H180966   6.414   1.242   3.897 -4.1777  1.4371 -0.1734
19825TIP3    H280967   6.354   1.258   4.035 -0.1426 -1.0309  2.0606
19826TIP3   OH280968   5.998   2.488  15.798  0.6288 -0.5616  0.1267
19826TIP3    H180969   5.903   2.492  15.805  0.7953  1.7354  2.8013
19826TIP3    H280970   6.029   2.486  15.888  3.1651 -1.9269 -0.6558
19827TIP3   OH280971   2.710   5.302   6.473  0.4243 -0.3684 -0.1208
19827TIP3    H180972   2.707   5.241   6.400 -0.0603  0.5129 -0.8559
19827TIP3    H280973   2.703   5.388   6.433  1.5880  0.2124  0.8462
19828TIP3   OH280974   2.828   4.208  11.789 -0.2691  0.2329  0.3914
19828TIP3    H180975   2.854   4.171  11.873 -1.3284 -1.1818  0.1206
19828TIP3    H280976   2.786   4.291  11.812 -0.1056  0.0960  1.2141
19829TIP3   OH280977   0.768   6.617   0.292  0.0993  0.5330  0.2828
19829TIP3    H180978   0.849   6.570   0.271  0.6079  2.1492 -1.7033
19829TIP3    H280979   0.785   6.707   0.264 -2.1419  1.0623  0.4686
19830TIP3   OH280980   6.496   2.232  16.368  0.1483  0.0412  0.2173
19830TIP3    H180981   6.429   2.177  16.329  1.8414 -0.4101 -2.2830
19830TIP3    H280982   6.527   2.182  16.444 -0.7545 -0.8015  0.0428
19831TIP3   OH280983   6.776   3.761   1.768  0.1952 -0.0375  0.3965
19831TIP3    H180984   6.715   3.759   1.841  0.5293  0.3673  0.6916
19831TIP3    H280985   6.721   3.752   1.690 -0.0516 -1.7958  0.7390
19832TIP3   OH280986   0.518   0.136  12.213  0.1088 -0.3382  1.0018
19832TIP3    H180987   0.508   0.230  12.195  0.6778 -0.5256 -0.4089
19832TIP3    H280988   0.451   0.094  12.158 -0.5958 -0.7451  2.1219
19833TIP3   OH280989   6.446   5.835   3.258  0.2328 -0.6145 -0.0844
19833TIP3    H180990   6.524   5.841   3.313  0.0839 -0.6238  0.1305
19833TIP3    H280991   6.479   5.823   3.169  0.4896 -0.0436 -0.0733
19834TIP3   OH280992   2.286   5.237   0.901  0.6147 -0.1420 -0.1447
19834TIP3    H180993   2.250   5.280   0.979 -0.0368  0.7492 -0.9140
19834TIP3    H280994   2.221   5.254   0.832  1.8715  0.3607 -1.2532
19835TIP3   OH280995   4.268   0.142   1.260  0.1790  0.4048  0.2376
19835TIP3    H180996   4.346   0.091   1.281 -0.0024  0.8313  2.1404
19835TIP3    H280997   4.259   0.203   1.334 -1.8968  0.4213  0.0233
19836TIP3   OH280998   6.646   2.206  14.695 -0.4901  0.2025 -0.3782
19836TIP3    H180999   6.665   2.150  14.619  2.2186 -1.5348  1.3951
19836TIP3    H281000   6.708   2.278  14.688 -0.8965  0.5621 -0.3053
19837TIP3   OH281001   5.548   4.054   0.256  0.0967  0.2701  0.5692
19837TIP3    H181002   5.497   3.997   0.198  1.8793 -2.0663  1.1079
19837TIP3    H281003   5.515   4.035   0.344 -0.2982  1.2286  0.6367
19838TIP3   OH281004   1.738   3.876   6.735 -0.4150 -0.0279 -0.4169
19838TIP3    H181005   1.791   3.811   6.690  1.1609  1.1501 -0.3256
19838TIP3    H281006   1.801   3.932   6.781 -1.5267  2.7978 -2.1093
19839TIP3   OH281007   0.358   2.721   1.957  0.0959 -0.0568 -0.0439
19839TIP3    H181008   0.345   2.710   2.052  0.2902  0.6370  0.0675
19839TIP3    H281009   0.286   2.671   1.918 -1.9106  2.2096  0.5349
19840TIP3   OH281010   4.589   5.830  15.804 -0.5928  0.6877  0.1224
19840TIP3    H181011   4.524   5.765  15.831 -1.7717  0.9817 -1.8570
19840TIP3    H281012   4.669   5.805  15.851 -0.1839 -3.8482 -2.4148
19841TIP3   OH281013   5.663   4.278  14.963 -0.8928  0.1778  0.0782
19841TIP3    H181014   5.621   4.302  15.046 -0.6508  1.2147 -0.0801
19841TIP3    H281015   5.607   4.318  14.897 -0.7435 -0.1206 -0.2255
19842TIP3   OH281016   1.438   3.299   1.605 -0.0596  0.3532 -0.0913
19842TIP3    H181017   1.528   3.310   1.637 -0.1366  1.2951 -0.1736
19842TIP3    H281018   1.430   3.363   1.535 -0.7291  0.1175 -0.2286
19843TIP3   OH281019   1.207   1.854  14.395  0.0824 -0.0445  0.2867
19843TIP3    H181020   1.174   1.944  14.390  0.4635  0.1326  0.8020
19843TIP3    H281021   1.236   1.845  14.486  0.9728 -0.3650 -0.0205
19844TIP3   OH281022   5.527   0.073   4.345  0.0390 -0.1319  0.1346
19844TIP3    H181023   5.602   0.080   4.404 -0.8245  1.8463  1.1108
19844TIP3    H281024   5.559   0.105   4.261  0.2959  0.7716  0.5642
19845TIP3   OH281025   1.241   4.817  13.527  0.1292  0.1463 -0.1560
19845TIP3    H181026   1.250   4.893  13.586  1.0337 -0.0989  0.0405
19845TIP3    H281027   1.167   4.839  13.471  0.2111  1.0666  0.0765
19846TIP3   OH281028   1.975   1.912   0.222  0.4069  0.0239  0.5171
19846TIP3    H181029   2.005   1.883   0.136 -0.3933 -1.6671  0.7788
19846TIP3    H281030   2.054   1.947   0.264  1.3233 -1.3437 -0.0116
19847TIP3   OH281031   0.848   0.829  15.765  0.8396  0.5052 -0.1810
19847TIP3    H181032   0.758   0.842  15.795  1.0649  0.8552  0.3719
19847TIP3    H281033   0.900   0.836  15.845  1.2391 -1.1870 -0.2722
19848TIP3   OH281034   1.718   2.516   5.733 -0.0631 -0.2694 -0.4802
19848TIP3    H181035   1.801   2.469   5.747 -0.4337 -0.6133  0.7593
19848TIP3    H281036   1.652   2.448   5.731 -0.7235  0.1473  2.2643
19849TIP3   OH281037   1.623   1.612   5.450 -0.4354 -0.2110 -0.9043
19849TIP3    H181038   1.650   1.697   5.415  0.5005 -0.8271 -1.7455
19849TIP3    H281039   1.541   1.593   5.404 -1.1233  0.6045 -0.0701
19850TIP3   OH281040   6.100   1.353  16.214  0.0423  0.8005 -0.1984
19850TIP3    H181041   6.105   1.437  16.260  0.4039  0.0279  1.2535
19850TIP3    H281042   6.025   1.309  16.253  2.0094 -1.0291  1.8077
19851TIP3   OH281043   1.585   1.381   2.324 -0.2231 -0.3763 -0.0575
19851TIP3    H181044   1.532   1.456   2.297 -0.1012 -0.8151 -1.6222
19851TIP3    H281045   1.656   1.419   2.375 -1.2212  0.3669  0.8095
19852TIP3   OH281046   4.922   1.550   0.136  0.2203  0.1025  0.5377
19852TIP3    H181047   4.954   1.484   0.075 -1.2888  0.8026 -1.1229
19852TIP3    H281048   4.999   1.575   0.188  1.2252 -1.5644 -0.0875
19853TIP3   OH281049   2.799   5.864   2.125  0.2714 -0.0350  0.5490
19853TIP3    H181050   2.795   5.789   2.185 -0.1477  0.5071  1.2114
19853TIP3    H281051   2.751   5.933   2.170 -1.2888 -0.0223 -1.0033
19854TIP3   OH281052   1.674   5.703  15.883  0.4978  0.0215  0.1389
19854TIP3    H181053   1.740   5.716  15.815 -0.3109 -1.0871 -0.8837
19854TIP3    H281054   1.688   5.614  15.913  0.2484  0.1955  0.7945
19855TIP3   OH281055   5.278   4.584   3.492 -0.3755 -0.0926  0.0036
19855TIP3    H181056   5.271   4.541   3.407  1.0434 -0.8041  0.2194
19855TIP3    H281057   5.194   4.567   3.535 -0.6621 -0.7273 -0.7841
19856TIP3   OH281058   5.911   3.701  13.686  0.7631  0.3792  0.3460
19856TIP3    H181059   6.005   3.719  13.679  0.7247  0.4654  0.0228
19856TIP3    H281060   5.877   3.773  13.737  0.6931  0.9695 -0.5113
19857TIP3   OH281061   0.431   5.010  13.289  0.2151 -0.1263 -0.2160
19857TIP3    H181062   0.460   4.919  13.289  0.0701 -0.1884 -1.4286
19857TIP3    H281063   0.445   5.040  13.199 -1.3386  0.5236 -0.2792
19858TIP3   OH281064   6.807   4.016  11.332  0.3451  0.6754 -0.0577
19858TIP3    H181065   6.830   3.959  11.259 -1.6013 -1.6925  1.0219
19858TIP3    H281066   6.870   3.994  11.400 -0.7731 -0.7622  0.5704
19859TIP3   OH281067   2.382   3.647  14.445  0.4048 -0.4154 -0.1461
19859TIP3    H181068   2.430   3.676  14.367 -1.9550  0.6038 -1.3096
19859TIP3    H281069   2.411   3.707  14.514  2.6107 -1.4007 -0.1327
19860TIP3   OH281070   0.525   3.533   4.554  0.5159 -0.0789  0.4041
19860TIP3    H181071   0.536   3.616   4.600 -0.4353  0.3948 -0.1917
19860TIP3    H281072   0.451   3.491   4.597  1.7780 -1.2214  1.5299
19861TIP3   OH281073   0.324   0.027  11.501  0.1645  0.2707  0.7735
19861TIP3    H181074   0.414   0.021  11.470  0.3037  1.1612  0.9737
19861TIP3    H281075   0.270   0.011  11.424  0.4831 -0.8199  0.7665
19862TIP3   OH281076   3.675   1.419  13.090  0.4812  0.0780  0.6555
19862TIP3    H181077   3.582   1.423  13.114 -0.2902 -0.8059 -1.8314
19862TIP3    H281078   3.717   1.484  13.147 -1.9889  1.9809  0.5086
19863TIP3   OH281079   4.467   5.036  14.988  0.3234  0.0172 -0.2104
19863TIP3    H181080   4.551   5.066  15.023  0.0686 -1.6940  2.1838
19863TIP3    H281081   4.486   4.949  14.953 -0.1861  0.2145 -0.9983
19864TIP3   OH281082   3.696   6.578  14.409  0.2425  0.3469  0.1503
19864TIP3    H181083   3.663   6.607  14.324 -1.4212  1.4445  1.1025
19864TIP3    H281084   3.783   6.616  14.416  0.3443  0.3419 -1.0132
19865TIP3   OH281085   6.697   4.303   5.136 -0.2915 -0.9327  0.0300
19865TIP3    H181086   6.790   4.284   5.147  0.4857  1.3652 -1.7951
19865TIP3    H281087   6.679   4.369   5.203 -1.2947 -2.9283  1.8890
19866TIP3   OH281088   2.663   4.964  16.136  0.9358 -0.6120  0.1997
19866TIP3    H181089   2.756   4.958  16.154  0.9334 -0.1740  0.3616
19866TIP3    H281090   2.639   4.877  16.103  1.1010 -1.1862  1.5177
19867TIP3   OH281091   0.295   4.707  12.048 -0.4584  0.1613 -0.3789
19867TIP3    H181092   0.371   4.674  12.000 -0.8799  1.1355 -1.8047
19867TIP3    H281093   0.322   4.794  12.079 -0.9333  0.4666 -0.7975
19868TIP3   OH281094   6.659   0.637  16.973  0.0108 -0.4383  0.0219
19868TIP3    H181095   6.593   0.689  17.018  0.9847  0.3752  0.5648
19868TIP3    H281096   6.712   0.701  16.925 -0.1312 -1.1582 -1.1383
19869TIP3   OH281097   6.281   6.398  10.865  0.4884  0.4384  0.3877
19869TIP3    H181098   6.369   6.429  10.842  0.4436  0.8641  0.7666
19869TIP3    H281099   6.236   6.388  10.781  0.7733  0.5928  0.2148
19870TIP3   OH281100   6.065   5.903   1.526  0.1373 -0.6858 -0.3801
19870TIP3    H181101   6.092   5.837   1.589  1.2574 -0.9902 -1.1507
19870TIP3    H281102   5.975   5.925   1.550  0.2469 -1.4501  0.7505
19871TIP3   OH281103   2.427   0.260   6.180  0.5625  0.1481 -0.2527
19871TIP3    H181104   2.504   0.266   6.123  0.1755 -0.7093 -0.8871
19871TIP3    H281105   2.452   0.198   6.248 -0.1319 -1.4807 -1.4290
19872TIP3   OH281106   4.299   4.978   0.266 -0.3909  0.1237 -0.1446
19872TIP3    H181107   4.242   4.952   0.339 -1.7296 -0.0744 -1.2072
19872TIP3    H281108   4.288   4.908   0.202  1.1592  0.0422 -0.3543
19873TIP3   OH281109   0.695   5.123  14.250  0.4863 -0.2350  0.5605
19873TIP3    H181110   0.606   5.158  14.254  0.6855  0.3499  0.1262
19873TIP3    H281111   0.739   5.162  14.326  0.4661 -0.2386  0.5738
19874TIP3   OH281112   3.507   4.743  13.582  0.6754 -0.4804  0.5418
19874TIP3    H181113   3.417   4.732  13.615  1.5297 -0.2281  3.2586
19874TIP3    H281114   3.510   4.691  13.502 -1.7284 -0.9792  0.6884
19875TIP3   OH281115   5.994   5.115   1.842 -0.3221 -0.2607  1.0210
19875TIP3    H181116   5.982   5.034   1.890 -0.4271  0.3881  2.1087
19875TIP3    H281117   5.991   5.089   1.750 -0.8413 -1.4088  1.3508
19876TIP3   OH281118   5.849   5.772   3.007  0.3235 -0.0506 -0.4442
19876TIP3    H181119   5.861   5.734   3.094 -0.7961  0.9572  0.1819
19876TIP3    H281120   5.819   5.698   2.953 -1.5536 -0.1964  0.6849
19877TIP3   OH281121   5.840   1.710   5.447  0.3243 -0.1767 -0.5802
19877TIP3    H181122   5.837   1.769   5.371  0.4102  2.5909  1.4242
19877TIP3    H281123   5.748   1.689   5.464  0.1012  1.1133 -0.0976
19878TIP3   OH281124   4.750   3.272   1.171  0.6532  0.5212  0.0673
19878TIP3    H181125   4.672   3.320   1.142  0.3135 -0.4998 -0.7702
19878TIP3    H281126   4.753   3.287   1.266 -1.6211 -0.8805  0.4291
19879TIP3   OH281127   1.022   2.367  13.968 -0.0092 -0.4051 -0.1705
19879TIP3    H181128   1.083   2.319  14.024 -0.1486 -1.7450 -1.1500
19879TIP3    H281129   1.069   2.449  13.948 -0.6381  1.0164  3.3098
19880TIP3   OH281130   2.841   5.368  11.428 -0.1485 -0.2865 -0.0042
19880TIP3    H181131   2.903   5.384  11.358 -0.2656  0.7906  0.1293
19880TIP3    H281132   2.762   5.416  11.402  0.3277  1.4503  1.5974
19881TIP3   OH281133   3.608   5.414  12.725 -0.1032 -0.1434 -0.7523
19881TIP3    H181134   3.616   5.494  12.674  2.4591  0.3602  0.3029
19881TIP3    H281135   3.684   5.362  12.701 -0.4265 -1.1870  0.3750
19882TIP3   OH281136   0.386   2.589  11.085 -0.1126 -0.3354  0.9001
19882TIP3    H181137   0.452   2.656  11.072  1.5004 -1.5852  2.1458
19882TIP3    H281138   0.432   2.506  11.072 -1.3494 -1.2689  2.0888
19883TIP3   OH281139   2.792   4.477  11.116 -0.1350 -0.4229  0.1397
19883TIP3    H181140   2.874   4.478  11.068  0.2552 -2.4199  0.6540
19883TIP3    H281141   2.725   4.474  11.047  0.2774 -0.2085 -0.2788
19884TIP3   OH281142   5.163   2.808  14.421 -0.6454 -0.1263  0.0589
19884TIP3    H181143   5.219   2.738  14.454 -2.9873 -1.5845  1.2315
19884TIP3    H281144   5.147   2.786  14.329  0.1866 -0.0309 -0.1102
19885TIP3   OH281145   4.363   1.727  16.658 -0.0122  0.0378  0.3637
19885TIP3    H181146   4.380   1.659  16.722  0.2549  1.3504  1.7561
19885TIP3    H281147   4.328   1.681  16.582 -0.6447 -1.5366  1.5588
19886TIP3   OH281148   2.326   0.249  13.163 -0.6103 -0.4400 -0.2132
19886TIP3    H181149   2.374   0.279  13.240 -2.7557 -0.4414  1.2217
19886TIP3    H281150   2.339   0.154  13.161  0.1817 -0.3308 -0.4009
19887TIP3   OH281151   4.712   3.124  16.132 -0.1915 -0.0930  0.2163
19887TIP3    H181152   4.634   3.180  16.128 -0.7020 -0.8162 -0.1624
19887TIP3    H281153   4.727   3.098  16.041 -0.6052 -1.4470  0.5262
19888TIP3   OH281154   2.872   2.328  16.592 -0.7680 -0.6589 -0.8445
19888TIP3    H181155   2.871   2.364  16.680 -1.5017  0.0322 -1.1262
19888TIP3    H281156   2.785   2.291  16.579  0.3016 -3.8123 -0.0916
19889TIP3   OH281157   4.708   3.173   3.996 -0.2457  0.5175  0.1170
19889TIP3    H181158   4.674   3.259   3.969 -1.4058  0.5309  1.5211
19889TIP3    H281159   4.726   3.128   3.913 -1.6288  1.3414 -0.6755
19890TIP3   OH281160   0.698   0.847  14.355  0.7338  0.1086 -0.0516
19890TIP3    H181161   0.609   0.872  14.381  1.1438 -0.2462  1.8977
19890TIP3    H281162   0.750   0.859  14.435  2.0755 -1.4296 -0.6413
19891TIP3   OH281163   3.372   0.866  10.884  0.6047  0.5941 -0.1958
19891TIP3    H181164   3.343   0.909  10.803  2.3209  1.8353 -0.2083
19891TIP3    H281165   3.454   0.822  10.861  0.2470 -0.4788  0.4826
19892TIP3   OH281166   6.584   4.551   4.701  0.6483  0.3285 -0.3529
19892TIP3    H181167   6.552   4.479   4.647 -0.8753  0.2072  0.6291
19892TIP3    H281168   6.585   4.627   4.643  1.2801 -0.2495 -1.1256
19893TIP3   OH281169   4.279   4.176   2.567 -0.0249 -0.2915  0.4806
19893TIP3    H181170   4.304   4.162   2.475  0.1404 -2.1165  0.7580
19893TIP3    H281171   4.264   4.270   2.574  1.7059  0.1445 -0.9733
19894TIP3   OH281172   5.382   6.540  13.343  0.4621  0.2316 -0.2093
19894TIP3    H181173   5.383   6.545  13.439 -1.4864 -1.0167 -0.0759
19894TIP3    H281174   5.411   6.451  13.323 -2.1804 -0.6274 -0.5670
19895TIP3   OH281175   0.985   3.601  15.729  0.2533  0.4621  0.5410
19895TIP3    H181176   0.908   3.656  15.747  0.4011  0.4288  1.2718
19895TIP3    H281177   1.013   3.569  15.814  0.2182 -0.7053  0.1365
19896TIP3   OH281178   5.771   2.827  12.837  0.0696 -0.6281  0.2476
19896TIP3    H181179   5.841   2.853  12.778 -0.9820 -0.6242 -1.0185
19896TIP3    H281180   5.794   2.868  12.921  0.9434  0.3557 -0.4532
19897TIP3   OH281181   5.636   4.404   2.128  0.0216  0.4072 -0.1962
19897TIP3    H181182   5.565   4.438   2.182 -1.2978  0.1783 -1.7323
19897TIP3    H281183   5.697   4.478   2.120 -0.0632  0.6339  1.0378
19898TIP3   OH281184   5.284   3.932   4.050 -0.6722 -0.2614 -0.8084
19898TIP3    H181185   5.347   3.929   4.122 -3.2694  1.9854  1.8199
19898TIP3    H281186   5.296   4.018   4.011 -0.4276 -0.8199 -2.0135
19899TIP3   OH281187   1.387   5.080  11.257 -0.0326  0.0615 -0.4633
19899TIP3    H181188   1.391   5.065  11.351  0.4742 -1.1375 -0.6508
19899TIP3    H281189   1.414   5.171  11.246 -1.2009  0.5736  0.6221
19900TIP3   OH281190   6.000   5.506  14.354 -0.0684  0.1190 -0.6878
19900TIP3    H181191   5.973   5.598  14.351 -0.8930 -0.0769  0.2796
19900TIP3    H281192   6.095   5.509  14.346  0.2539  1.3132  2.3856
19901TIP3   OH281193   5.649   0.008   0.574 -0.4325 -0.0105  0.2343
19901TIP3    H181194   5.601  -0.046   0.512 -1.6101  1.2911 -0.0188
19901TIP3    H281195   5.589   0.021   0.647  0.3452 -0.1750  0.9273
19902TIP3   OH281196   2.094   2.761  12.796 -0.5646  0.3154 -0.2179
19902TIP3    H181197   2.163   2.798  12.851 -0.9810  1.5825 -0.5052
19902TIP3    H281198   2.041   2.837  12.770 -1.1225 -0.4225 -1.3141
19903TIP3   OH281199   2.519   2.411  12.628 -0.7138  0.6163 -0.3352
19903TIP3    H181200   2.453   2.352  12.665 -0.0113 -0.5893 -0.9278
19903TIP3    H281201   2.503   2.409  12.533  0.1245  0.3405 -0.4835
19904TIP3   OH281202   3.214   0.596   4.250 -0.0438  0.0050 -0.5998
19904TIP3    H181203   3.238   0.686   4.230  0.2408  0.2735  0.8263
19904TIP3    H281204   3.279   0.542   4.204  0.9638  0.5996  0.0994
19905TIP3   OH281205   6.427   3.988  11.773  0.9288 -0.3264 -0.3010
19905TIP3    H181206   6.404   4.039  11.851 -0.4705 -0.0067 -0.9058
19905TIP3    H281207   6.511   4.024  11.745 -0.1155  1.8515 -0.8508
19906TIP3   OH281208   1.362   1.972  13.965 -0.0232  0.2086  0.0283
19906TIP3    H181209   1.322   1.923  13.892  0.7796 -0.9892  0.3615
19906TIP3    H281210   1.376   1.906  14.033 -0.3490  1.2277  1.1104
19907TIP3   OH281211   1.121   4.321  17.054 -0.0554  0.0857  0.1695
19907TIP3    H181212   1.068   4.244  17.073  0.0567 -0.5785 -1.9180
19907TIP3    H281213   1.199   4.286  17.010 -0.4984  1.4292 -1.8015
19908TIP3   OH281214   1.223   0.814  11.428 -0.6332 -0.6488 -0.0903
19908TIP3    H181215   1.279   0.871  11.482  1.0781 -0.9429 -1.4679
19908TIP3    H281216   1.138   0.857  11.430 -0.1393  0.3648  1.2862
19909TIP3   OH281217   5.167   0.783   4.004  0.3970  0.0217 -0.4714
19909TIP3    H181218   5.074   0.760   4.015 -0.2338  1.5105 -2.2451
19909TIP3    H281219   5.197   0.803   4.093 -0.6589 -1.5464  0.2809
19910TIP3   OH281220   3.744   3.216  16.327  1.3189  0.4516  0.2972
19910TIP3    H181221   3.781   3.128  16.334  0.0551 -0.0271  1.1854
19910TIP3    H281222   3.758   3.240  16.235  0.9996 -0.9854 -0.1515
19911TIP3   OH281223   3.782   1.333   1.401  0.2097  0.1599 -0.5070
19911TIP3    H181224   3.829   1.400   1.451 -0.5711 -0.0210  0.4939
19911TIP3    H281225   3.774   1.259   1.461 -3.1898  0.9159  0.2050
19912TIP3   OH281226   2.941   4.508  16.919 -0.7455  0.6479 -0.7302
19912TIP3    H181227   2.982   4.442  16.862  2.0096  0.2546  1.4771
19912TIP3    H281228   2.848   4.502  16.899 -0.5136 -3.1533 -1.4487
19913TIP3   OH281229   0.254   0.941  11.832 -0.2904  0.1156 -0.1648
19913TIP3    H181230   0.321   1.010  11.829  0.2571 -0.4317 -2.8616
19913TIP3    H281231   0.303   0.862  11.854 -0.1746 -0.1506 -1.3645
19914TIP3   OH281232   5.185   0.475   2.997 -0.3949  0.4415 -0.0091
19914TIP3    H181233   5.097   0.509   2.977 -0.4258  0.2071 -0.2753
19914TIP3    H281234   5.233   0.484   2.915 -0.5207 -0.5274 -0.1938
19915TIP3   OH281235   1.708   6.631   4.860 -0.1069  0.0257  0.1160
19915TIP3    H181236   1.779   6.688   4.891  0.5542 -1.2350  0.9964
19915TIP3    H281237   1.727   6.618   4.767 -0.0214  0.8662  0.0053
19916TIP3   OH281238   4.973   4.931   4.187 -0.0695  0.1327 -0.3347
19916TIP3    H181239   5.021   4.992   4.243  0.3240 -0.5726  0.1056
19916TIP3    H281240   4.887   4.923   4.229 -0.5970  1.3843 -1.1155
19917TIP3   OH281241   5.670   2.808   1.139 -0.0433  0.1232 -0.4136
19917TIP3    H181242   5.728   2.763   1.201 -0.4478 -0.2996 -0.3414
19917TIP3    H281243   5.645   2.741   1.075 -1.1728  0.0614  0.0648
19918TIP3   OH281244   4.920   5.625   4.205  0.3079  0.3701 -0.1485
19918TIP3    H181245   4.941   5.711   4.167  1.7109  0.9296  1.7135
19918TIP3    H281246   4.874   5.646   4.286  1.6834 -0.5649  0.9094
19919TIP3   OH281247   4.245   6.241   1.539 -0.0327 -0.6796  0.0747
19919TIP3    H181248   4.323   6.287   1.570  0.3600 -1.3284  0.0858
19919TIP3    H281249   4.185   6.242   1.613 -0.7695  1.3548 -0.4826
19920TIP3   OH281250   5.960   5.117   0.511  0.3077  0.4878 -0.0974
19920TIP3    H181251   5.983   5.107   0.419 -0.8895  0.5373 -0.4138
19920TIP3    H281252   5.888   5.056   0.525  0.4655  0.4900  0.8042
19921TIP3   OH281253   3.089   1.415  13.493 -0.9384 -0.0495 -0.3415
19921TIP3    H181254   3.068   1.415  13.586 -0.1547  2.1019 -0.1046
19921TIP3    H281255   3.126   1.328  13.476  1.0420  0.2571  1.8838
19922TIP3   OH281256   3.266   6.373  14.477  0.7939  0.3419  0.6892
19922TIP3    H181257   3.293   6.320  14.402  0.8713 -0.2609  1.1256
19922TIP3    H281258   3.347   6.415  14.507  0.6671  1.0067  0.1228
19923TIP3   OH281259   1.024   4.828  16.733  0.1824 -0.0687  0.5497
19923TIP3    H181260   0.936   4.848  16.765 -0.0104  0.1905 -0.1170
19923TIP3    H281261   1.082   4.868  16.797 -0.1646  3.3391 -1.0415
19924TIP3   OH281262   2.601   0.718  15.665  0.0234  0.1048 -0.1394
19924TIP3    H181263   2.546   0.656  15.618  1.5639  0.8109 -3.1132
19924TIP3    H281264   2.689   0.681  15.661  0.4310  0.8613  1.0542
19925TIP3   OH281265   5.477   4.769  11.308  0.1510 -0.2227 -0.0913
19925TIP3    H181266   5.416   4.737  11.242 -1.5374 -0.1451  1.3503
19925TIP3    H281267   5.472   4.864  11.301  0.1056 -0.2163  0.0267
19926TIP3   OH281268   3.810   5.692   2.957 -0.2854 -0.1610 -0.7215
19926TIP3    H181269   3.804   5.787   2.948 -0.0564  0.2305  2.2238
19926TIP3    H281270   3.903   5.674   2.968 -0.5587 -0.1052  2.8335
19927TIP3   OH281271   4.831   0.251  11.335  0.2658  0.1586  0.2020
19927TIP3    H181272   4.746   0.254  11.292 -0.1401 -2.1533  0.7213
19927TIP3    H281273   4.860   0.161  11.326  1.0977  0.0338  2.9731
19928TIP3   OH281274   3.727   3.604   3.821  0.4708 -0.4303  0.4474
19928TIP3    H181275   3.803   3.655   3.851  1.1886 -1.6415  0.7459
19928TIP3    H281276   3.695   3.559   3.899 -1.4290  1.0971  0.6178
19929TIP3   OH281277   1.933   3.527   3.410 -0.7954 -0.3365 -1.1332
19929TIP3    H181278   1.918   3.568   3.324  2.5640  1.5480 -1.0375
19929TIP3    H281279   1.884   3.445   3.407 -2.0061  0.3473 -4.2526
19930TIP3   OH281280   3.927   1.021   2.113 -0.1358 -0.0211  0.0067
19930TIP3    H181281   3.987   1.042   2.185 -0.5459  0.7543  0.1334
19930TIP3    H281282   3.984   0.983   2.046  0.7247  1.6792 -0.2988
19931TIP3   OH281283   0.881   0.071  14.271  0.5219 -1.1370 -0.7496
19931TIP3    H181284   0.892   0.042  14.180 -0.1994 -0.2908 -1.1215
19931TIP3    H281285   0.868   0.166  14.264  0.1762 -1.1111  0.2191
19932TIP3   OH281286   5.101   4.418   2.755 -0.0725 -0.0631  0.4726
19932TIP3    H181287   5.042   4.489   2.730 -1.0284 -0.9411  0.1264
19932TIP3    H281288   5.043   4.343   2.770  0.9514 -0.9423  0.1902
19933TIP3   OH281289   4.508   1.547   5.248 -0.2578 -0.0015 -0.4585
19933TIP3    H181290   4.552   1.610   5.192 -1.1713  0.6420 -0.4603
19933TIP3    H281291   4.491   1.594   5.330 -1.5611 -0.0071 -0.7057
19934TIP3   OH281292   5.673   3.449   1.089  0.6177 -0.2712 -0.3230
19934TIP3    H181293   5.754   3.422   1.132  0.8228  1.1882  0.2773
19934TIP3    H281294   5.700   3.475   1.001  0.9806  1.0119  0.1400
19935TIP3   OH281295   5.986   0.306   0.134 -0.2564  0.2278  0.4299
19935TIP3    H181296   6.049   0.327   0.066  0.5071 -0.0626  1.0377
19935TIP3    H281297   6.021   0.227   0.176  0.5694  1.7199  2.7473
19936TIP3   OH281298   5.633   2.880  14.021  0.8717 -0.0150 -0.5329
19936TIP3    H181299   5.715   2.880  14.070  2.2573 -0.3634 -2.6948
19936TIP3    H281300   5.591   2.963  14.045  1.8120  0.1354  0.6865
19937TIP3   OH281301   4.452   1.906  16.844  0.7200 -0.0948  0.6258
19937TIP3    H181302   4.474   1.852  16.920 -0.6827 -1.0054  0.4386
19937TIP3    H281303   4.419   1.843  16.780 -2.2618  1.0238  0.8825
19938TIP3   OH281304   0.185   5.781   0.430  0.0898 -0.0965 -0.1517
19938TIP3    H181305   0.124   5.788   0.356  1.2024 -0.3616 -1.1248
19938TIP3    H281306   0.265   5.745   0.392  0.4267 -1.0294  1.3473
19939TIP3   OH281307   3.452   0.972   6.069 -0.1007  0.2098 -0.6340
19939TIP3    H181308   3.398   1.047   6.041  0.3551 -0.0426 -2.3098
19939TIP3    H281309   3.403   0.895   6.040 -0.5389 -0.1755  1.0354
19940TIP3   OH281310   1.550   0.848  10.369  0.5843 -0.9623 -0.0153
19940TIP3    H181311   1.559   0.922  10.429  2.1324 -1.6322  0.6387
19940TIP3    H281312   1.475   0.799  10.402  0.5778 -0.5746  0.5508
19941TIP3   OH281313   4.795   1.438  13.800  0.5268  0.1815  0.3910
19941TIP3    H181314   4.788   1.353  13.757  3.1725 -0.4473  1.0031
19941TIP3    H281315   4.852   1.422  13.876 -0.0677  2.2263  1.3529
19942TIP3   OH281316   5.354   2.970   5.860  0.3406 -0.0758 -0.4183
19942TIP3    H181317   5.387   2.886   5.890 -0.6524 -0.6427 -0.8948
19942TIP3    H281318   5.374   2.972   5.767 -0.2456 -0.0779 -0.5447
19943TIP3   OH281319   0.033   2.031  13.891 -0.3395 -0.1310  0.2620
19943TIP3    H181320  -0.047   2.072  13.922 -1.4508 -1.2990 -0.9257
19943TIP3    H281321   0.088   2.105  13.862 -0.4392  0.7572  2.2186
19944TIP3   OH281322   3.763   2.917   3.790 -0.3223  0.6223 -0.1651
19944TIP3    H181323   3.811   2.995   3.820  1.0377 -0.2199 -0.0544
19944TIP3    H281324   3.674   2.949   3.774  0.2200  2.2234 -0.2381
19945TIP3   OH281325   3.274   0.107  14.236 -0.5947  0.0016  0.8708
19945TIP3    H181326   3.315   0.192  14.253  0.7818 -0.3356 -0.5113
19945TIP3    H281327   3.299   0.053  14.311  2.3123 -0.4366 -0.3000
19946TIP3   OH281328   3.905   4.476   0.007  0.0068  0.5378  0.1500
19946TIP3    H181329   3.980   4.417   0.011  0.2465  0.8596  0.5295
19946TIP3    H281330   3.913   4.518  -0.079  0.0327  0.2739  0.0232
19947TIP3   OH281331   6.027   1.724   5.185 -0.1776  0.4007  1.1283
19947TIP3    H181332   6.007   1.663   5.114  0.1811  1.3276  0.2112
19947TIP3    H281333   6.040   1.668   5.262  0.3728 -0.6986  0.2551
19948TIP3   OH281334   2.257   4.327   3.534  0.1540  0.0348  0.0272
19948TIP3    H181335   2.175   4.291   3.568  1.1029 -0.2666  2.2048
19948TIP3    H281336   2.231   4.404   3.485 -1.4018  0.2487  1.0982
19949TIP3   OH281337   6.407   5.911  12.369 -0.3603  0.1379  0.2471
19949TIP3    H181338   6.368   5.824  12.366  0.4520 -0.2041 -0.8004
19949TIP3    H281339   6.332   5.971  12.364 -0.8453 -0.5019 -0.2209
19950TIP3   OH281340   1.847   1.499  15.227  0.5417 -0.6017  0.0614
19950TIP3    H181341   1.916   1.518  15.163 -0.7273  0.4909 -1.0158
19950TIP3    H281342   1.866   1.558  15.300  0.6961 -0.2331 -0.2694
19951TIP3   OH281343   1.884   1.101   4.779  0.0014 -0.3632 -0.0609
19951TIP3    H181344   1.878   1.196   4.771 -0.7370 -0.4923 -1.4412
19951TIP3    H281345   1.925   1.073   4.697  2.5997 -1.0718  1.3885
19952TIP3   OH281346   6.014   2.065  11.106  0.4424 -0.3093 -0.1235
19952TIP3    H181347   6.004   2.076  11.011 -1.9553  0.0098  0.1074
19952TIP3    H281348   6.031   1.971  11.117  3.1760 -0.0021 -0.9551
19953TIP3   OH281349   3.624   3.417   1.689 -0.1611  0.1323  0.2378
19953TIP3    H181350   3.630   3.327   1.722 -1.4364  0.3291  1.0908
19953TIP3    H281351   3.710   3.435   1.652 -0.0658 -1.6561 -0.5083
19954TIP3   OH281352   1.545   4.614   3.480 -0.5416  0.2243 -0.1321
19954TIP3    H181353   1.585   4.685   3.430  0.2713  1.2626  1.8656
19954TIP3    H281354   1.615   4.550   3.492 -1.3548 -1.1592 -2.1996
19955TIP3   OH281355   6.353   5.858  15.452 -0.6958  0.2805  0.1266
19955TIP3    H181356   6.354   5.891  15.542  0.1449 -0.2947  0.3521
19955TIP3    H281357   6.274   5.804  15.447 -0.1881 -0.5814  0.8886
19956TIP3   OH281358   6.080   5.344   4.660  0.3939  0.5732 -0.3491
19956TIP3    H181359   6.068   5.343   4.755 -0.4051  1.9375 -0.4087
19956TIP3    H281360   6.046   5.259   4.631  1.7906 -0.3828  0.6722
19957TIP3   OH281361   2.380   0.981  16.975 -0.1486 -0.9270  0.3758
19957TIP3    H181362   2.416   0.946  16.893  1.2394 -0.4199  0.7284
19957TIP3    H281363   2.366   1.074  16.956 -1.2972 -1.1094  0.2591
19958TIP3   OH281364   5.279   4.657   2.037  0.0334 -0.2267 -0.7012
19958TIP3    H181365   5.293   4.669   2.131 -1.5118  1.0156 -0.5910
19958TIP3    H281366   5.258   4.745   2.005  1.7333 -0.4042 -2.4591
19959TIP3   OH281367   3.137   1.359  15.507  0.1170 -0.4787  0.1519
19959TIP3    H181368   3.080   1.328  15.578  1.0433 -2.3528  0.1405
19959TIP3    H281369   3.218   1.384  15.551  0.3535 -0.7212 -0.1461
19960TIP3   OH281370   4.599   4.552   4.390 -0.1585 -0.0356  0.0925
19960TIP3    H181371   4.576   4.461   4.373 -0.8368  0.3280 -1.0333
19960TIP3    H281372   4.569   4.568   4.479 -2.0203 -0.3085 -0.4530
19961TIP3   OH281373   6.004   4.878  12.492  0.0817  0.7461 -0.0772
19961TIP3    H181374   5.970   4.954  12.444 -0.5781 -0.0413 -0.8954
19961TIP3    H281375   6.047   4.915  12.568  0.3928  1.9847 -0.8315
19962TIP3   OH281376   5.047   3.025   2.791 -0.0946 -0.2212  0.0829
19962TIP3    H181377   5.110   2.964   2.828 -1.1919 -1.9701 -0.7944
19962TIP3    H281378   5.048   3.007   2.697  0.7598  2.3155 -0.4577
19963TIP3   OH281379   6.070   5.609   4.349  0.2599  0.0790  0.0396
19963TIP3    H181380   6.103   5.693   4.317  0.0130  0.3649  0.5263
19963TIP3    H281381   6.148   5.562   4.379  0.6374 -0.5955 -1.8397
19964TIP3   OH281382   6.346   2.533  11.057 -0.3525  0.1784 -0.3366
19964TIP3    H181383   6.440   2.518  11.070 -0.5715 -0.5270  0.6034
19964TIP3    H281384   6.305   2.496  11.136 -1.5216 -0.7660 -1.3348
19965TIP3   OH281385   6.776   0.351   1.297 -0.0340  0.3468 -0.4509
19965TIP3    H181386   6.796   0.445   1.299 -0.6267  0.4994 -1.0853
19965TIP3    H281387   6.844   0.313   1.242  0.0444  0.4513 -0.4272
19966TIP3   OH281388   1.342   4.330  12.814  0.1208  0.1015  0.4589
19966TIP3    H181389   1.382   4.258  12.863  0.0261  0.3548  0.9207
19966TIP3    H281390   1.362   4.408  12.866 -1.6914  0.1369  1.1660
19967TIP3   OH281391   4.610   1.417   6.530  0.0527 -0.0178  0.1642
19967TIP3    H181392   4.548   1.410   6.602 -0.1147  0.6808  0.1020
19967TIP3    H281393   4.597   1.338   6.479  0.5414 -0.7695  1.1831
19968TIP3   OH281394   0.422   5.321  10.488  0.3799  0.7291  0.2217
19968TIP3    H181395   0.381   5.393  10.440  1.0336  0.0816 -1.4093
19968TIP3    H281396   0.350   5.259  10.503  0.3764  0.3581 -1.1357
19969TIP3   OH281397   1.102   3.338   2.835 -0.3779 -0.0062  0.1150
19969TIP3    H181398   1.078   3.430   2.820  0.8229  0.5234  1.2257
19969TIP3    H281399   1.145   3.338   2.921  1.5066 -1.2483 -0.7604
19970TIP3   OH281400   0.326   1.139  14.213 -0.4686  0.4685 -0.3283
19970TIP3    H181401   0.371   1.120  14.131 -1.5905  0.4752 -0.9589
19970TIP3    H281402   0.381   1.206  14.255  1.3638 -1.1609  0.0421
19971TIP3   OH281403   1.194   2.887  13.579  0.3439 -0.4728 -0.4074
19971TIP3    H181404   1.170   2.795  13.591 -0.7118  0.0203  1.7122
19971TIP3    H281405   1.162   2.909  13.491 -1.5218 -1.5281 -0.0328
19972TIP3   OH281406   6.342   3.205   0.609  0.2556 -0.2368 -0.2655
19972TIP3    H181407   6.397   3.254   0.669  1.1017 -0.7574 -0.5902
19972TIP3    H281408   6.254   3.237   0.625  0.5872  0.2634  0.6168
19973TIP3   OH281409   5.087   0.800   5.560  0.6448  0.6655 -0.2747
19973TIP3    H181410   5.075   0.772   5.470  0.0141  0.8539 -0.2554
19973TIP3    H281411   5.000   0.795   5.599  0.2613  3.5776 -0.5405
19974TIP3   OH281412   4.888   4.177  12.797 -0.1059  1.1855  0.0785
19974TIP3    H181413   4.849   4.263  12.816  1.7573  2.4974 -1.5895
19974TIP3    H281414   4.814   4.124  12.765 -1.2124  2.3315  0.6373
19975TIP3   OH281415   5.518   5.969   1.673  0.5380 -0.3810 -0.7971
19975TIP3    H181416   5.566   6.050   1.653  0.3090 -0.7410 -3.1017
19975TIP3    H281417   5.433   5.981   1.630 -0.2460 -1.0468  0.5390
19976TIP3   OH281418   4.744   2.330  16.917  0.0611 -0.2379 -0.3478
19976TIP3    H181419   4.676   2.394  16.937  0.6993  0.6728 -0.9872
19976TIP3    H281420   4.699   2.245  16.918 -0.8862  0.2535  0.1141
19977TIP3   OH281421   2.368   5.868   3.538  0.0035 -0.5031  0.3695
19977TIP3    H181422   2.452   5.821   3.540  0.0826 -0.3377  1.3023
19977TIP3    H281423   2.314   5.817   3.478  0.8966 -0.3839 -0.5798
19978TIP3   OH281424   4.996   6.394  12.512 -0.4483  0.0185  0.0757
19978TIP3    H181425   4.904   6.376  12.490 -0.8160  1.0759  0.7281
19978TIP3    H281426   5.032   6.431  12.432 -1.7577  3.7453  1.0228
19979TIP3   OH281427   3.877   5.983  16.315  0.0302 -0.1607 -0.0466
19979TIP3    H181428   3.879   5.887  16.315  2.2472 -0.1844 -1.1511
19979TIP3    H281429   3.784   6.005  16.319 -0.4896 -2.3088  1.6293
19980TIP3   OH281430   5.967   0.759   2.083  0.4532 -0.3844 -0.4152
19980TIP3    H181431   6.059   0.732   2.072 -0.1838 -2.3062 -1.6692
19980TIP3    H281432   5.959   0.838   2.029  1.4860  0.1641  0.1969
19981TIP3   OH281433   4.359   0.637  11.847 -0.4342  0.1431 -0.3555
19981TIP3    H181434   4.323   0.673  11.766 -1.0441 -1.8079 -1.0033
19981TIP3    H281435   4.414   0.707  11.882 -0.9980  1.4142 -1.8890
19982TIP3   OH281436   3.884   6.041   0.092 -0.2160  0.1245 -0.1860
19982TIP3    H181437   3.979   6.038   0.101 -0.2143 -1.0217 -0.3408
19982TIP3    H281438   3.853   6.076   0.175  0.3168 -0.0654  0.0961
19983TIP3   OH281439   5.662   0.943   3.420  0.2412 -0.1862 -0.0291
19983TIP3    H181440   5.587   1.001   3.412  0.8717  0.5615 -0.5594
19983TIP3    H281441   5.629   0.869   3.472  0.0892  1.8090  2.9430
19984TIP3   OH281442   6.386   5.997  14.507  0.0061 -0.2929 -0.3781
19984TIP3    H181443   6.384   6.009  14.603 -1.8712  0.2801 -0.4322
19984TIP3    H281444   6.473   6.027  14.481  0.0545  0.9043  1.0155
19985TIP3   OH281445   6.222   0.485   0.807  0.9761  0.3945 -0.0736
19985TIP3    H181446   6.287   0.421   0.780 -0.0870 -0.7793  0.0726
19985TIP3    H281447   6.142   0.435   0.819 -0.1934  1.9329 -1.0483
19986TIP3   OH281448   2.427   4.721  16.200  0.0818  0.1761  1.0313
19986TIP3    H181449   2.460   4.746  16.114  0.9542 -0.8724  1.0394
19986TIP3    H281450   2.506   4.715  16.255 -0.0754 -2.2511  1.0896
19987TIP3   OH281451   5.086   3.670   2.309  0.0008  0.3108 -1.2757
19987TIP3    H181452   5.087   3.589   2.258  1.3173 -0.0219 -0.7593
19987TIP3    H281453   5.154   3.724   2.268 -2.5134  2.2407 -3.2461
19988TIP3   OH281454   3.517   6.272  12.866  0.1561 -0.0263  0.3610
19988TIP3    H181455   3.518   6.322  12.785 -1.7242  0.0470  0.3344
19988TIP3    H281456   3.563   6.191  12.845 -0.3540 -0.0339 -0.8106
19989TIP3   OH281457   3.643   3.383   3.332 -0.0346 -0.5390 -0.4083
19989TIP3    H181458   3.687   3.465   3.310 -1.9202  0.3037 -1.2764
19989TIP3    H281459   3.696   3.345   3.402 -0.9423  3.1656  2.6118
19990TIP3   OH281460   2.687   4.959   1.147 -0.1194 -0.7777  0.4468
19990TIP3    H181461   2.651   4.961   1.058 -0.3523 -1.9709  0.5009
19990TIP3    H281462   2.779   4.983   1.136 -0.4679  0.5068  0.0835
19991TIP3   OH281463   4.055   4.321   5.603  0.2862 -0.1043  0.3289
19991TIP3    H181464   4.032   4.339   5.512  1.1662  1.2351  0.3496
19991TIP3    H281465   4.130   4.378   5.621  0.7535 -1.0736  1.5993
19992TIP3   OH281466   0.253   6.260   5.182 -0.2281 -0.2320  0.2011
19992TIP3    H181467   0.210   6.333   5.225 -2.4636 -0.7589 -0.9772
19992TIP3    H281468   0.194   6.186   5.196  1.2100 -1.4548  0.0401
19993TIP3   OH281469   2.870   3.012  15.335  0.0238 -0.1596 -0.4621
19993TIP3    H181470   2.848   3.023  15.243  0.4255  0.3051 -0.5092
19993TIP3    H281471   2.915   2.927  15.339  3.3657  1.3715 -1.3776
19994TIP3   OH281472   0.278   0.051   5.718 -0.7589  0.1776  0.4949
19994TIP3    H181473   0.295   0.079   5.808  0.5319 -0.6192  0.5351
19994TIP3    H281474   0.190   0.083   5.698 -1.1366  0.2051  2.1067
19995TIP3   OH281475   0.961   2.370  13.065  0.2167 -0.1581  0.4507
19995TIP3    H181476   0.896   2.368  12.994  0.7322 -1.6086 -0.0232
19995TIP3    H281477   0.955   2.283  13.104  2.0772 -0.4263  0.1967
19996TIP3   OH281478   1.587   3.621  14.982  0.1187 -0.1205 -0.7940
19996TIP3    H181479   1.636   3.656  15.056 -0.8623 -0.0559 -0.1563
19996TIP3    H281480   1.650   3.568  14.934  0.7454 -0.2347  0.1329
19997TIP3   OH281481   6.672   4.786   2.207 -0.3071  0.0113 -0.5966
19997TIP3    H181482   6.662   4.706   2.258  1.2322  0.1930  0.0233
19997TIP3    H281483   6.741   4.767   2.144 -1.0089  0.3546 -1.4920
19998TIP3   OH281484   0.108   2.459   3.216  0.2204 -0.9746  0.3251
19998TIP3    H181485   0.078   2.456   3.306 -1.8461 -0.0017 -0.2759
19998TIP3    H281486   0.144   2.547   3.205 -1.8662 -0.1536 -0.4255
19999TIP3   OH281487   1.238   6.213  11.647  0.2793 -0.2760 -0.1273
19999TIP3    H181488   1.269   6.127  11.676 -2.1108 -0.3871  2.5358
19999TIP3    H281489   1.161   6.194  11.594 -0.7571  0.1905  1.1678
20000TIP3   OH281490   3.655   1.143   5.149  0.1151 -0.2185 -0.0418
20000TIP3    H181491   3.574   1.112   5.109  0.2121 -0.2478 -0.2143
20000TIP3    H281492   3.664   1.091   5.229  0.3056 -0.6757 -0.3547
20001TIP3   OH281493   2.709   3.829   3.672  0.4461 -0.0465 -0.9509
20001TIP3    H181494   2.621   3.845   3.639  0.2711  0.2782 -0.3360
20001TIP3    H281495   2.718   3.733   3.673  0.1588 -0.0742 -1.1570
20002TIP3   OH281496   4.313   3.011   5.307 -0.2547  0.2200  0.3431
20002TIP3    H181497   4.387   2.997   5.366  0.2263 -0.8199 -0.4615
20002TIP3    H281498   4.236   3.004   5.363  0.2487  1.6390  1.2455
20003TIP3   OH281499   0.398   5.088  15.639 -0.0281  0.1937 -0.4840
20003TIP3    H181500   0.305   5.097  15.659 -0.1879 -1.1189 -0.5458
20003TIP3    H281501   0.409   4.996  15.615  1.1523  0.4921 -1.1977
20004TIP3   OH281502   5.201   4.441  11.940  0.1098  0.8524 -0.4856
20004TIP3    H181503   5.296   4.441  11.927 -0.0962  0.1886 -2.2794
20004TIP3    H281504   5.165   4.426  11.853 -1.6356  0.3338  0.2826
20005TIP3   OH281505   4.593   1.273   2.326  0.1493 -1.0578  0.2931
20005TIP3    H181506   4.639   1.192   2.305 -0.1919 -0.9346 -1.0176
20005TIP3    H281507   4.650   1.316   2.390  1.5122 -1.2507 -0.7321
20006TIP3   OH281508   5.349   0.105   2.756 -0.7159 -0.7687 -0.9662
20006TIP3    H181509   5.424   0.160   2.778 -1.2416 -0.2621 -0.3902
20006TIP3    H281510   5.275   0.166   2.750 -0.6882 -0.8507 -4.0280
20007TIP3   OH281511   0.882   2.734   5.021  0.0800  0.7386  0.0616
20007TIP3    H181512   0.791   2.734   4.989  0.2571 -0.6936 -0.5240
20007TIP3    H281513   0.897   2.823   5.050 -1.0842  1.3422 -1.0941
20008TIP3   OH281514   4.292   3.157   3.260  0.1415 -0.0257 -0.0395
20008TIP3    H181515   4.279   3.227   3.324 -0.0452  1.3696 -1.5270
20008TIP3    H281516   4.384   3.165   3.234  0.0018 -0.0291 -0.5449
20009TIP3   OH281517   0.209   0.653  17.127 -0.3781 -0.0500 -0.1845
20009TIP3    H181518   0.268   0.670  17.200 -1.6586 -0.4027  0.9778
20009TIP3    H281519   0.153   0.582  17.157 -2.7540  1.6092 -0.3790
20010TIP3   OH281520   4.655   4.996  11.198  0.1451  0.7137  0.6581
20010TIP3    H181521   4.665   5.032  11.109 -1.1277  0.5607  0.4396
20010TIP3    H281522   4.568   5.023  11.225 -0.4811 -1.3720  0.8832
20011TIP3   OH281523   1.384   1.875   4.347 -0.8458  0.4637 -0.1235
20011TIP3    H181524   1.420   1.896   4.261  1.4538  2.8091  1.2735
20011TIP3    H281525   1.416   1.787   4.366  0.6591  0.8632 -0.7009
20012TIP3   OH281526   5.943   4.815  11.848 -0.0454 -0.1676  0.2358
20012TIP3    H181527   5.992   4.882  11.896 -0.5965 -0.5021  1.2705
20012TIP3    H281528   5.852   4.831  11.870 -0.1824 -1.3128  0.5499
20013TIP3   OH281529   5.482   3.217   3.840 -0.6527  0.0907  0.1716
20013TIP3    H181530   5.425   3.146   3.811 -0.7911  0.4898 -0.5664
20013TIP3    H281531   5.555   3.173   3.883 -0.4262 -0.5455 -0.8259
20014TIP3   OH281532   3.968   6.270  10.892  0.5599 -0.5382  0.1006
20014TIP3    H181533   3.963   6.292  10.799 -0.1288 -2.3081 -0.3180
20014TIP3    H281534   4.048   6.313  10.922  0.9651 -0.1869 -1.3777
20015TIP3   OH281535   0.731   5.049  11.713  0.0676  0.2141 -0.6120
20015TIP3    H181536   0.752   5.132  11.670 -1.9104  0.8309 -0.4719
20015TIP3    H281537   0.816   5.006  11.724  1.3349  2.7392  0.4225
20016TIP3   OH281538   2.992   3.690  14.342 -0.4610 -0.2259 -0.1011
20016TIP3    H181539   3.059   3.644  14.291 -0.0285  0.1664  0.1048
20016TIP3    H281540   2.909   3.651  14.314 -0.2700  0.2125 -1.3589
20017TIP3   OH281541   2.263   5.584  17.067  0.2414  0.1249 -0.0522
20017TIP3    H181542   2.211   5.602  16.989 -1.4917  0.9599  1.2417
20017TIP3    H281543   2.336   5.647  17.062  0.5641 -0.3286 -1.3379
20018TIP3   OH281544   3.539   0.469  16.449  0.5407 -0.1061  0.2379
20018TIP3    H181545   3.615   0.427  16.407 -0.6201 -1.3620 -0.7053
20018TIP3    H281546   3.466   0.409  16.432 -1.4918  2.7311 -2.1226
20019TIP3   OH281547   1.605   5.849  13.555  0.1143  0.1322  0.5837
20019TIP3    H181548   1.685   5.897  13.535  0.1619 -0.4182 -0.6710
20019TIP3    H281549   1.592   5.791  13.479 -0.4260 -1.1620  1.6244
20020TIP3   OH281550   4.116   1.234  14.609 -0.1045  0.0595  0.1680
20020TIP3    H181551   4.165   1.316  14.597 -0.0724  0.1086  0.5908
20020TIP3    H281552   4.056   1.253  14.681  1.7047 -1.0556  2.0695
20021TIP3   OH281553   2.748   5.175  13.095  0.3781  0.1366 -0.5482
20021TIP3    H181554   2.655   5.160  13.076  0.0685  1.9265 -0.5968
20021TIP3    H281555   2.791   5.170  13.010  0.2501 -0.1832 -0.5958
20022TIP3   OH281556   4.557   6.735  13.718 -0.1840  0.2419  0.2443
20022TIP3    H181557   4.473   6.778  13.736  0.3034  0.6199  1.8509
20022TIP3    H281558   4.593   6.783  13.643  0.0917  2.3668  1.6308
20023TIP3   OH281559   2.107   4.990   4.917  0.4363 -0.0101  0.6934
20023TIP3    H181560   2.059   5.009   4.997  0.4953  2.1497  0.2790
20023TIP3    H281561   2.172   5.060   4.911  0.3430 -0.0364 -1.3031
20024TIP3   OH281562   6.540   5.794   0.306 -0.0956  0.1904  0.1064
20024TIP3    H181563   6.455   5.762   0.276 -0.5467 -0.0097  1.5241
20024TIP3    H281564   6.525   5.821   0.397  1.6266 -0.9482  0.7755
20025TIP3   OH281565   5.523   3.491  14.503  0.0247  0.9646  0.4735
20025TIP3    H181566   5.522   3.552  14.577  0.5703  0.8677  0.5641
20025TIP3    H281567   5.525   3.548  14.425 -0.4086  1.0643  0.5321
20026TIP3   OH281568   1.192   1.130  15.194  0.6878 -0.9337  0.5719
20026TIP3    H181569   1.264   1.071  15.173  1.2755 -0.2620  0.6553
20026TIP3    H281570   1.188   1.190  15.119  3.2253  1.9087  2.4241
20027TIP3   OH281571   4.154   1.828  15.955  0.1739  0.4950  0.1796
20027TIP3    H181572   4.185   1.737  15.952  0.3102  0.5629 -1.1515
20027TIP3    H281573   4.195   1.865  16.032  0.2150 -0.5478  0.6772
20028TIP3   OH281574   0.911   2.997  15.083 -0.1281 -0.2844 -0.5578
20028TIP3    H181575   0.996   2.954  15.087 -0.4571 -0.8346  1.4057
20028TIP3    H281576   0.884   2.989  14.991  1.0950 -1.7464 -0.8194
20029TIP3   OH281577   4.843   5.414   0.259  0.2707 -0.5976 -0.1143
20029TIP3    H181578   4.828   5.486   0.199  0.7793  0.8010  1.3680
20029TIP3    H281579   4.936   5.420   0.282  0.1842 -1.3571  0.4972
20030TIP3   OH281580   2.036   6.577  14.138 -0.1769  0.0646  0.3037
20030TIP3    H181581   1.942   6.574  14.120 -0.0974  1.5517 -0.4944
20030TIP3    H281582   2.058   6.670  14.139  1.3976 -0.2720 -0.0566
20031TIP3   OH281583   4.191   4.859  15.300 -0.4435 -0.6029 -0.2578
20031TIP3    H181584   4.259   4.919  15.331  1.2273 -2.2258 -0.5988
20031TIP3    H281585   4.115   4.879  15.354  0.6557  0.4911  0.9603
20032TIP3   OH281586   1.823   2.949   0.461 -0.5464  0.0237  0.3672
20032TIP3    H181587   1.804   3.029   0.412 -0.6587  0.4530  1.0906
20032TIP3    H281588   1.739   2.902   0.463 -0.4578 -0.1669 -0.1379
20033TIP3   OH281589   5.358   2.486   5.763 -0.1147 -0.2286  0.8203
20033TIP3    H181590   5.306   2.553   5.807  1.1050 -0.1065  2.1845
20033TIP3    H281591   5.374   2.420   5.832  0.9483 -0.5787  0.2557
20034TIP3   OH281592   3.371   6.803  13.663 -0.0759 -0.0402 -0.6309
20034TIP3    H181593   3.376   6.885  13.615  0.3926 -0.2420 -0.9371
20034TIP3    H281594   3.352   6.829  13.753  1.8030  0.5332 -0.3522
20035TIP3   OH281595   3.478   5.901   3.911  0.0387 -0.1427  0.2300
20035TIP3    H181596   3.463   5.925   3.819  0.7559  0.2794  0.2174
20035TIP3    H281597   3.464   5.806   3.913 -3.1679  0.2249  0.3580
20036TIP3   OH281598   1.159   6.679  14.147 -0.2589 -0.1232 -0.0941
20036TIP3    H181599   1.215   6.601  14.149  1.5564  1.1312  1.7268
20036TIP3    H281600   1.073   6.647  14.172  0.6117 -1.4570  1.3811
20037TIP3   OH281601   1.513   2.040  10.848 -0.3867 -0.0397 -0.2122
20037TIP3    H181602   1.476   2.110  10.901  0.2557 -0.0941  0.3334
20037TIP3    H281603   1.529   1.969  10.911 -0.4227 -0.4346 -0.6405
20038TIP3   OH281604   2.461   2.737  14.590 -0.5917  0.0903  0.3226
20038TIP3    H181605   2.372   2.730  14.626 -1.3767  1.5591 -1.1625
20038TIP3    H281606   2.519   2.726  14.665 -2.0511 -0.3044  1.4341
20039TIP3   OH281607   3.890   1.941  11.291  0.7884 -0.5206  0.2940
20039TIP3    H181608   3.930   1.934  11.205  2.0277  0.0026  0.8055
20039TIP3    H281609   3.944   1.886  11.347  0.1826 -0.6046  0.8021
20040TIP3   OH281610   5.686   4.933   3.427 -0.2940  0.4001 -0.0110
20040TIP3    H181611   5.780   4.947   3.438 -0.3850 -0.7992  3.5598
20040TIP3    H281612   5.646   5.000   3.482 -1.2082 -2.3923  3.0352
20041TIP3   OH281613   3.462   3.122   1.136  0.3286  0.5543 -0.2552
20041TIP3    H181614   3.517   3.090   1.207  1.5439  1.3630 -0.7886
20041TIP3    H281615   3.524   3.141   1.065 -0.8829 -0.5982 -1.6746
20042TIP3   OH281616   4.616   5.408  13.007 -0.4511  0.3893  0.6010
20042TIP3    H181617   4.541   5.384  12.952 -0.0428  1.9947 -0.7377
20042TIP3    H281618   4.680   5.338  12.993 -1.3101 -0.4965  1.0044
20043TIP3   OH281619   5.608   2.851   0.786 -0.5368  0.1736  0.0785
20043TIP3    H181620   5.513   2.862   0.785 -0.4077  1.5971 -1.2516
20043TIP3    H281621   5.639   2.916   0.849 -0.5556 -2.1265  2.5982
20044TIP3   OH281622   2.006   0.483  13.721  0.4539 -0.0418 -0.1427
20044TIP3    H181623   2.006   0.538  13.642  1.5564 -0.6565 -0.5980
20044TIP3    H281624   1.949   0.529  13.782  1.3852  1.6448 -0.4866
20045TIP3   OH281625   3.967   4.171   1.017 -0.4001 -0.4767 -0.2552
20045TIP3    H181626   4.003   4.140   1.100  1.3736 -1.3299 -1.2799
20045TIP3    H281627   3.900   4.106   0.994 -1.2493  0.0238  0.6986
20046TIP3   OH281628   5.451   3.810  15.014 -0.2874 -0.1350 -0.2690
20046TIP3    H181629   5.444   3.830  14.921 -2.5679  1.7819  0.2236
20046TIP3    H281630   5.520   3.868  15.046 -0.0616 -0.2099 -0.6170
20047TIP3   OH281631   3.315   5.161  13.681  0.1518  0.4625 -0.1731
20047TIP3    H181632   3.346   5.145  13.592 -0.2441 -0.4480 -0.1622
20047TIP3    H281633   3.222   5.182  13.671  0.1403  0.5007  0.0111
20048TIP3   OH281634   3.314   2.548  13.883  0.2273 -0.2902  0.1327
20048TIP3    H181635   3.339   2.618  13.943  1.2439  0.3167 -0.9438
20048TIP3    H281636   3.325   2.586  13.796  1.3063 -1.9174 -0.5028
20049TIP3   OH281637   2.977   5.046  12.188 -0.8671 -0.1256 -0.6925
20049TIP3    H181638   2.929   5.111  12.138  0.3344  0.7691 -0.7356
20049TIP3    H281639   2.913   4.977  12.206 -2.6619  1.7717  0.7290
20050TIP3   OH281640   4.719   0.543  12.084 -0.3876  0.0128  0.1875
20050TIP3    H181641   4.788   0.517  12.023  0.4359 -1.4611  1.6603
20050TIP3    H281642   4.754   0.620  12.129  0.6259 -1.1270  1.4030
20051TIP3   OH281643   0.598   3.686  14.233 -0.6964  0.2523  0.8806
20051TIP3    H181644   0.682   3.679  14.188  0.3129 -1.5888  2.8792
20051TIP3    H281645   0.589   3.779  14.253 -0.2623  0.8257 -1.2667
20052TIP3   OH281646   4.506   5.999  10.448  0.8642  0.0467  0.2095
20052TIP3    H181647   4.426   6.046  10.424  1.0235 -0.7635 -2.2140
20052TIP3    H281648   4.558   6.064  10.496 -0.6953  0.9729  0.7343
20053TIP3   OH281649   0.199   1.625  10.215  0.0241  0.1612 -0.1229
20053TIP3    H181650   0.252   1.554  10.177 -0.1661  1.4455 -3.1171
20053TIP3    H281651   0.262   1.696  10.230  0.0853 -0.3232  2.1057
20054TIP3   OH281652   6.145   1.216  14.947  0.0796  0.4272  0.4157
20054TIP3    H181653   6.087   1.290  14.928 -1.1527 -0.2297  1.3818
20054TIP3    H281654   6.174   1.231  15.037  3.5967  2.0883 -0.8341
20055TIP3   OH281655   0.991   1.381  16.044  0.0882  0.1741  0.4474
20055TIP3    H181656   1.004   1.286  16.036  0.1848  0.2438 -0.3506
20055TIP3    H281657   1.056   1.419  15.985 -0.7964  0.6858 -0.2253
20056TIP3   OH281658   3.832   4.849   1.168  0.4256 -0.2824 -0.0681
20056TIP3    H181659   3.749   4.819   1.207  0.6074 -0.8184 -0.0856
20056TIP3    H281660   3.900   4.812   1.225  0.6305  2.0438  1.2893
20057TIP3   OH281661   1.153   5.704  16.409  0.3822 -0.3606 -0.6527
20057TIP3    H181662   1.217   5.752  16.357  2.2672 -0.6974  1.1918
20057TIP3    H281663   1.172   5.612  16.392 -0.9595 -0.4889 -1.5845
20058TIP3   OH281664   4.234   5.655  16.762  0.5311  0.1721  0.5052
20058TIP3    H181665   4.189   5.652  16.678 -0.9869 -0.8010  1.3011
20058TIP3    H281666   4.310   5.711  16.747 -1.4149  2.6765 -0.6878
20059TIP3   OH281667   0.298   6.769  11.209  0.2078  0.1077  0.5595
20059TIP3    H181668   0.364   6.786  11.143 -1.3364 -2.3787 -1.8407
20059TIP3    H281669   0.233   6.839  11.196 -0.4972 -0.8159 -1.2587
20060TIP3   OH281670   2.272   3.843   0.605  0.3917 -0.3015  0.1413
20060TIP3    H181671   2.331   3.820   0.534 -0.7542  2.0727 -1.7099
20060TIP3    H281672   2.325   3.831   0.684  1.8425 -2.6014 -1.0605
20061TIP3   OH281673   5.709   1.533   4.971  0.2034  0.2224 -0.6307
20061TIP3    H181674   5.756   1.557   4.891 -0.6184 -1.5650 -1.7064
20061TIP3    H281675   5.640   1.472   4.941 -0.5728  0.0665  1.3437
20062TIP3   OH281676   6.694   3.778  13.238 -0.5588  0.2256 -0.7664
20062TIP3    H181677   6.732   3.807  13.155 -1.4266  1.3798 -0.7902
20062TIP3    H281678   6.628   3.714  13.213 -0.2023 -0.0956 -0.8933
20063TIP3   OH281679   3.626   6.086  14.385 -0.0352  0.4692 -0.2709
20063TIP3    H181680   3.617   6.127  14.299 -1.0355  1.3206  0.2104
20063TIP3    H281681   3.540   6.047  14.401  0.5738 -0.9121 -0.2483
20064TIP3   OH281682   1.504   2.600   1.792  0.5478 -0.0891  0.1222
20064TIP3    H181683   1.474   2.672   1.737  2.6480  1.3033  0.6876
20064TIP3    H281684   1.593   2.583   1.763  0.6750 -1.3432  1.1367
20065TIP3   OH281685   6.714   4.062  17.058 -0.5985  0.5055 -0.5656
20065TIP3    H181686   6.732   3.972  17.087 -0.5996  0.4902 -0.6118
20065TIP3    H281687   6.796   4.109  17.077 -1.4209  1.1205  1.8553
20066TIP3   OH281688   6.751   5.549   4.325 -0.0029  0.0408  0.0705
20066TIP3    H181689   6.659   5.527   4.310  0.0439 -0.0492 -0.0822
20066TIP3    H281690   6.750   5.643   4.343 -0.2371 -0.1232  0.9935
20067TIP3   OH281691   5.983   6.215  10.487 -0.6390 -0.1127  0.1713
20067TIP3    H181692   5.929   6.165  10.426 -1.4661  0.4884  0.4000
20067TIP3    H281693   5.983   6.304  10.453 -1.7882  0.4170  1.4692
20068TIP3   OH281694   3.139   1.316   5.320 -0.0364  0.1454 -0.7592
20068TIP3    H181695   3.061   1.286   5.274  1.6624 -2.1956 -2.3175
20068TIP3    H281696   3.166   1.394   5.272 -0.4845 -0.0053 -1.2685
20069TIP3   OH281697   5.609   5.977  11.642  0.2074 -0.4370  0.5026
20069TIP3    H181698   5.662   5.974  11.722  0.6344 -0.7598  0.2118
20069TIP3    H281699   5.543   6.044  11.660 -0.7791 -1.7033  1.7818
20070TIP3   OH281700   1.105   0.162  15.733 -0.4262 -0.3217 -0.6552
20070TIP3    H181701   1.176   0.225  15.748 -1.0153  0.3921 -0.7820
20070TIP3    H281702   1.096   0.159  15.638  0.6612 -1.8289 -0.7384
20071TIP3   OH281703   5.020   0.937   3.156  0.2334 -0.9162 -0.0055
20071TIP3    H181704   5.111   0.919   3.134 -0.0410 -2.0097 -0.2763
20071TIP3    H281705   4.974   0.935   3.073 -0.1276 -0.8837  0.1928
20072TIP3   OH281706   5.891   0.767   2.773 -0.5598 -0.0016  0.4631
20072TIP3    H181707   5.862   0.701   2.710 -0.4797  0.5771 -0.1936
20072TIP3    H281708   5.954   0.820   2.724  0.7264 -0.5227  1.5060
20073TIP3   OH281709   0.968   5.380   5.024 -0.1349 -0.0230 -0.2765
20073TIP3    H181710   0.982   5.294   4.984  0.6537 -1.2976  2.5017
20073TIP3    H281711   0.878   5.403   4.999 -1.6202 -3.2240  1.4142
20074TIP3   OH281712   1.618   3.475  15.496  0.3598  0.1446 -0.0441
20074TIP3    H181713   1.592   3.388  15.527 -0.1276 -0.1362 -1.2013
20074TIP3    H281714   1.714   3.474  15.498  0.3502 -0.2094  0.4706
20075TIP3   OH281715   3.978   6.807   3.123 -0.1699 -0.3188  0.1428
20075TIP3    H181716   3.981   6.850   3.038 -1.9390  0.2979  0.3470
20075TIP3    H281717   3.983   6.713   3.103 -1.3676 -0.2257 -0.7453
20076TIP3   OH281718   4.126   5.701   2.901 -0.4908  1.0737  0.6940
20076TIP3    H181719   4.197   5.743   2.853 -1.0985  1.1006 -0.2105
20076TIP3    H281720   4.102   5.765   2.969 -0.5085  1.6245  0.1818
20077TIP3   OH281721   5.312   1.329   0.816  0.2099  0.3313  0.0924
20077TIP3    H181722   5.282   1.388   0.748  1.3222 -0.5949 -1.2475
20077TIP3    H281723   5.232   1.287   0.848 -0.3865  1.2173 -0.2048
20078TIP3   OH281724   2.668   0.218  15.632  0.2895 -0.4087 -0.0535
20078TIP3    H181725   2.696   0.284  15.568 -0.7696  0.3933  0.2770
20078TIP3    H281726   2.622   0.153  15.579 -1.0191  0.5048 -0.0816
20079TIP3   OH281727   0.814   1.405   4.090 -0.3360 -0.0819 -0.1686
20079TIP3    H181728   0.845   1.476   4.034 -1.7810 -0.3076 -1.3120
20079TIP3    H281729   0.892   1.375   4.137  1.4185 -1.1508 -3.4437
20080TIP3   OH281730   1.151   5.419   1.356  0.2523  0.5404  0.1704
20080TIP3    H181731   1.186   5.471   1.284  0.0122 -0.6628 -0.8493
20080TIP3    H281732   1.216   5.350   1.370 -1.6647 -1.8764 -1.9241
20081TIP3   OH281733   1.161   4.726  10.497  0.7908  0.1959 -0.0461
20081TIP3    H181734   1.207   4.708  10.415 -1.5590 -0.2664 -1.3820
20081TIP3    H281735   1.088   4.663  10.497 -1.3546  2.5030  0.5827
20082TIP3   OH281736   6.039   1.527   6.314 -0.0658 -0.0111 -0.4931
20082TIP3    H181737   6.086   1.531   6.231 -0.6133  0.8258 -0.7712
20082TIP3    H281738   5.990   1.445   6.310 -0.1816  0.0809 -1.0545
20083TIP3   OH281739   2.549   1.646  15.131 -0.2786 -0.2002  0.8076
20083TIP3    H181740   2.540   1.724  15.185 -2.0583 -0.4124  0.8690
20083TIP3    H281741   2.552   1.679  15.041  3.2470  0.1997  0.9049
20084TIP3   OH281742   0.806   4.129   4.843 -0.1906 -0.0167  0.1153
20084TIP3    H181743   0.881   4.181   4.869  0.7245 -0.8533 -0.7553
20084TIP3    H281744   0.745   4.192   4.804  0.8439  0.4357 -0.8257
20085TIP3   OH281745   0.708   0.406  11.403 -0.1103  0.3213  0.0572
20085TIP3    H181746   0.616   0.382  11.413  0.0413 -0.0221  0.6647
20085TIP3    H281747   0.706   0.501  11.387 -0.7117 -0.0109 -2.2828
20086TIP3   OH281748   6.581   0.557   1.519  0.3207 -0.6284 -0.5664
20086TIP3    H181749   6.569   0.594   1.432 -0.8775  1.6361  0.4943
20086TIP3    H281750   6.622   0.627   1.570  0.0333 -1.5262  0.9686
20087TIP3   OH281751   6.759   6.242   2.624  0.6697  0.3192  0.2841
20087TIP3    H181752   6.841   6.251   2.672  0.7456 -3.6740  1.2283
20087TIP3    H281753   6.786   6.232   2.533  1.1692 -0.0214  0.4665
20088TIP3   OH281754   1.519   3.422  16.106  0.1813  0.0320  0.1204
20088TIP3    H181755   1.575   3.407  16.181  1.1909  0.5064 -0.5179
20088TIP3    H281756   1.577   3.416  16.030 -0.9048 -0.9592 -0.6730
20089TIP3   OH281757   4.877   5.842   1.664 -0.0930  0.0655 -0.3405
20089TIP3    H181758   4.882   5.762   1.613  0.2201 -0.9915  1.2676
20089TIP3    H281759   4.839   5.815   1.748 -0.0165  1.5922  0.2222
20090TIP3   OH281760   2.061   4.275  11.387  0.0728 -0.1993  0.2380
20090TIP3    H181761   2.097   4.286  11.299 -0.9787 -0.3260 -0.2184
20090TIP3    H281762   1.967   4.281  11.376 -0.0507  0.7986  1.5139
20091TIP3   OH281763   4.460   1.661   0.428  0.0944  0.0298  0.1269
20091TIP3    H181764   4.516   1.699   0.361 -0.6032 -0.8606 -1.0018
20091TIP3    H281765   4.371   1.678   0.398 -0.2251 -0.8509  0.5346
20092TIP3   OH281766   0.543   6.175   4.766 -0.4864 -0.3795 -0.0113
20092TIP3    H181767   0.578   6.260   4.793 -0.9828 -0.1938  0.0598
20092TIP3    H281768   0.466   6.162   4.821  1.1772 -2.2413  2.0765
20093TIP3   OH281769   1.381   5.819  15.925 -0.6001  0.5563 -0.1517
20093TIP3    H181770   1.354   5.736  15.965  0.5076  0.0925 -0.3189
20093TIP3    H281771   1.476   5.815  15.924 -0.5635  1.0989 -1.6901
20094TIP3   OH281772   4.175   6.787  12.494  0.0551 -0.2853 -0.0034
20094TIP3    H181773   4.188   6.789  12.589  0.0402  1.8320 -0.0089
20094TIP3    H281774   4.088   6.824  12.481 -0.1466 -1.0123 -0.8360
20095TIP3   OH281775   3.000   3.794  12.938 -0.3661  0.6012 -0.1990
20095TIP3    H181776   2.935   3.864  12.937 -2.9192 -1.5569 -1.8931
20095TIP3    H281777   3.002   3.764  13.029 -1.7869  0.7370 -0.1071
20096TIP3   OH281778   5.368   0.627  13.021  0.3059  0.7401 -0.3441
20096TIP3    H181779   5.331   0.652  12.937  1.1468  0.5695 -0.7797
20096TIP3    H281780   5.401   0.708  13.058  1.9842  0.5064 -1.2295
20097TIP3   OH281781   3.503   3.303  14.089  0.3672  0.2103  0.0198
20097TIP3    H181782   3.484   3.370  14.155 -1.6157 -1.2938  1.0975
20097TIP3    H281783   3.490   3.347  14.005  1.7947  1.8592  0.6105
20098TIP3   OH281784   3.059   6.245  11.414 -0.0134 -0.3247 -0.0963
20098TIP3    H181785   3.145   6.211  11.389  0.0488  1.0142 -1.9455
20098TIP3    H281786   3.000   6.213  11.346 -0.6169  0.2580  0.1472
20099TIP3   OH281787   5.249   1.120   4.263  0.5454 -0.6490  0.5125
20099TIP3    H181788   5.231   1.115   4.357 -0.2901  0.1855  0.4129
20099TIP3    H281789   5.191   1.189   4.231  0.7797 -0.9592 -0.6317
20100TIP3   OH281790   4.740   5.839  12.534  0.6780 -0.3184  0.0330
20100TIP3    H181791   4.746   5.910  12.470  0.7614 -1.4718 -1.2884
20100TIP3    H281792   4.648   5.814  12.534  0.5100  0.2505  1.0427
20101TIP3   OH281793   2.160   2.099  13.991 -0.0420 -0.1200  0.0033
20101TIP3    H181794   2.074   2.074  13.958 -0.5613  0.2050  1.0903
20101TIP3    H281795   2.145   2.129  14.080  1.4336 -1.8217  0.8948
20102TIP3   OH281796   6.343   0.873  15.788  0.5646  0.0881  0.3309
20102TIP3    H181797   6.406   0.830  15.729 -0.0616 -2.4526  1.3501
20102TIP3    H281798   6.398   0.916  15.853  1.2919 -0.7770  0.3253
20103TIP3   OH281799   2.473   0.625  14.075  0.2009 -0.1046  0.3906
20103TIP3    H181800   2.410   0.696  14.085  0.7170  0.4799 -0.4352
20103TIP3    H281801   2.445   0.559  14.139  1.3363  1.9300  3.1709
20104TIP3   OH281802   4.858   2.755   2.303  0.1804  0.8250 -0.4077
20104TIP3    H181803   4.831   2.834   2.256  0.9146  1.0848 -0.4210
20104TIP3    H281804   4.839   2.683   2.243  1.3940  1.1810 -1.2587
20105TIP3   OH281805   0.306   2.479  12.438  0.7811  0.2904  0.4321
20105TIP3    H181806   0.363   2.491  12.514 -1.1494  2.2569  1.6790
20105TIP3    H281807   0.306   2.565  12.395 -1.0996  0.3061  0.4055
20106TIP3   OH281808   4.716   0.086   2.019  0.5862  0.0057  0.3319
20106TIP3    H181809   4.718   0.022   1.948  0.9227  1.1349 -0.7198
20106TIP3    H281810   4.637   0.064   2.069 -0.3614 -0.0729 -1.1247
20107TIP3   OH281811   3.310   5.973  12.231 -0.1710  0.0963  0.2072
20107TIP3    H181812   3.383   5.916  12.209  1.3308  1.7330  0.7611
20107TIP3    H281813   3.232   5.922  12.206  1.1350 -1.4658 -0.9079
20108TIP3   OH281814   0.095   3.735  16.390  0.2623 -0.0964 -0.2069
20108TIP3    H181815   0.004   3.750  16.364  0.4226 -1.5374 -1.7158
20108TIP3    H281816   0.088   3.678  16.467 -0.1228 -0.8468 -0.7790
20109TIP3   OH281817   4.364   3.980  16.286  0.0468 -0.2644 -0.3666
20109TIP3    H181818   4.335   4.038  16.357 -0.4676 -1.0746  0.1013
20109TIP3    H281819   4.325   3.895  16.308  0.2566 -0.6291 -1.3862
20110TIP3   OH281820   1.541   6.713  14.692 -0.0237  0.2054  0.4770
20110TIP3    H181821   1.446   6.724  14.686  0.0451  0.9331  0.5907
20110TIP3    H281822   1.575   6.770  14.623  0.2750 -1.2599 -0.6290
20111TIP3   OH281823   2.672   6.248  16.678  0.2780 -0.1617  0.0411
20111TIP3    H181824   2.655   6.342  16.684  2.4303  0.1838  2.4545
20111TIP3    H281825   2.668   6.217  16.768  0.3952 -2.2521 -0.6189
20112TIP3   OH281826   6.493   4.683  16.372 -0.1693  0.0514 -0.8222
20112TIP3    H181827   6.411   4.693  16.325  0.5196  0.1793 -2.0451
20112TIP3    H281828   6.528   4.599  16.341 -1.2782 -1.6268  2.0316
20113TIP3   OH281829   5.153   1.458  12.890 -0.1077 -0.2197  0.6988
20113TIP3    H181830   5.088   1.420  12.831 -1.5299  0.9312  1.4724
20113TIP3    H281831   5.231   1.404  12.878 -1.5634 -2.3979  0.6358
20114TIP3   OH281832   6.458   6.596  12.676 -0.1217  0.0176 -0.1189
20114TIP3    H181833   6.521   6.612  12.746 -1.5465 -1.9446  1.7532
20114TIP3    H281834   6.482   6.510  12.641 -0.3724  0.2862 -0.9645
20115TIP3   OH281835   0.881   6.057   0.961  0.0348 -0.5840  0.5429
20115TIP3    H181836   0.885   6.153   0.961 -0.6976 -0.5452  0.0749
20115TIP3    H281837   0.881   6.034   1.054  1.4184 -0.2002  0.6570
20116TIP3   OH281838   5.181   0.918   5.227  0.0569 -0.4035 -0.1054
20116TIP3    H181839   5.259   0.951   5.272  1.2777 -0.6631 -1.9463
20116TIP3    H281840   5.169   0.830   5.262  1.4727 -0.9050 -0.8247
20117TIP3   OH281841   0.621   4.131   1.351  0.6700  0.1440  0.5271
20117TIP3    H181842   0.620   4.221   1.385  0.5352  1.1529 -1.9292
20117TIP3    H281843   0.713   4.105   1.354  0.7916  0.5857  0.7713
20118TIP3   OH281844   1.365   1.037  11.586  0.3290 -0.3762 -0.3128
20118TIP3    H181845   1.405   1.103  11.530  0.4645 -0.4643 -0.3225
20118TIP3    H281846   1.439   0.984  11.617  0.1924 -0.7267 -0.5725
20119TIP3   OH281847   4.112   1.986  15.429 -0.0501  0.2663  0.0690
20119TIP3    H181848   4.064   1.945  15.357 -0.3488  0.8484 -0.0676
20119TIP3    H281849   4.046   2.002  15.496 -0.1001  1.2481 -0.1966
20120TIP3   OH281850   1.088   2.873   0.387 -0.0291  0.0568 -0.0681
20120TIP3    H181851   1.072   2.799   0.445 -1.5047 -0.5152 -1.1363
20120TIP3    H281852   1.120   2.833   0.306 -1.2671  0.5036 -0.8092
20121TIP3   OH281853   3.433   0.415   4.375 -0.2815  0.5641  0.0298
20121TIP3    H181854   3.529   0.410   4.384 -0.1132  0.1139 -1.6590
20121TIP3    H281855   3.417   0.396   4.282 -2.2441 -2.8149  0.8879
20122TIP3   OH281856   2.467   0.003  12.072 -0.4113  0.2250  0.6326
20122TIP3    H181857   2.556  -0.034  12.068 -0.5174 -0.2885  2.2851
20122TIP3    H281858   2.449   0.031  11.982  0.5367 -1.7673 -0.2565
20123TIP3   OH281859   1.275   4.916   5.746  0.2475 -0.2948  0.1067
20123TIP3    H181860   1.353   4.964   5.719  1.1760 -0.8591  1.6540
20123TIP3    H281861   1.304   4.825   5.753 -1.1431 -0.9021 -1.4763
20124TIP3   OH281862   3.455   3.598   1.812 -0.4585 -0.5711  0.2196
20124TIP3    H181863   3.522   3.535   1.786 -0.8302 -1.4891  1.3758
20124TIP3    H281864   3.373   3.551   1.801 -0.7739 -0.1429  0.7021
20125TIP3   OH281865   5.089   4.350  10.733  0.8707 -0.4434  0.0127
20125TIP3    H181866   5.103   4.444  10.732 -0.6891 -0.1758  0.1612
20125TIP3    H281867   4.999   4.339  10.702  0.8227 -1.8464  0.5567
20126TIP3   OH281868   5.620   1.691  11.770  0.4933  0.5234  0.1399
20126TIP3    H181869   5.525   1.686  11.779  0.6061 -1.5657  0.5835
20126TIP3    H281870   5.634   1.752  11.697 -1.2025  0.4473 -0.2900
20127TIP3   OH281871   4.010   5.004   2.825 -0.2482  0.1254  0.3016
20127TIP3    H181872   3.966   4.927   2.859 -0.5339 -0.3887 -1.1449
20127TIP3    H281873   4.005   5.068   2.895 -0.0276 -1.1518  1.5225
20128TIP3   OH281874   3.824   1.643  11.656 -0.2676 -0.3586 -0.5206
20128TIP3    H181875   3.731   1.664  11.645  0.4340  2.7189 -1.2474
20128TIP3    H281876   3.850   1.603  11.573 -0.5652  0.4126 -0.9972
20129TIP3   OH281877   2.494   5.947  12.252 -0.0514 -0.2227 -0.1632
20129TIP3    H181878   2.568   5.887  12.251 -0.1547 -0.3587 -1.3177
20129TIP3    H281879   2.502   5.994  12.335 -0.1979 -2.0816  0.9421
20130TIP3   OH281880   3.270   4.702   3.955  0.5169  0.4310  0.8204
20130TIP3    H181881   3.202   4.691   4.022  0.6115  0.0254  0.8497
20130TIP3    H281882   3.344   4.651   3.987  0.6578  0.4559  0.5346
20131TIP3   OH281883   4.685   1.557  15.765  0.1009  0.0531  0.7763
20131TIP3    H181884   4.640   1.526  15.686  1.9313  0.2857 -0.4333
20131TIP3    H281885   4.621   1.614  15.808 -1.6473 -1.6301  0.5613
20132TIP3   OH281886   2.589   2.060  14.352  0.5894 -0.1396 -0.3846
20132TIP3    H181887   2.534   2.134  14.328 -0.6818 -0.4677  1.2858
20132TIP3    H281888   2.560   1.989  14.295 -0.8377 -0.3200  0.4890
20133TIP3   OH281889   4.990   2.453  11.447  0.4422  0.0306 -0.0220
20133TIP3    H181890   5.061   2.494  11.398 -0.6817  2.9871  0.6330
20133TIP3    H281891   4.930   2.421  11.380 -0.0936  2.2279 -0.6880
20134TIP3   OH281892   4.093   1.016  11.600 -0.6490 -0.2509  0.2593
20134TIP3    H181893   4.096   1.010  11.695 -0.8812 -0.5092  0.2483
20134TIP3    H281894   4.032   1.087  11.582 -1.1224 -0.6529  0.2865
20135TIP3   OH281895   4.426   6.653   1.904  0.0621 -0.1624  0.1586
20135TIP3    H181896   4.449   6.642   1.996 -0.1469 -0.1571  0.2117
20135TIP3    H281897   4.411   6.563   1.873 -0.6934 -0.1091  0.3458
20136TIP3   OH281898   4.937   2.529  14.421 -0.3267 -0.2978 -0.1846
20136TIP3    H181899   4.857   2.491  14.458  0.0396  0.3530  1.3513
20136TIP3    H281900   5.008   2.494  14.476  0.5305 -1.2110 -1.7855
20137TIP3   OH281901   6.651   2.413   4.076  0.2528 -0.3240 -0.1373
20137TIP3    H181902   6.730   2.397   4.025  0.0657 -0.4501 -0.3872
20137TIP3    H281903   6.589   2.347   4.046  0.6071 -1.3493  1.2778
20138TIP3   OH281904   5.834   6.388   2.579 -0.5623  0.0617 -0.2236
20138TIP3    H181905   5.863   6.312   2.527 -2.0497 -0.0033 -1.0047
20138TIP3    H281906   5.793   6.350   2.656 -0.2088  0.1093 -0.0104
20139TIP3   OH281907   6.665   6.800  14.042  0.6720 -0.3836  0.1647
20139TIP3    H181908   6.590   6.847  14.078  1.4792  0.8920  0.2296
20139TIP3    H281909   6.734   6.866  14.036  1.3759 -1.2093 -1.1838
20140TIP3   OH281910   2.777   2.314   5.935 -0.2004 -0.0298 -0.5241
20140TIP3    H181911   2.765   2.220   5.927 -1.4641  0.0836 -0.2928
20140TIP3    H281912   2.732   2.337   6.017  2.2067  0.4552  0.7329
20141TIP3   OH281913   5.939   4.136  16.401 -0.2116  0.1290 -0.4775
20141TIP3    H181914   6.027   4.174  16.402  0.2521 -0.8904 -0.4666
20141TIP3    H281915   5.941   4.071  16.471 -1.7233  1.6402  1.0681
20142TIP3   OH281916   2.984   6.628   5.278  0.1023  0.1944  0.1261
20142TIP3    H181917   3.045   6.662   5.343 -0.4910 -0.2519  0.9390
20142TIP3    H281918   2.969   6.537   5.304 -0.1455  0.0101 -0.6363
20143TIP3   OH281919   5.394   4.707   0.174 -0.2309 -0.5617 -0.8540
20143TIP3    H181920   5.384   4.616   0.145  1.2424 -1.5891  1.5638
20143TIP3    H281921   5.383   4.759   0.095  0.7224 -2.9534 -2.6733
20144TIP3   OH281922   1.407   0.166  11.708 -0.0168  0.1162 -0.0161
20144TIP3    H181923   1.460   0.095  11.673 -1.0603 -0.9027  0.4106
20144TIP3    H281924   1.332   0.123  11.748 -1.2511  1.5080 -0.7120
20145TIP3   OH281925   3.549   2.129   4.922 -0.5290 -0.5747  0.4345
20145TIP3    H181926   3.522   2.216   4.895 -2.3163 -0.8484  1.1900
20145TIP3    H281927   3.520   2.121   5.013 -1.4376 -2.3194  0.0568
20146TIP3   OH281928   1.344   3.424  16.680  0.5100 -0.4319  0.7128
20146TIP3    H181929   1.374   3.464  16.761  2.5681 -1.9484  0.7645
20146TIP3    H281930   1.398   3.462  16.611  1.5213 -1.9958  0.5893
20147TIP3   OH281931   0.355   6.646   4.661  0.1205 -0.2149 -0.3262
20147TIP3    H181932   0.310   6.585   4.719  0.4248 -0.7446 -0.6414
20147TIP3    H281933   0.400   6.591   4.598  0.0107  0.3515 -0.9102
20148TIP3   OH281934   5.821   0.720  13.115  0.1055 -0.5304 -0.2061
20148TIP3    H181935   5.783   0.669  13.043 -0.5058 -0.0621 -0.2265
20148TIP3    H281936   5.780   0.806  13.107  0.0417 -0.4706  0.6995
20149TIP3   OH281937   1.834   2.327   0.919 -0.0244 -0.2342 -0.1380
20149TIP3    H181938   1.869   2.244   0.952 -0.0216 -0.0599  0.3056
20149TIP3    H281939   1.739   2.312   0.916 -0.0547 -0.1399  0.2729
20150TIP3   OH281940   4.972   0.622   3.769  0.1176 -0.1450  0.1305
20150TIP3    H181941   5.012   0.567   3.702  1.3305  0.0153  0.6837
20150TIP3    H281942   4.959   0.563   3.844 -2.2017 -0.5797 -0.5505
20151TIP3   OH281943   3.084   5.215  14.526  0.3396 -0.0110  0.1095
20151TIP3    H181944   3.051   5.128  14.549  0.5119 -0.2398 -0.4917
20151TIP3    H281945   3.122   5.204  14.439  1.1729  0.4621  0.4097
20152TIP3   OH281946   1.102   6.395   2.400  0.1681 -0.2677 -0.2776
20152TIP3    H181947   1.120   6.431   2.313  1.4526  0.2369  0.1761
20152TIP3    H281948   1.030   6.448   2.433 -0.8696 -0.9798 -1.3326
20153TIP3   OH281949   3.538   2.132  11.497  0.5934  0.0090  0.1676
20153TIP3    H181950   3.482   2.156  11.572  1.7974 -3.2367  2.3447
20153TIP3    H281951   3.489   2.062  11.453  2.2151 -2.0073  1.3737
20154TIP3   OH281952   4.358   1.352  15.950  0.0405  0.0191 -0.4571
20154TIP3    H181953   4.349   1.380  15.858  0.9760  0.1221 -0.5212
20154TIP3    H281954   4.420   1.414  15.988 -0.8176  0.3673  0.4247
20155TIP3   OH281955   5.707   2.643   6.082 -0.3386  0.0749  0.1072
20155TIP3    H181956   5.762   2.679   6.152 -1.3558 -0.0403  1.0032
20155TIP3    H281957   5.713   2.548   6.094  0.7137 -0.0095 -0.9599
20156TIP3   OH281958   5.685   5.464   3.131  0.0242 -0.1455  0.6723
20156TIP3    H181959   5.654   5.463   3.041 -0.3624 -3.6119  0.7089
20156TIP3    H281960   5.780   5.459   3.124  0.0500  0.5147  0.4877
20157TIP3   OH281961   1.590   0.876   1.246  0.2552  0.3530  0.3661
20157TIP3    H181962   1.517   0.815   1.255 -0.5660  1.4610  1.6093
20157TIP3    H281963   1.668   0.822   1.259 -0.3578 -0.7450 -0.3705
20158TIP3   OH281964   6.216   0.950  14.275 -0.2076  0.4473 -0.0809
20158TIP3    H181965   6.288   0.900  14.313 -0.7024 -0.6630 -0.5522
20158TIP3    H281966   6.255   1.000  14.204 -0.0390 -0.8790 -0.9556
20159TIP3   OH281967   5.788   4.681  14.310 -0.0147  0.2397  0.6273
20159TIP3    H181968   5.782   4.747  14.379 -0.5641  1.8796 -0.9033
20159TIP3    H281969   5.738   4.606  14.343  0.3870  0.6769  2.3029
20160TIP3   OH281970   0.467   0.083  16.999  0.2434  0.7142  0.3715
20160TIP3    H181971   0.489   0.119  16.914 -3.5315  0.8739 -0.6973
20160TIP3    H281972   0.488   0.153  17.061  0.7211  1.5419 -0.6916
20161TIP3   OH281973   5.655   3.526   5.637 -0.6518 -0.5095 -0.7245
20161TIP3    H181974   5.562   3.506   5.640 -0.5193 -1.0143  1.0555
20161TIP3    H281975   5.694   3.474   5.708  0.6651  1.1770 -0.1294
20162TIP3   OH281976   4.867   1.434  16.710 -0.6509  0.0451  0.8010
20162TIP3    H181977   4.866   1.356  16.766  0.2227  0.1260  0.9380
20162TIP3    H281978   4.920   1.497  16.758  0.5665 -0.0596 -0.3548
20163TIP3   OH281979   5.760   3.510   0.822  0.1001 -0.3404  0.8485
20163TIP3    H181980   5.786   3.556   0.742 -1.2192 -0.6251  0.2304
20163TIP3    H281981   5.795   3.421   0.812  0.7558 -0.1108  1.0392
20164TIP3   OH281982   4.609   4.580   4.113 -0.1709  0.2584  1.2381
20164TIP3    H181983   4.620   4.593   4.207  0.2575  1.5094  1.0279
20164TIP3    H281984   4.569   4.661   4.081  3.6542  1.7718 -0.3089
20165TIP3   OH281985   0.983   1.631  12.229  0.4942  0.0955 -0.3429
20165TIP3    H181986   1.013   1.606  12.142  0.4010 -0.8093 -0.1266
20165TIP3    H281987   0.893   1.599  12.234  0.5455  0.0215  0.1321
20166TIP3   OH281988   0.564   1.666  15.762 -0.2055  0.4752  0.0807
20166TIP3    H181989   0.639   1.607  15.756 -0.3735  0.3083 -0.4837
20166TIP3    H281990   0.512   1.647  15.683 -1.9775 -0.9692  1.4933
20167TIP3   OH281991   1.609   5.065   3.942 -0.6331 -0.4051  0.5894
20167TIP3    H181992   1.561   5.034   3.865 -0.7589  1.0344  0.0529
20167TIP3    H281993   1.701   5.059   3.917 -0.6324 -0.8764  0.7029
20168TIP3   OH281994   1.725   0.139   6.036 -0.9621  0.4251  0.6352
20168TIP3    H181995   1.668   0.214   6.023  0.1856  1.4379  1.2563
20168TIP3    H281996   1.811   0.177   6.055 -0.1005 -1.0572 -0.1593
20169TIP3   OH281997   0.990   5.343  15.336  0.0009 -0.1458  1.0150
20169TIP3    H181998   1.008   5.394  15.258 -1.7919  1.7389  1.7600
20169TIP3    H281999   1.073   5.341  15.383  0.1512  2.0969  0.9364
20170TIP3   OH282000   1.234   4.010  13.999 -0.0882  1.1754  0.3703
20170TIP3    H182001   1.226   3.973  13.911  1.8494 -0.4424  0.8113
20170TIP3    H282002   1.153   3.985  14.043  0.0888 -0.3817 -0.1419
20171TIP3   OH282003   1.314   3.681   2.834 -0.4710  0.4047  0.3394
20171TIP3    H182004   1.387   3.634   2.793 -0.8817 -0.2315  0.3306
20171TIP3    H282005   1.319   3.656   2.926  0.4526  1.8344  0.7114
20172TIP3   OH282006   1.010   1.329  13.037  0.3744  0.7268 -0.1865
20172TIP3    H182007   1.031   1.416  13.003 -1.6322  2.0744  1.7614
20172TIP3    H282008   0.925   1.308  13.000  1.1172 -0.7768 -1.1595
20173TIP3   OH282009   6.705   1.264   3.744  0.0568 -0.3130  0.2715
20173TIP3    H182010   6.748   1.240   3.826  0.6906 -1.3981 -0.3508
20173TIP3    H282011   6.717   1.188   3.688 -2.5771 -0.6219  0.0031
20174TIP3   OH282012   0.990   6.285   1.241  0.3442  0.5368 -0.0698
20174TIP3    H182013   0.896   6.271   1.243  0.6075 -1.4160  1.0701
20174TIP3    H282014   1.011   6.293   1.147 -0.9271  1.1073 -0.3261
20175TIP3   OH282015   0.239   6.376  11.844 -0.2514  0.0284  0.1018
20175TIP3    H182016   0.180   6.317  11.799 -0.1689 -0.2761  0.3895
20175TIP3    H282017   0.212   6.372  11.936  0.6836 -0.6850  0.3620
20176TIP3   OH282018   0.602   3.080   4.489 -0.2591 -0.3934  0.5998
20176TIP3    H182019   0.671   3.040   4.436 -0.2480  0.3683  0.0239
20176TIP3    H282020   0.521   3.048   4.451 -0.3232  1.6191 -1.1629
20177TIP3   OH282021   0.859   5.842  10.514  0.3562  0.1096 -0.4515
20177TIP3    H182022   0.786   5.877  10.463  0.4235 -1.7523 -1.9355
20177TIP3    H282023   0.833   5.855  10.605 -1.7700 -0.3783 -0.9462
20178TIP3   OH282024   1.479   4.697  12.722  0.6465  0.1936  0.1078
20178TIP3    H182025   1.460   4.785  12.691  0.3482  0.0091 -0.2433
20178TIP3    H282026   1.397   4.649  12.709  0.8720 -0.1893  0.0903
20179TIP3   OH282027   1.267   1.811  12.199 -0.2542 -0.2080  0.4240
20179TIP3    H182028   1.174   1.808  12.223 -0.1536  2.1200  1.3431
20179TIP3    H282029   1.311   1.841  12.278  1.1075  0.1168 -0.4302
20180TIP3   OH282030   4.457   6.679  11.458 -0.4418  0.0930  0.1701
20180TIP3    H182031   4.472   6.678  11.364 -1.9974 -0.7564 -0.1094
20180TIP3    H282032   4.422   6.592  11.478 -1.5522  0.7383  1.2493
20181TIP3   OH282033   4.324   2.221  16.038  0.4438  1.0939 -0.5131
20181TIP3    H182034   4.262   2.188  15.974 -0.6209  0.6168  0.7133
20181TIP3    H282035   4.300   2.313  16.049  0.8034  1.2466 -0.9875
20182TIP3   OH282036   0.024   5.690  12.334  0.4311 -0.4673  0.3810
20182TIP3    H182037   0.113   5.724  12.324  0.3528 -0.7800 -1.7496
20182TIP3    H282038  -0.001   5.662  12.247 -0.5405 -3.4860  1.5225
20183TIP3   OH282039   0.515   1.924  17.087 -0.5421 -0.5575 -0.0062
20183TIP3    H182040   0.552   1.845  17.127  0.6901  0.3033  0.6316
20183TIP3    H282041   0.441   1.893  17.036  1.7692 -2.5829 -2.4031
20184TIP3   OH282042   6.086   1.340  14.546 -0.1750  0.1858  0.4282
20184TIP3    H182043   6.006   1.388  14.568 -0.4321  0.7285 -1.4838
20184TIP3    H282044   6.059   1.282  14.474  1.3040  1.0132 -0.8542
20185TIP3   OH282045   6.670   5.470   4.010  0.1529  0.3209 -0.5034
20185TIP3    H182046   6.601   5.477   3.944 -1.0038 -0.6531  0.5574
20185TIP3    H282047   6.663   5.551   4.061  0.9153  0.9814 -1.4123
20186TIP3   OH282048   5.429   1.453  17.128  0.0780 -0.0211 -0.7149
20186TIP3    H182049   5.460   1.372  17.168  0.7082 -0.0195 -1.1824
20186TIP3    H282050   5.492   1.520  17.155  0.6040 -0.0495 -1.8098
20187TIP3   OH282051   4.709   4.286   2.641  0.0762 -0.5000  0.0881
20187TIP3    H182052   4.722   4.230   2.718 -0.4088 -0.2843  0.3283
20187TIP3    H282053   4.697   4.374   2.677  2.1623  0.0284 -0.3324
20188TIP3   OH282054   3.121   1.962   5.221 -0.4807 -0.2384 -0.3624
20188TIP3    H182055   3.068   1.884   5.206 -1.4861  0.4145 -0.2689
20188TIP3    H282056   3.058   2.034   5.226  0.4419  0.6293 -0.7278
20189TIP3   OH282057   2.149   1.250   4.244 -0.2470 -0.3001 -0.1360
20189TIP3    H182058   2.167   1.261   4.337  1.2775 -1.5125 -0.2398
20189TIP3    H282059   2.120   1.159   4.236 -1.3030  0.0832 -0.7204
20190TIP3   OH282060   3.025   0.617   0.057 -0.2758  0.0628 -0.0631
20190TIP3    H182061   3.119   0.631   0.047  0.1013 -1.5273  0.9864
20190TIP3    H282062   2.985   0.694   0.016  1.4921  1.4682  0.7274
20191TIP3   OH282063   1.725   1.349  12.838 -0.5807 -0.3617 -0.6623
20191TIP3    H182064   1.647   1.391  12.800 -1.0332 -1.4300 -0.9560
20191TIP3    H282065   1.710   1.256  12.825 -0.0298 -0.6806  0.7909
20192TIP3   OH282066   2.277   0.034  15.585 -0.1535  0.8782 -0.0720
20192TIP3    H182067   2.217   0.029  15.511 -1.0022 -0.9081  0.6982
20192TIP3    H282068   2.358   0.069  15.547 -0.2198 -0.9648 -2.0859
20193TIP3   OH282069   0.712   5.684   3.584 -0.2065 -0.2114 -0.1484
20193TIP3    H182070   0.764   5.737   3.644  2.6562 -1.9208 -0.9273
20193TIP3    H282071   0.621   5.701   3.609  0.7837  0.4168  3.5123
20194TIP3   OH282072   2.939   0.708  16.954 -0.3973 -0.1526  0.2052
20194TIP3    H182073   2.884   0.681  17.027 -1.1729  2.5417  0.7553
20194TIP3    H282074   2.878   0.754  16.895  0.8918  1.2872 -0.0769
20195TIP3   OH282075   0.892   4.072  15.907 -0.2039  0.0527 -0.3214
20195TIP3    H182076   0.953   4.005  15.939  3.1828  2.2423 -1.6218
20195TIP3    H282077   0.874   4.045  15.816  0.6927  0.5530 -0.6584
20196TIP3   OH282078   2.411   3.458   0.375 -0.3873 -0.0538 -0.2885
20196TIP3    H182079   2.431   3.419   0.290  1.4262 -0.6050  0.3213
20196TIP3    H282080   2.487   3.435   0.429 -0.9817  1.2341  1.1583
20197TIP3   OH282081   0.342   3.198  11.611  0.1610 -0.3291 -0.6592
20197TIP3    H182082   0.336   3.123  11.670 -1.5013 -1.0701 -1.7123
20197TIP3    H282083   0.253   3.233  11.607  0.6973  1.0681 -1.0165
20198TIP3   OH282084   6.349   2.479  13.355 -0.1311  0.4935  0.1428
20198TIP3    H182085   6.340   2.437  13.270 -1.3800  0.9364  0.0322
20198TIP3    H282086   6.266   2.460  13.400  0.4059  0.4810  1.1546
20199TIP3   OH282087   2.790   2.711   2.861  0.4993 -0.4065 -0.0334
20199TIP3    H182088   2.766   2.771   2.791  1.8372 -0.9381 -0.9919
20199TIP3    H282089   2.712   2.705   2.916 -0.6233 -0.0939 -1.5469
20200TIP3   OH282090   5.515   6.370   2.667 -0.3121 -0.2404  0.6322
20200TIP3    H182091   5.481   6.446   2.714  0.8664  0.4849  0.3511
20200TIP3    H282092   5.490   6.385   2.576 -0.8787 -0.6644  0.7103
20201TIP3   OH282093   6.230   4.849  16.638 -0.4161 -0.4405 -0.8169
20201TIP3    H182094   6.200   4.759  16.624 -0.0653 -0.6213 -0.4231
20201TIP3    H282095   6.322   4.840  16.663  0.1040  0.1305 -2.3754
20202TIP3   OH282096   0.534   1.905  16.375  0.4043  0.4348 -0.1036
20202TIP3    H182097   0.616   1.914  16.327  1.3908 -0.7477  1.2905
20202TIP3    H282098   0.560   1.881  16.463 -1.4040  1.3960  0.7525
20203TIP3   OH282099   0.255   0.315   4.269  0.4563 -0.1077  0.4246
20203TIP3    H182100   0.234   0.277   4.354 -0.2687 -0.3917  0.1192
20203TIP3    H282101   0.258   0.241   4.209 -0.2218  0.2265 -0.0293
20204TIP3   OH282102   1.930   5.276  16.507 -0.5381 -0.1559  0.2464
20204TIP3    H182103   1.867   5.242  16.571 -0.3849 -0.0884  0.4330
20204TIP3    H282104   1.890   5.256  16.422 -1.5753  1.2874  0.3517
20205TIP3   OH282105   4.923   5.859   0.140  0.3792  0.8477 -0.0404
20205TIP3    H182106   4.999   5.854   0.198  0.3249  0.5754  0.0105
20205TIP3    H282107   4.953   5.910   0.065  1.2042 -0.8826 -0.9382
20206TIP3   OH282108   4.153   3.130  15.683  0.0674 -0.5296 -0.5475
20206TIP3    H182109   4.163   3.057  15.622 -0.2304 -1.7504  0.7858
20206TIP3    H282110   4.241   3.164  15.695  0.3642 -1.3126 -0.4486
20207TIP3   OH282111   0.285   2.567   4.867  0.3862  0.2737  0.5305
20207TIP3    H182112   0.285   2.579   4.962 -2.0141 -0.8340  0.7357
20207TIP3    H282113   0.320   2.480   4.853  0.1096  0.1702  0.4664
20208TIP3   OH282114   2.342   2.342   2.883 -0.0018  0.0963  0.4983
20208TIP3    H182115   2.257   2.309   2.912  0.9790 -1.9753  1.1691
20208TIP3    H282116   2.404   2.275   2.909  1.7514  1.1272 -0.8235
20209TIP3   OH282117   2.817   4.478   0.075  0.3444 -0.2455 -0.1434
20209TIP3    H182118   2.756   4.455   0.004  0.3461 -2.4873  0.4974
20209TIP3    H282119   2.891   4.420   0.062  2.0878  1.9340 -0.4655
20210TIP3   OH282120   2.882   6.110   6.445 -0.2505  0.0409  0.1359
20210TIP3    H182121   2.826   6.062   6.506 -1.1236 -1.4148 -1.7356
20210TIP3    H282122   2.960   6.056   6.435  0.4027  0.8279  0.7709
20211TIP3   OH282123   0.292   5.267  12.063 -0.0191  0.0074 -0.2568
20211TIP3    H182124   0.306   5.361  12.054 -1.3179  0.2095 -0.4338
20211TIP3    H282125   0.310   5.249  12.155  1.2218  0.2337 -0.4469
20212TIP3   OH282126   5.511   2.616  16.993  0.1315  0.4539  0.0434
20212TIP3    H182127   5.420   2.644  17.007  0.3322  0.6619  0.9665
20212TIP3    H282128   5.523   2.542  17.051  0.3425 -0.0457 -0.6216
20213TIP3   OH282129   1.410   1.025  12.950 -0.4304 -0.3792 -0.2773
20213TIP3    H182130   1.450   1.026  13.037 -2.0369  0.4930  0.5022
20213TIP3    H282131   1.387   1.116  12.933  0.0928 -0.4960 -1.7604
20214TIP3   OH282132   1.772   0.552   1.713  0.5057  0.3125  0.0990
20214TIP3    H182133   1.787   0.467   1.672 -0.1117  0.7711 -1.1520
20214TIP3    H282134   1.837   0.557   1.783  1.6650 -0.4843 -0.8717
20215TIP3   OH282135   5.422   0.745   2.704  0.4806 -0.3415 -0.1816
20215TIP3    H182136   5.429   0.672   2.765  1.1785 -0.7398 -0.7136
20215TIP3    H282137   5.510   0.785   2.704  0.4613 -0.2891 -0.8433
20216TIP3   OH282138   2.713   6.173   5.237 -0.2022 -0.0434 -0.6301
20216TIP3    H182139   2.635   6.179   5.292  0.0909 -0.0411 -0.2068
20216TIP3    H282140   2.704   6.245   5.175  0.6481  1.5341  0.9800
20217TIP3   OH282141   2.307   5.108  16.896  0.1599 -0.8535 -0.1330
20217TIP3    H182142   2.290   5.200  16.879 -1.1055 -0.7041  1.7532
20217TIP3    H282143   2.401   5.098  16.880 -0.1990 -0.0841 -3.7418
20218TIP3   OH282144   4.474   3.963   1.566 -0.2342  0.1372  0.3272
20218TIP3    H182145   4.472   3.873   1.534  0.3588  0.3570 -0.3655
20218TIP3    H282146   4.544   3.966   1.630 -0.1433  0.1387  0.2285
20219TIP3   OH282147   2.128   1.467  15.928  0.3063 -0.4327  0.5215
20219TIP3    H182148   2.043   1.423  15.919 -0.2664  0.9461 -1.8027
20219TIP3    H282149   2.193   1.399  15.914 -0.5440 -0.7076 -2.8113
20220TIP3   OH282150   0.301   2.885  13.632 -0.5656  0.0788 -0.0227
20220TIP3    H182151   0.287   2.977  13.608 -1.0503 -0.0321 -0.1687
20220TIP3    H282152   0.346   2.889  13.717 -1.7246  0.4468  0.6005
20221TIP3   OH282153   2.342   1.122   2.531 -0.0561  0.1017 -0.0704
20221TIP3    H182154   2.410   1.065   2.565  0.0556  0.0210 -0.4221
20221TIP3    H282155   2.323   1.183   2.602  2.4233  1.9847 -0.8876
20222TIP3   OH282156   1.580   1.955  10.594 -0.0010 -0.2346  0.2641
20222TIP3    H182157   1.499   1.954  10.543  0.7066 -0.6675 -0.8990
20222TIP3    H282158   1.554   1.986  10.681 -1.0565  1.5419 -0.6517
20223TIP3   OH282159   5.782   0.171  14.939 -0.3726  0.3161 -0.3664
20223TIP3    H182160   5.779   0.232  14.864 -1.9170  1.2147  0.3683
20223TIP3    H282161   5.816   0.224  15.011  0.2153 -0.2831 -0.1948
20224TIP3   OH282162   4.402   6.507  15.849 -0.0372  0.5325 -0.1875
20224TIP3    H182163   4.371   6.460  15.772 -0.1741  0.5134 -0.1219
20224TIP3    H282164   4.468   6.568  15.816  0.3169  0.1227 -0.2379
20225TIP3   OH282165   0.834   6.526   5.830  0.0430 -0.1649  0.1023
20225TIP3    H182166   0.854   6.457   5.894  0.3288 -0.8237 -0.6777
20225TIP3    H282167   0.840   6.607   5.880 -1.3577 -0.7609  1.3019
20226TIP3   OH282168   1.328   4.800  16.420  0.0345 -0.0109 -0.3832
20226TIP3    H182169   1.264   4.741  16.460 -0.7819  0.0913 -1.4925
20226TIP3    H282170   1.385   4.744  16.368 -1.6875  0.2644 -2.6949
20227TIP3   OH282171   3.314   3.481   6.333  0.1735  1.0235 -0.0876
20227TIP3    H182172   3.267   3.558   6.301 -2.0097 -0.2243 -0.0147
20227TIP3    H282173   3.336   3.432   6.253 -0.6384  0.5131 -0.0074
20228TIP3   OH282174   4.751   1.716  13.918  0.3410  0.4999 -0.1081
20228TIP3    H182175   4.662   1.726  13.951  0.6978  0.4153  0.9145
20228TIP3    H282176   4.751   1.632  13.872 -0.3149  0.8901 -0.8416
20229TIP3   OH282177   1.665   3.507   4.962 -0.3591 -0.3625  0.5223
20229TIP3    H182178   1.659   3.505   5.058 -0.3255  0.0004  0.5326
20229TIP3    H282179   1.579   3.479   4.932  0.4157 -3.2359  0.6353
20230TIP3   OH282180   5.037   1.217   0.888 -0.0275 -0.4079  0.0900
20230TIP3    H182181   4.941   1.225   0.887 -0.1869 -1.7340  1.5228
20230TIP3    H282182   5.066   1.278   0.955 -0.0381 -1.2595  0.8890
20231TIP3   OH282183   0.202   5.607  16.363  0.3727 -0.4153 -0.0750
20231TIP3    H182184   0.171   5.628  16.451  0.5547 -1.0559  0.1487
20231TIP3    H282185   0.255   5.682  16.337  0.5356 -0.3414  0.4667
20232TIP3   OH282186   4.991   2.839  11.075 -0.0021 -0.0818 -0.1864
20232TIP3    H182187   4.979   2.924  11.118  1.0715  0.2299 -0.4780
20232TIP3    H282188   4.993   2.860  10.981  1.8390 -0.2037 -0.2047
20233CLA    CLA82189   4.037   6.504   2.893  0.1988  0.2417  0.3737
20234LIG     O182190   2.974   3.666   4.797  0.1226 -0.1270 -0.4123
20234LIG     O282191   2.687   2.984   5.141 -0.4538  0.5606  0.4174
20234LIG     O382192   3.547   3.649   5.082  0.6989 -0.4023  0.8177
20234LIG     O482193   2.625   3.159   5.262 -0.2767 -0.3209 -0.0600
20234LIG      N82194   2.695   3.734   4.936  0.2896 -0.1694 -0.1107
20234LIG     C182195   2.644   3.597   4.973 -0.0472 -0.3704  0.8941
20234LIG     C282196   2.735   3.743   4.784 -0.0406 -0.5092  0.1288
20234LIG     C382197   2.545   3.516   4.879 -0.1976  0.3742 -0.2833
20234LIG     C482198   2.808   3.780   5.022 -0.0714  0.6453  0.0411
20234LIG     C582199   2.588   3.842   4.965 -0.5523  0.2886  0.5660
20234LIG     C682200   2.848   3.642   4.736 -0.3220  0.7441 -0.4141
20234LIG     C782201   2.495   3.381   4.941 -0.1816 -0.3831  0.1642
20234LIG     C882202   3.071   3.561   4.772  1.2718  0.5769 -0.7621
20234LIG     C982203   2.611   3.286   4.964  0.1883 -0.0551 -0.0725
20234LIG    C1082204   3.201   3.597   4.850 -0.2945 -0.9895 -0.0454
20234LIG    C1182205   3.115   3.571   4.615 -0.4613  0.3330  0.0870
20234LIG    C1282206   2.997   3.428   4.831 -1.0712 -0.3291  0.3488
20234LIG    C1382207   2.567   3.151   5.019  0.0848  0.1225  0.3374
20234LIG    C1482208   3.212   3.710   4.931 -0.1437 -0.6058 -0.0694
20234LIG    C1582209   3.312   3.505   4.846  0.8244 -0.1301  0.1505
20234LIG    C1682210   3.182   3.460   4.555 -0.5818 -0.1170 -0.3954
20234LIG    C1782211   3.010   3.384   4.966  0.4965 -0.6029  0.0527
20234LIG    C1882212   3.148   3.704   4.568  0.2205  0.9262  0.5394
20234LIG    C1982213   2.949   3.330   4.747  0.4590  1.2391 -0.0042
20234LIG    C2082214   2.632   3.105   5.151 -0.4238  0.0861 -0.3037
20234LIG    C2182215   3.328   3.733   5.001 -0.1447  0.8463  0.4585
20234LIG    C2282216   3.434   3.540   4.906 -0.1646 -0.0766 -0.0843
20234LIG    C2382217   3.262   3.477   4.437  0.0644  0.6760  0.4706
20234LIG    C2482218   2.982   3.258   5.009  0.3959  0.3772  0.0117
20234LIG    C2582219   3.210   3.720   4.439  0.1263  0.5137  0.3913
20234LIG    C2682220   2.917   3.206   4.791 -0.2694 -0.2823  0.2624
20234LIG    C2782221   3.441   3.645   4.993 -0.3386 -0.1643 -0.1591
20234LIG    C2882222   3.265   3.600   4.376  0.3904 -0.0897  0.3064
20234LIG    C2982223   2.924   3.162   4.922  0.1520 -0.7817 -0.2366
20234LIG    C3082224   3.578   3.778   5.133 -0.0014  0.0914  0.3196
20234LIG     H182225   2.600   3.601   5.072  1.2402  0.5757  1.4590
20234LIG     H282226   2.728   3.529   4.980 -1.0768 -1.7505  0.4166
20234LIG     H382227   2.767   3.844   4.760  2.9863 -0.7684  2.4657
20234LIG     H482228   2.645   3.732   4.725 -0.1744 -0.5426  0.3390
20234LIG     H582229   2.593   3.494   4.781  2.0849 -0.7971  1.0162
20234LIG     H682230   2.457   3.583   4.867 -0.6162  0.0093  0.6662
20234LIG     H782231   2.839   3.878   4.989 -1.6864  1.0619 -0.3755
20234LIG     H882232   2.889   3.710   5.013 -0.6393 -0.0382  0.1820
20234LIG     H982233   2.775   3.788   5.125 -0.2898  1.9231 -0.1073
20234LIG    H1082234   2.629   3.935   4.929  2.5450 -1.2611 -0.2205
20234LIG    H1182235   2.557   3.846   5.068 -0.5331 -0.1781  0.5924
20234LIG    H1282236   2.499   3.822   4.907 -0.0368 -1.0720  0.2017
20234LIG    H1382237   2.799   3.547   4.769 -0.6045  0.9656 -0.1975
20234LIG    H1482238   2.836   3.638   4.625 -5.4399 -2.3925 -0.1269
20234LIG    H1582239   2.415   3.338   4.877 -0.4464 -0.5860  0.6203
20234LIG    H1682240   2.445   3.403   5.038 -2.0244 -0.7656 -0.6436
20234LIG    H1782241   2.684   3.336   5.031 -1.5071  0.8913  1.1542
20234LIG    H1882242   2.659   3.266   4.866  0.6414  0.1662  0.0991
20234LIG    H1982243   2.592   3.068   4.951  2.0617 -1.1865  2.5298
20234LIG    H2082244   2.458   3.158   5.039  0.0749 -2.2482  1.3262
20234LIG    H2182245   3.124   3.773   4.933  0.2685 -0.0098 -0.1974
20234LIG    H2282246   3.312   3.412   4.792  0.4263 -0.3438  0.5187
20234LIG    H2382247   3.175   3.359   4.593  0.2736 -0.4196 -1.0086
20234LIG    H2482248   3.052   3.451   5.040  0.6145 -2.9471  2.2563
20234LIG    H2582249   3.115   3.788   4.626  0.4576  0.7002  1.0034
20234LIG    H2682250   2.932   3.356   4.644  2.3032  3.2051  0.1142
20234LIG    H2782251   3.332   3.813   5.073  0.0881  1.3196 -0.0758
20234LIG    H2882252   3.511   3.470   4.878  0.6979  0.9959 -0.4979
20234LIG    H2982253   3.321   3.392   4.408 -0.3262 -0.6619  3.2270
20234LIG    H3082254   3.002   3.238   5.114 -0.7272 -2.9722 -0.2689
20234LIG    H3182255   3.225   3.811   4.383  0.7786 -0.4284 -1.0383
20234LIG    H3282256   2.867   3.138   4.723 -0.5533  0.1863 -0.0048
20234LIG    H3382257   3.337   3.612   4.296  1.8978 -3.2569  1.0423
20234LIG    H3482258   2.900   3.061   4.949  0.9947 -1.6530 -2.5091
20234LIG    H3582259   2.732   2.966   5.224 -0.9472  1.4190  0.8863
20234LIG    H3682260   3.566   3.858   5.057  0.9292 -1.5114 -1.6249
20234LIG    H3782261   3.685   3.759   5.156 -0.4709 -1.4662  1.3908
20234LIG    H3882262   3.521   3.796   5.227 -3.3331  0.1717 -1.5511
   6.82397   6.82397  17.20291
