PSF EXT CMAP XPLOR

         2 !NTITLE
* GENERATE LIGAND                                                               
*  DATE:     4/15/25     17:31:38      CREATED BY USER: charmm-gui              

        52 !NATOM
         1 LIG      1        LIG      S        SG311   -0.246000       32.0600           0
         2 LIG      1        LIG      N1       NG301   -0.382000       14.0070           0
         3 LIG      1        LIG      N2       NG301   -0.690000       14.0070           0
         4 LIG      1        LIG      C1       CG311   -0.173000       12.0110           0
         5 LIG      1        LIG      C2       CG321   -0.165000       12.0110           0
         6 LIG      1        LIG      C3       CG321    0.440000E-01   12.0110           0
         7 LIG      1        LIG      C4       CG321    0.840000E-01   12.0110           0
         8 LIG      1        LIG      C5       CG331   -0.236000       12.0110           0
         9 LIG      1        LIG      C6       CG2R61   0.229000       12.0110           0
        10 LIG      1        LIG      C7       CG2R61   0.229000       12.0110           0
        11 LIG      1        LIG      C8       CG321    0.400000E-01   12.0110           0
        12 LIG      1        LIG      C9       CG321    0.400000E-01   12.0110           0
        13 LIG      1        LIG      C10      CG2R61   0.460000E-01   12.0110           0
        14 LIG      1        LIG      C11      CG2R61   0.460000E-01   12.0110           0
        15 LIG      1        LIG      C12      CG2R61  -0.201000       12.0110           0
        16 LIG      1        LIG      C13      CG2R61  -0.201000       12.0110           0
        17 LIG      1        LIG      C14      CG331   -0.269000       12.0110           0
        18 LIG      1        LIG      C15      CG331   -0.269000       12.0110           0
        19 LIG      1        LIG      C16      CG2R61  -0.108000       12.0110           0
        20 LIG      1        LIG      C17      CG2R61  -0.108000       12.0110           0
        21 LIG      1        LIG      C18      CG2R61  -0.990000E-01   12.0110           0
        22 LIG      1        LIG      C19      CG2R61  -0.990000E-01   12.0110           0
        23 LIG      1        LIG      C20      CG2R61  -0.116000       12.0110           0
        24 LIG      1        LIG      C21      CG2R61  -0.116000       12.0110           0
        25 LIG      1        LIG      H1       HGA1     0.900000E-01   1.00800           0
        26 LIG      1        LIG      H2       HGA2     0.900000E-01   1.00800           0
        27 LIG      1        LIG      H3       HGA2     0.900000E-01   1.00800           0
        28 LIG      1        LIG      H4       HGA2     0.900000E-01   1.00800           0
        29 LIG      1        LIG      H5       HGA2     0.900000E-01   1.00800           0
        30 LIG      1        LIG      H6       HGA2     0.900000E-01   1.00800           0
        31 LIG      1        LIG      H7       HGA2     0.900000E-01   1.00800           0
        32 LIG      1        LIG      H8       HGA3     0.900000E-01   1.00800           0
        33 LIG      1        LIG      H9       HGA3     0.900000E-01   1.00800           0
        34 LIG      1        LIG      H10      HGA3     0.900000E-01   1.00800           0
        35 LIG      1        LIG      H11      HGA2     0.900000E-01   1.00800           0
        36 LIG      1        LIG      H12      HGA2     0.900000E-01   1.00800           0
        37 LIG      1        LIG      H13      HGA2     0.900000E-01   1.00800           0
        38 LIG      1        LIG      H14      HGA2     0.900000E-01   1.00800           0
        39 LIG      1        LIG      H15      HGR61    0.115000       1.00800           0
        40 LIG      1        LIG      H16      HGR61    0.115000       1.00800           0
        41 LIG      1        LIG      H17      HGA3     0.900000E-01   1.00800           0
        42 LIG      1        LIG      H18      HGA3     0.900000E-01   1.00800           0
        43 LIG      1        LIG      H19      HGA3     0.900000E-01   1.00800           0
        44 LIG      1        LIG      H20      HGA3     0.900000E-01   1.00800           0
        45 LIG      1        LIG      H21      HGA3     0.900000E-01   1.00800           0
        46 LIG      1        LIG      H22      HGA3     0.900000E-01   1.00800           0
        47 LIG      1        LIG      H23      HGR61    0.115000       1.00800           0
        48 LIG      1        LIG      H24      HGR61    0.115000       1.00800           0
        49 LIG      1        LIG      H25      HGR61    0.115000       1.00800           0
        50 LIG      1        LIG      H26      HGR61    0.115000       1.00800           0
        51 LIG      1        LIG      H27      HGR61    0.115000       1.00800           0
        52 LIG      1        LIG      H28      HGR61    0.115000       1.00800           0

        54 !NBOND: bonds
         1        13         1        14         2         6         2         9
         2        10         3         7         3        11         3        12
         4         5         4         6         4         8         4        25
         5         7         5        26         5        27         6        28
         6        29         7        30         7        31         8        32
         8        33         8        34         9        13         9        15
        10        14        10        16        11        17        11        35
        11        36        12        18        12        37        12        38
        13        19        14        20        15        21        15        39
        16        22        16        40        17        41        17        42
        17        43        18        44        18        45        18        46
        19        23        19        47        20        24        20        48
        21        23        21        49        22        24        22        50
        23        51        24        52

        97 !NTHETA: angles
        13         1        14         6         2         9         6         2        10
         9         2        10         7         3        11         7         3        12
        11         3        12         5         4         6         5         4         8
         5         4        25         6         4         8         6         4        25
         8         4        25         4         5         7         4         5        26
         4         5        27         7         5        26         7         5        27
        26         5        27         2         6         4         2         6        28
         2         6        29         4         6        28         4         6        29
        28         6        29         3         7         5         3         7        30
         3         7        31         5         7        30         5         7        31
        30         7        31         4         8        32         4         8        33
         4         8        34        32         8        33        32         8        34
        33         8        34         2         9        13         2         9        15
        13         9        15         2        10        14         2        10        16
        14        10        16         3        11        17         3        11        35
         3        11        36        17        11        35        17        11        36
        35        11        36         3        12        18         3        12        37
         3        12        38        18        12        37        18        12        38
        37        12        38         1        13         9         1        13        19
         9        13        19         1        14        10         1        14        20
        10        14        20         9        15        21         9        15        39
        21        15        39        10        16        22        10        16        40
        22        16        40        11        17        41        11        17        42
        11        17        43        41        17        42        41        17        43
        42        17        43        12        18        44        12        18        45
        12        18        46        44        18        45        44        18        46
        45        18        46        13        19        23        13        19        47
        23        19        47        14        20        24        14        20        48
        24        20        48        15        21        23        15        21        49
        23        21        49        16        22        24        16        22        50
        24        22        50        19        23        21        19        23        51
        21        23        51        20        24        22        20        24        52
        22        24        52

       138 !NPHI: dihedrals
         1        13         9         2         1        13         9        15
         1        13        19        23         1        13        19        47
         1        14        10         2         1        14        10        16
         1        14        20        24         1        14        20        48
         2         6         4         5         2         6         4         8
         2         6         4        25         2         9        13        19
         2         9        15        21         2         9        15        39
         2        10        14        20         2        10        16        22
         2        10        16        40         3         7         5         4
         3         7         5        26         3         7         5        27
         3        11        17        41         3        11        17        42
         3        11        17        43         3        12        18        44
         3        12        18        45         3        12        18        46
         4         5         7        30         4         5         7        31
         4         6         2         9         4         6         2        10
         5         4         6        28         5         4         6        29
         5         4         8        32         5         4         8        33
         5         4         8        34         5         7         3        11
         5         7         3        12         6         2         9        13
         6         2         9        15         6         2        10        14
         6         2        10        16         6         4         5         7
         6         4         5        26         6         4         5        27
         6         4         8        32         6         4         8        33
         6         4         8        34         7         3        11        17
         7         3        11        35         7         3        11        36
         7         3        12        18         7         3        12        37
         7         3        12        38         7         5         4         8
         7         5         4        25         8         4         5        26
         8         4         5        27         8         4         6        28
         8         4         6        29         9         2         6        28
         9         2         6        29         9         2        10        14
         9         2        10        16         9        13         1        14
         9        13        19        23         9        13        19        47
         9        15        21        23         9        15        21        49
        10         2         6        28        10         2         6        29
        10         2         9        13        10         2         9        15
        10        14         1        13        10        14        20        24
        10        14        20        48        10        16        22        24
        10        16        22        50        11         3         7        30
        11         3         7        31        11         3        12        18
        11         3        12        37        11         3        12        38
        12         3         7        30        12         3         7        31
        12         3        11        17        12         3        11        35
        12         3        11        36        13         1        14        20
        13         9        15        21        13         9        15        39
        13        19        23        21        13        19        23        51
        14         1        13        19        14        10        16        22
        14        10        16        40        14        20        24        22
        14        20        24        52        15         9        13        19
        15        21        23        19        15        21        23        51
        16        10        14        20        16        22        24        20
        16        22        24        52        19        23        21        49
        20        24        22        50        21        23        19        47
        22        24        20        48        23        21        15        39
        24        22        16        40        25         4         5        26
        25         4         5        27        25         4         6        28
        25         4         6        29        25         4         8        32
        25         4         8        33        25         4         8        34
        26         5         7        30        26         5         7        31
        27         5         7        30        27         5         7        31
        35        11        17        41        35        11        17        42
        35        11        17        43        36        11        17        41
        36        11        17        42        36        11        17        43
        37        12        18        44        37        12        18        45
        37        12        18        46        38        12        18        44
        38        12        18        45        38        12        18        46
        39        15        21        49        40        16        22        50
        47        19        23        51        48        20        24        52
        49        21        23        51        50        22        24        52

         0 !NIMPHI: impropers


         0 !NDON: donors


         0 !NACC: acceptors


         0 !NNB

         0         0         0         0         0         0         0         0
         0         0         0         0         0         0         0         0
         0         0         0         0         0         0         0         0
         0         0         0         0         0         0         0         0
         0         0         0         0         0         0         0         0
         0         0         0         0         0         0         0         0
         0         0         0         0

         1         0 !NGRP NST2
         0         1         0

         0         0 !NUMLP NUMLPH

         0 !NCRTERM: cross-terms

