* GENERATE LIGAND
*  DATE:     4/15/25     17:31:38      CREATED BY USER: charmm-gui
*
        52  EXT
         1         1  LIG       S              -3.1030000094       -1.7088570648        0.8617162725  LIG       1               0.0000000000
         2         1  LIG       N1             -0.9898720613        0.2690363996       -0.1594696067  LIG       1               0.0000000000
         3         1  LIG       N2              3.7333708147        0.7572089789       -0.1144426637  LIG       1               0.0000000000
         4         1  LIG       C1              0.9675966048        1.2333731027        1.1432471286  LIG       1               0.0000000000
         5         1  LIG       C2              2.1195221324        2.2662908359        1.0986603087  LIG       1               0.0000000000
         6         1  LIG       C3              0.1065094060        1.2684333519       -0.1396372933  LIG       1               0.0000000000
         7         1  LIG       C4              3.1195577947        2.1091969670       -0.0708975828  LIG       1               0.0000000000
         8         1  LIG       C5              0.0771075465        1.4629235551        2.3815147963  LIG       1               0.0000000000
         9         1  LIG       C6             -0.6496432589       -1.1449822704       -0.2496346114  LIG       1               0.0000000000
        10         1  LIG       C7             -2.3804790846        0.6785931718       -0.3100353002  LIG       1               0.0000000000
        11         1  LIG       C8              4.5579585031        0.5568074483       -1.3192509410  LIG       1               0.0000000000
        12         1  LIG       C9              4.4509289904        0.3991684232        1.1241794629  LIG       1               0.0000000000
        13         1  LIG       C10            -1.5445863037       -2.1559625946        0.1977391562  LIG       1               0.0000000000
        14         1  LIG       C11            -3.4461115420       -0.1473899327        0.1456762466  LIG       1               0.0000000000
        15         1  LIG       C12             0.6338068601       -1.5575283539       -0.6793571580  LIG       1               0.0000000000
        16         1  LIG       C13            -2.7189478730        1.9543085135       -0.8176228241  LIG       1               0.0000000000
        17         1  LIG       C14             3.8440340538        0.7894798409       -2.6523968135  LIG       1               0.0000000000
        18         1  LIG       C15             5.0334600885       -1.0161705776        1.1714892019  LIG       1               0.0000000000
        19         1  LIG       C16            -1.1711176916       -3.5068804503        0.1932758072  LIG       1               0.0000000000
        20         1  LIG       C17            -4.7760910254        0.2906572335        0.0889384440  LIG       1               0.0000000000
        21         1  LIG       C18             1.0174064879       -2.9029286476       -0.6448833460  LIG       1               0.0000000000
        22         1  LIG       C19            -4.0435788085        2.4088777293       -0.8229506817  LIG       1               0.0000000000
        23         1  LIG       C20             0.1132561648       -3.8783997889       -0.2200350235  LIG       1               0.0000000000
        24         1  LIG       C21            -5.0717875504        1.5749722388       -0.3792424760  LIG       1               0.0000000000
        25         1  LIG       H1              1.4237384457        0.2207748618        1.2368429613  LIG       1               0.0000000000
        26         1  LIG       H2              2.6622709060        2.2419749053        2.0652861762  LIG       1               0.0000000000
        27         1  LIG       H3              1.6692597655        3.2802605250        1.0216120971  LIG       1               0.0000000000
        28         1  LIG       H4             -0.2570636404        2.3144010162       -0.2044914822  LIG       1               0.0000000000
        29         1  LIG       H5              0.7366420460        1.1221628305       -1.0420439531  LIG       1               0.0000000000
        30         1  LIG       H6              2.5583344767        2.3175120986       -1.0066715078  LIG       1               0.0000000000
        31         1  LIG       H7              3.9195398001        2.8755580994        0.0152789255  LIG       1               0.0000000000
        32         1  LIG       H8             -0.4552452203        2.4335676108        2.2954571194  LIG       1               0.0000000000
        33         1  LIG       H9              0.6860523544        1.4659205383        3.3084761913  LIG       1               0.0000000000
        34         1  LIG       H10            -0.6846745471        0.6571909652        2.4632636893  LIG       1               0.0000000000
        35         1  LIG       H11             4.9256236167       -0.4950249552       -1.3444563414  LIG       1               0.0000000000
        36         1  LIG       H12             5.4539510341        1.2160464500       -1.2565509800  LIG       1               0.0000000000
        37         1  LIG       H13             3.7482791662        0.4645117973        1.9850570872  LIG       1               0.0000000000
        38         1  LIG       H14             5.2631438547        1.1411384081        1.3005611804  LIG       1               0.0000000000
        39         1  LIG       H15             1.3816896245       -0.8451819303       -0.9884374343  LIG       1               0.0000000000
        40         1  LIG       H16            -1.9697649491        2.6292442209       -1.1935595893  LIG       1               0.0000000000
        41         1  LIG       H17             3.7059341678        1.8746379142       -2.8403976345  LIG       1               0.0000000000
        42         1  LIG       H18             2.8468852065        0.2981654137       -2.6392621841  LIG       1               0.0000000000
        43         1  LIG       H19             4.4363994014        0.3636973644       -3.4883713875  LIG       1               0.0000000000
        44         1  LIG       H20             5.9467959341       -1.0868317518        0.5448907717  LIG       1               0.0000000000
        45         1  LIG       H21             4.2831560834       -1.7453064231        0.7949692680  LIG       1               0.0000000000
        46         1  LIG       H22             5.3010739555       -1.2901643187        2.2127914119  LIG       1               0.0000000000
        47         1  LIG       H23            -1.8597521808       -4.2631111634        0.5419488006  LIG       1               0.0000000000
        48         1  LIG       H24            -5.5746033288       -0.3490951678        0.4367702187  LIG       1               0.0000000000
        49         1  LIG       H25             2.0206986669       -3.1827063678       -0.9388159651  LIG       1               0.0000000000
        50         1  LIG       H26            -4.2704392343        3.4078057294       -1.1714507890  LIG       1               0.0000000000
        51         1  LIG       H27             0.4139519364       -4.9155254230       -0.1922169033  LIG       1               0.0000000000
        52         1  LIG       H28            -6.0937156394        1.9257574681       -0.3920865696  LIG       1               0.0000000000
