* GENERATED BY CHARMM-GUI (HTTP://WWW.CHARMM-GUI.ORG)
*
        24  EXT
         1         1  LIG       S              -3.1689000000       -1.7829000000        0.7706000000  LIG       1               0.0000000000
         2         1  LIG       N1             -1.0073000000        0.2367000000       -0.1850000000  LIG       1               0.0000000000
         3         1  LIG       N2              3.6906000000        0.6925000000       -0.1252000000  LIG       1               0.0000000000
         4         1  LIG       C1              0.9154000000        1.2078000000        1.0647000000  LIG       1               0.0000000000
         5         1  LIG       C2              2.1075000000        2.1903000000        1.0548000000  LIG       1               0.0000000000
         6         1  LIG       C3              0.0589000000        1.2464000000       -0.2111000000  LIG       1               0.0000000000
         7         1  LIG       C4              3.0910000000        2.0209000000       -0.1068000000  LIG       1               0.0000000000
         8         1  LIG       C5              0.0556000000        1.4513000000        2.3114000000  LIG       1               0.0000000000
         9         1  LIG       C6             -0.6156000000       -1.1261000000       -0.1786000000  LIG       1               0.0000000000
        10         1  LIG       C7             -2.3464000000        0.6998000000       -0.2351000000  LIG       1               0.0000000000
        11         1  LIG       C8              4.5791000000        0.5432000000       -1.2794000000  LIG       1               0.0000000000
        12         1  LIG       C9              4.4252000000        0.4407000000        1.1160000000  LIG       1               0.0000000000
        13         1  LIG       C10            -1.5148000000       -2.1382000000        0.2119000000  LIG       1               0.0000000000
        14         1  LIG       C11            -3.4171000000       -0.1315000000        0.1495000000  LIG       1               0.0000000000
        15         1  LIG       C12             0.6702000000       -1.5366000000       -0.5936000000  LIG       1               0.0000000000
        16         1  LIG       C13            -2.6740000000        1.9915000000       -0.7022000000  LIG       1               0.0000000000
        17         1  LIG       C14             3.8373000000        0.8003000000       -2.5801000000  LIG       1               0.0000000000
        18         1  LIG       C15             4.9996000000       -0.9656000000        1.1384000000  LIG       1               0.0000000000
        19         1  LIG       C16            -1.1236000000       -3.4889000000        0.2093000000  LIG       1               0.0000000000
        20         1  LIG       C17            -4.7441000000        0.3301000000        0.0905000000  LIG       1               0.0000000000
        21         1  LIG       C18             1.0522000000       -2.8809000000       -0.5991000000  LIG       1               0.0000000000
        22         1  LIG       C19            -3.9951000000        2.4436000000       -0.7634000000  LIG       1               0.0000000000
        23         1  LIG       C20             0.1554000000       -3.8578000000       -0.1940000000  LIG       1               0.0000000000
        24         1  LIG       C21            -5.0309000000        1.6131000000       -0.3636000000  LIG       1               0.0000000000
