* GENERATED BY CHARMM-GUI (HTTP://WWW.CHARMM-GUI.ORG) V3.7 ON OCT, 21. 2024. JOB
* GENERATES ION CONFORMATION USING MONTE-CARLO SIMULATION
*  DATE:    10/21/24     14: 0:55      CREATED BY USER: apache
*
     11160  EXT
         1         1  OSM       N               1.2362304694        0.0229142269       21.3982001891  MEMB      1               0.0000000000
         2         1  OSM       C15             1.3963210036        0.4799647440       19.9448083023  MEMB      1               0.0000000000
         3         1  OSM       H15A            2.3058857612        0.0714504358       19.5298288469  MEMB      1               0.0000000000
         4         1  OSM       H15B            1.3598024274        1.5586706498       19.9830171574  MEMB      1               0.0000000000
         5         1  OSM       H15C            0.5372773475        0.1881141902       19.3589178010  MEMB      1               0.0000000000
         6         1  OSM       C14            -0.0304874392        0.7681880441       21.9204133262  MEMB      1               0.0000000000
         7         1  OSM       H14A            0.1191187157        1.8290856108       21.7843460329  MEMB      1               0.0000000000
         8         1  OSM       H14B           -0.1372361045        0.4859885046       22.9574128785  MEMB      1               0.0000000000
         9         1  OSM       H14C           -0.8918568987        0.3994341416       21.3833258650  MEMB      1               0.0000000000
        10         1  OSM       C13             0.9676488324       -1.4745425561       21.5617589502  MEMB      1               0.0000000000
        11         1  OSM       H13A            1.7591165833       -1.9284421671       20.9838715324  MEMB      1               0.0000000000
        12         1  OSM       H13B            0.0221932361       -1.6677207617       21.0767889617  MEMB      1               0.0000000000
        13         1  OSM       H13C            1.0879112067       -1.7464686543       22.6000234871  MEMB      1               0.0000000000
        14         1  OSM       C12             2.4438056037        0.3982308126       22.2191340960  MEMB      1               0.0000000000
        15         1  OSM       H12A            3.2927889766       -0.1453092465       21.8315886429  MEMB      1               0.0000000000
        16         1  OSM       H12B            2.3170157730        0.0423600726       23.2309049962  MEMB      1               0.0000000000
        17         1  OSM       C11             2.9484824388        1.8743454354       22.1777290440  MEMB      1               0.0000000000
        18         1  OSM       H11A            3.7411334251        1.9874403699       22.9479465457  MEMB      1               0.0000000000
        19         1  OSM       H11B            2.1726479783        2.5627563563       22.5758399526  MEMB      1               0.0000000000
        20         1  OSM       P               4.7915914552        1.8410141357       20.3963386442  MEMB      1               0.0000000000
        21         1  OSM       O13             5.8768394843        2.3685832426       21.2150114856  MEMB      1               0.0000000000
        22         1  OSM       O14             4.8655240164        0.3809931896       20.2292461991  MEMB      1               0.0000000000
        23         1  OSM       O11             4.8656670839        2.5386076712       19.0041626327  MEMB      1               0.0000000000
        24         1  OSM       O12             3.3526739440        2.2781609896       20.9331971303  MEMB      1               0.0000000000
        25         1  OSM       C1S             3.7642434132        3.3137393582       18.5451048252  MEMB      1               0.0000000000
        26         1  OSM       H1S             3.8093603149        4.3089114258       19.0369563044  MEMB      1               0.0000000000
        27         1  OSM       H1T             2.7837290449        2.8305306985       18.7436542127  MEMB      1               0.0000000000
        28         1  OSM       NF              3.6816135268        2.3485051745       16.3652431648  MEMB      1               0.0000000000
        29         1  OSM       HNF             4.5075330681        1.8284964514       16.1616333897  MEMB      1               0.0000000000
        30         1  OSM       C2S             3.8783710127        3.6151258998       16.9964799154  MEMB      1               0.0000000000
        31         1  OSM       H2S             3.0919580614        4.3330785654       16.6795889868  MEMB      1               0.0000000000
        32         1  OSM       C3S             5.2326036642        4.1382462613       16.6610352151  MEMB      1               0.0000000000
        33         1  OSM       H3S             6.0127636299        3.5437619957       17.1828201110  MEMB      1               0.0000000000
        34         1  OSM       O3              5.4487541847        5.4260354713       17.2867997164  MEMB      1               0.0000000000
        35         1  OSM       HO3             4.6382131746        5.6150475056       17.7652319796  MEMB      1               0.0000000000
        36         1  OSM       C4S             5.3978216092        4.1751561601       15.2107667848  MEMB      1               0.0000000000
        37         1  OSM       H4S             5.9045847337        3.3418175600       14.7021035832  MEMB      1               0.0000000000
        38         1  OSM       C5S             4.9187207292        5.1850337045       14.4392167480  MEMB      1               0.0000000000
        39         1  OSM       H5S             4.2948467232        5.9755278389       14.8818234435  MEMB      1               0.0000000000
        40         1  OSM       C6S             5.1166307740        5.2091855073       12.8954161416  MEMB      1               0.0000000000
        41         1  OSM       H6S             6.0962514838        5.7083391575       12.7356977159  MEMB      1               0.0000000000
        42         1  OSM       H6T             4.2361006982        5.7650019328       12.5080457346  MEMB      1               0.0000000000
        43         1  OSM       C7S             5.2190440739        3.8680827326       12.1101066133  MEMB      1               0.0000000000
        44         1  OSM       H7S             4.8173579334        4.1214209048       11.1057220794  MEMB      1               0.0000000000
        45         1  OSM       H7T             4.7170523106        3.0838088539       12.7161100987  MEMB      1               0.0000000000
        46         1  OSM       C8S             6.6623219397        3.4446107106       11.9545934419  MEMB      1               0.0000000000
        47         1  OSM       H8S             7.1307528253        3.3086371047       12.9527938669  MEMB      1               0.0000000000
        48         1  OSM       H8T             7.3159619438        4.2212111270       11.5029661636  MEMB      1               0.0000000000
        49         1  OSM       C9S             6.8752086880        2.1883325467       11.0722747138  MEMB      1               0.0000000000
        50         1  OSM       H9S             6.3611603592        1.3089168641       11.5157869939  MEMB      1               0.0000000000
        51         1  OSM       H9T             7.9397732373        1.9269557225       11.2531218320  MEMB      1               0.0000000000
        52         1  OSM       C10S            6.6154843134        2.4308877225        9.6211129063  MEMB      1               0.0000000000
        53         1  OSM       H10S            7.3142838204        3.2352101781        9.3063647167  MEMB      1               0.0000000000
        54         1  OSM       H10T            5.5244104924        2.6081732396        9.5095384577  MEMB      1               0.0000000000
        55         1  OSM       C11S            6.7973140457        1.1377868226        8.8333185760  MEMB      1               0.0000000000
        56         1  OSM       H11S            6.2551453148        0.3881335945        9.4484562203  MEMB      1               0.0000000000
        57         1  OSM       H11T            7.8615545933        0.8188626669        8.8324896855  MEMB      1               0.0000000000
        58         1  OSM       C12S            6.2480590374        1.2531704014        7.3773020847  MEMB      1               0.0000000000
        59         1  OSM       H12S            7.0050749174        1.7729862158        6.7519709133  MEMB      1               0.0000000000
        60         1  OSM       H12T            5.3123533405        1.8520679173        7.3871741241  MEMB      1               0.0000000000
        61         1  OSM       C13S            5.9985222673       -0.2149169412        6.8440212891  MEMB      1               0.0000000000
        62         1  OSM       H13S            5.6260542517       -0.8388777668        7.6844147558  MEMB      1               0.0000000000
        63         1  OSM       H13T            7.0162967964       -0.5926188253        6.6078057807  MEMB      1               0.0000000000
        64         1  OSM       C14S            4.9988901528       -0.2553316664        5.6731243199  MEMB      1               0.0000000000
        65         1  OSM       H14S            5.3353704311        0.3296388082        4.7905639699  MEMB      1               0.0000000000
        66         1  OSM       H14T            4.0327695310        0.2270095038        5.9344265743  MEMB      1               0.0000000000
        67         1  OSM       C15S            4.7167878882       -1.6680031527        5.1983143824  MEMB      1               0.0000000000
        68         1  OSM       H15S            4.0659422122       -2.2045643350        5.9213793688  MEMB      1               0.0000000000
        69         1  OSM       H15T            5.6455386760       -2.2662265822        5.3160941472  MEMB      1               0.0000000000
        70         1  OSM       C16S            4.2614756226       -1.8103598389        3.7604300799  MEMB      1               0.0000000000
        71         1  OSM       H16S            3.6969471898       -2.7474127103        3.5666244495  MEMB      1               0.0000000000
        72         1  OSM       H16T            5.2172925460       -1.7146801087        3.2022346360  MEMB      1               0.0000000000
        73         1  OSM       C17S            3.3653992230       -0.6337325822        3.3641910821  MEMB      1               0.0000000000
        74         1  OSM       H17S            4.0187570307        0.2638770883        3.4059225234  MEMB      1               0.0000000000
        75         1  OSM       H17T            2.5051462270       -0.5106383857        4.0563851610  MEMB      1               0.0000000000
        76         1  OSM       C18S            3.0207200734       -0.7446219420        1.8874828976  MEMB      1               0.0000000000
        77         1  OSM       H18S            2.4481982757       -1.6798050751        1.7086739700  MEMB      1               0.0000000000
        78         1  OSM       H18T            3.9376480795       -0.7275513399        1.2603683465  MEMB      1               0.0000000000
        79         1  OSM       H18U            2.3623611753        0.0866840154        1.5560996601  MEMB      1               0.0000000000
        80         1  OSM       C1F             2.4652143034        1.7583497653       16.2581955036  MEMB      1               0.0000000000
        81         1  OSM       OF              1.4575976543        2.4968720134       16.4073013838  MEMB      1               0.0000000000
        82         1  OSM       C2F             2.4308597369        0.2972574556       16.0244739771  MEMB      1               0.0000000000
        83         1  OSM       H2F             1.7601921383       -0.1669757002       16.7788040385  MEMB      1               0.0000000000
        84         1  OSM       H2G             3.4418562562       -0.1516255578       16.1279682579  MEMB      1               0.0000000000
        85         1  OSM       C3F             1.8027008182       -0.0517590295       14.7143839359  MEMB      1               0.0000000000
        86         1  OSM       H3F             0.7017419178        0.0946358805       14.6864689932  MEMB      1               0.0000000000
        87         1  OSM       H3G             1.8140579094       -1.1583226146       14.6158501956  MEMB      1               0.0000000000
        88         1  OSM       C4F             2.6210424057        0.5154697281       13.5211049832  MEMB      1               0.0000000000
        89         1  OSM       H4F             3.6121085100        0.1447814122       13.8597780323  MEMB      1               0.0000000000
        90         1  OSM       H4G             2.5082781243        1.6207306335       13.5192430213  MEMB      1               0.0000000000
        91         1  OSM       C5F             2.1866868529       -0.2339989816       12.2708839000  MEMB      1               0.0000000000
        92         1  OSM       H5F             1.2212802487        0.1560386714       11.8833512042  MEMB      1               0.0000000000
        93         1  OSM       H5G             2.0316458893       -1.2954724846       12.5599462369  MEMB      1               0.0000000000
        94         1  OSM       C6F             3.1005546431       -0.0255200963       11.0949006250  MEMB      1               0.0000000000
        95         1  OSM       H6F             4.1418378846       -0.2162280741       11.4320658925  MEMB      1               0.0000000000
        96         1  OSM       H6G             3.0048446245        1.0478409255       10.8246097290  MEMB      1               0.0000000000
        97         1  OSM       C7F             2.8137780866       -0.9639568585        9.8985592529  MEMB      1               0.0000000000
        98         1  OSM       H7F             2.9241131116       -2.0091617197       10.2586892249  MEMB      1               0.0000000000
        99         1  OSM       H7G             3.5486619283       -0.8559422415        9.0723629968  MEMB      1               0.0000000000
       100         1  OSM       C8F             1.4876475228       -0.7815878205        9.1691426461  MEMB      1               0.0000000000
       101         1  OSM       H8F             1.2121965892        0.2932781776        9.1133668827  MEMB      1               0.0000000000
       102         1  OSM       H8G             0.6479403031       -1.1570746233        9.7922178840  MEMB      1               0.0000000000
       103         1  OSM       C9F             1.3670443180       -1.7195774595        8.0339082906  MEMB      1               0.0000000000
       104         1  OSM       H9F             2.2924514542       -2.3076239393        7.9454611445  MEMB      1               0.0000000000
       105         1  OSM       C10F            0.3362800968       -1.9103621249        7.1526827301  MEMB      1               0.0000000000
       106         1  OSM       H10F            0.5760925098       -2.5181542433        6.2677651070  MEMB      1               0.0000000000
       107         1  OSM       C11F           -1.0174454865       -1.3108818777        7.0676510525  MEMB      1               0.0000000000
       108         1  OSM       H11F           -1.2853992302       -0.6521880162        7.9212576700  MEMB      1               0.0000000000
       109         1  OSM       H11G           -1.7414044226       -2.1483322429        7.1618913957  MEMB      1               0.0000000000
       110         1  OSM       C12F           -1.1524135448       -0.5706206616        5.7462945823  MEMB      1               0.0000000000
       111         1  OSM       H12F           -2.1768696675       -0.1461130365        5.8141483653  MEMB      1               0.0000000000
       112         1  OSM       H12G           -1.0481580887       -1.1996997577        4.8365073886  MEMB      1               0.0000000000
       113         1  OSM       C13F           -0.2263625442        0.6721777393        5.6082755514  MEMB      1               0.0000000000
       114         1  OSM       H13F            0.7684965731        0.3446370701        5.2377442486  MEMB      1               0.0000000000
       115         1  OSM       H13G           -0.1300978343        1.2615685492        6.5451169971  MEMB      1               0.0000000000
       116         1  OSM       C14F           -0.8527865865        1.6387072293        4.5802115393  MEMB      1               0.0000000000
       117         1  OSM       H14F           -1.7707183164        2.1064919589        4.9960238208  MEMB      1               0.0000000000
       118         1  OSM       H14G           -1.1031723839        1.2178139545        3.5829758951  MEMB      1               0.0000000000
       119         1  OSM       C15F            0.1149453980        2.8429840012        4.4078489570  MEMB      1               0.0000000000
       120         1  OSM       H15F            1.1953198743        2.5977629049        4.4913877952  MEMB      1               0.0000000000
       121         1  OSM       H15G           -0.1128974274        3.4463969445        5.3124481415  MEMB      1               0.0000000000
       122         1  OSM       C16F           -0.1831916606        3.6552343196        3.2043059940  MEMB      1               0.0000000000
       123         1  OSM       H16F           -1.1502231312        4.1821700433        3.3509678125  MEMB      1               0.0000000000
       124         1  OSM       H16G           -0.3435284263        3.1307927583        2.2380901764  MEMB      1               0.0000000000
       125         1  OSM       C17F            0.9514241167        4.6128061539        2.8664436371  MEMB      1               0.0000000000
       126         1  OSM       H17F            1.2588910782        5.2876973594        3.6936709691  MEMB      1               0.0000000000
       127         1  OSM       H17G            0.5576912408        5.2588201540        2.0528326063  MEMB      1               0.0000000000
       128         1  OSM       C18F            2.2129717831        3.9875624646        2.2356299979  MEMB      1               0.0000000000
       129         1  OSM       H18F            2.7053057924        3.3422430709        2.9942409119  MEMB      1               0.0000000000
       130         1  OSM       H18G            2.8463523134        4.8276555320        1.8787066571  MEMB      1               0.0000000000
       131         1  OSM       H18H            1.9988117393        3.3507073527        1.3508289123  MEMB      1               0.0000000000
       132         2  SAPS      N              -0.1666130280       -3.3680294338       21.9721376349  MEMB      2               0.0000000000
       133         2  SAPS      HN1            -1.0753954566       -2.8882353107       22.1318627441  MEMB      2               0.0000000000
       134         2  SAPS      HN2             0.3610240703       -3.6602208654       22.8193821557  MEMB      2               0.0000000000
       135         2  SAPS      HN3             0.4480697980       -2.7103487380       21.4513485502  MEMB      2               0.0000000000
       136         2  SAPS      C12            -0.3876690070       -4.5492702798       21.2204727555  MEMB      2               0.0000000000
       137         2  SAPS      H12A            0.6451473702       -4.8166866040       21.0526068140  MEMB      2               0.0000000000
       138         2  SAPS      C13            -1.0990286222       -5.6454152629       22.0588105582  MEMB      2               0.0000000000
       139         2  SAPS      O13A           -1.5851784974       -5.3761406323       23.2149835239  MEMB      2               0.0000000000
       140         2  SAPS      O13B           -1.0334686462       -6.8368079166       21.4990910350  MEMB      2               0.0000000000
       141         2  SAPS      C11            -1.1560969838       -4.3861344382       19.8857602618  MEMB      2               0.0000000000
       142         2  SAPS      H11A           -0.5849746058       -3.5922072527       19.3586738876  MEMB      2               0.0000000000
       143         2  SAPS      H11B           -2.1930588353       -4.1830299790       20.2289505616  MEMB      2               0.0000000000
       144         2  SAPS      P              -2.1084093048       -5.8222905018       18.0082842959  MEMB      2               0.0000000000
       145         2  SAPS      O13            -3.4391125755       -6.1486954345       18.6357041405  MEMB      2               0.0000000000
       146         2  SAPS      O14            -2.0905164659       -4.7170886179       17.0482038811  MEMB      2               0.0000000000
       147         2  SAPS      O12            -1.0149931763       -5.6069291847       19.1181082730  MEMB      2               0.0000000000
       148         2  SAPS      O11            -1.7179550738       -7.1591244560       17.3384436774  MEMB      2               0.0000000000
       149         2  SAPS      C1             -0.9708705853       -8.0837405099       18.0221747753  MEMB      2               0.0000000000
       150         2  SAPS      HA              0.0160224790       -7.7078692562       18.3672602235  MEMB      2               0.0000000000
       151         2  SAPS      HB             -1.6179326602       -8.4017352800       18.8674623572  MEMB      2               0.0000000000
       152         2  SAPS      C2             -0.8694497965       -9.4059892600       17.1635394641  MEMB      2               0.0000000000
       153         2  SAPS      HS             -0.4502480055      -10.0927419370       17.9296736735  MEMB      2               0.0000000000
       154         2  SAPS      O21            -0.1814093361       -9.2518727317       15.9431104040  MEMB      2               0.0000000000
       155         2  SAPS      C21             1.1119629125       -9.0386024060       16.0353913303  MEMB      2               0.0000000000
       156         2  SAPS      O22             1.7472417109       -8.9825125097       17.0195042706  MEMB      2               0.0000000000
       157         2  SAPS      C22             1.7990128669       -8.8983471138       14.6511856589  MEMB      2               0.0000000000
       158         2  SAPS      H2R             1.8729624387       -9.8433283569       14.0716484680  MEMB      2               0.0000000000
       159         2  SAPS      H2S             1.0223094992       -8.3303666663       14.0958022022  MEMB      2               0.0000000000
       160         2  SAPS      C3             -2.3003020909       -9.9805339109       16.9473708468  MEMB      2               0.0000000000
       161         2  SAPS      HX             -2.9035913725       -9.7805736744       17.8586221517  MEMB      2               0.0000000000
       162         2  SAPS      HY             -2.1193471502      -11.0259117110       16.6175808159  MEMB      2               0.0000000000
       163         2  SAPS      O31            -2.9399994659       -9.1987933004       15.9323409837  MEMB      2               0.0000000000
       164         2  SAPS      C31            -2.9457039648       -9.7086741804       14.6615038455  MEMB      2               0.0000000000
       165         2  SAPS      O32            -2.4763677232      -10.7465776919       14.2952276779  MEMB      2               0.0000000000
       166         2  SAPS      C32            -3.4613965782       -8.5650251902       13.8318024207  MEMB      2               0.0000000000
       167         2  SAPS      H2X            -3.9715703711       -7.8284108610       14.4886461426  MEMB      2               0.0000000000
       168         2  SAPS      H2Y            -4.1440962113       -9.0379784282       13.0938611649  MEMB      2               0.0000000000
       169         2  SAPS      C23             3.1758671285       -8.3088660913       14.9146632286  MEMB      2               0.0000000000
       170         2  SAPS      H3R             3.8096134830       -8.8495046093       15.6497796065  MEMB      2               0.0000000000
       171         2  SAPS      H3S             3.1720446207       -7.2802844747       15.3345758672  MEMB      2               0.0000000000
       172         2  SAPS      C24             3.8444226547       -8.1302474869       13.5526354237  MEMB      2               0.0000000000
       173         2  SAPS      H4R             3.9836118301       -9.1887477515       13.2451863336  MEMB      2               0.0000000000
       174         2  SAPS      H4S             4.8848546277       -7.7783641673       13.7199693786  MEMB      2               0.0000000000
       175         2  SAPS      C25             3.2282513485       -7.2272465848       12.5431404297  MEMB      2               0.0000000000
       176         2  SAPS      H5R             2.9263073175       -6.2187950915       12.8622883379  MEMB      2               0.0000000000
       177         2  SAPS      C26             3.0127158891       -7.5864738506       11.2216639656  MEMB      2               0.0000000000
       178         2  SAPS      H6R             2.7998761841       -6.8239566511       10.4579445604  MEMB      2               0.0000000000
       179         2  SAPS      C27             3.3324543918       -8.8733702680       10.6201123580  MEMB      2               0.0000000000
       180         2  SAPS      H7R             4.3258821634       -9.1738701395       11.0164984212  MEMB      2               0.0000000000
       181         2  SAPS      H7S             3.5923901076       -8.8479407715        9.5402480476  MEMB      2               0.0000000000
       182         2  SAPS      C28             2.3815638616      -10.0223276882       10.8160159404  MEMB      2               0.0000000000
       183         2  SAPS      H8R             2.4184209660      -10.4268281418       11.8382782128  MEMB      2               0.0000000000
       184         2  SAPS      C29             1.5009662758      -10.6076311784        9.9611470413  MEMB      2               0.0000000000
       185         2  SAPS      H9R             0.9054180379      -11.4697329349       10.2959645001  MEMB      2               0.0000000000
       186         2  SAPS      C210            1.2529003335      -10.2086774536        8.5347321713  MEMB      2               0.0000000000
       187         2  SAPS      H10R            1.7709211957      -10.9357837639        7.8734517523  MEMB      2               0.0000000000
       188         2  SAPS      H10S            1.6744735375       -9.2174260915        8.2626702021  MEMB      2               0.0000000000
       189         2  SAPS      C211           -0.1586651225      -10.2840487532        8.0867993587  MEMB      2               0.0000000000
       190         2  SAPS      H11R           -0.8151564196      -10.9539438703        8.6614825592  MEMB      2               0.0000000000
       191         2  SAPS      C212           -0.7286354112       -9.6229129063        7.1075658615  MEMB      2               0.0000000000
       192         2  SAPS      H12R           -1.8098085109       -9.7155254000        6.9273225927  MEMB      2               0.0000000000
       193         2  SAPS      C213           -0.1001406239       -8.6038949939        6.1599043044  MEMB      2               0.0000000000
       194         2  SAPS      H13R            0.2052784041       -7.6801277751        6.6962758770  MEMB      2               0.0000000000
       195         2  SAPS      H13S           -0.9421328594       -8.3151715918        5.4950668506  MEMB      2               0.0000000000
       196         2  SAPS      C214            1.1425848227       -8.9904231371        5.3652632244  MEMB      2               0.0000000000
       197         2  SAPS      H14R            2.1305521491       -8.5557514411        5.5773504788  MEMB      2               0.0000000000
       198         2  SAPS      C215            1.0732660580       -9.8231310198        4.2786041143  MEMB      2               0.0000000000
       199         2  SAPS      H15R            2.0443895904      -10.2167217127        3.9439310538  MEMB      2               0.0000000000
       200         2  SAPS      C216           -0.1895955603      -10.4142724510        3.5717822892  MEMB      2               0.0000000000
       201         2  SAPS      H16R           -1.1456721525      -10.4360797971        4.1372597097  MEMB      2               0.0000000000
       202         2  SAPS      H16S            0.0130363016      -11.4958780991        3.4188439915  MEMB      2               0.0000000000
       203         2  SAPS      C217           -0.6206449398       -9.9971290356        2.1110249366  MEMB      2               0.0000000000
       204         2  SAPS      H17R           -1.6130111750      -10.4111101988        1.8314716413  MEMB      2               0.0000000000
       205         2  SAPS      H17S            0.1833670670      -10.0933258595        1.3503464185  MEMB      2               0.0000000000
       206         2  SAPS      C218           -0.9084862260       -8.5310569044        2.1732082482  MEMB      2               0.0000000000
       207         2  SAPS      H18R            0.0223735320       -7.9545847615        2.3616261176  MEMB      2               0.0000000000
       208         2  SAPS      H18S           -1.6231675318       -8.5175279675        3.0237194535  MEMB      2               0.0000000000
       209         2  SAPS      C219           -1.4040956008       -7.8888976468        0.8714725452  MEMB      2               0.0000000000
       210         2  SAPS      H19R           -0.6816656290       -8.0013264128        0.0349465596  MEMB      2               0.0000000000
       211         2  SAPS      H19S           -1.5745728825       -6.7910894379        0.8801378240  MEMB      2               0.0000000000
       212         2  SAPS      C220           -2.7593706758       -8.4586617516        0.3778056768  MEMB      2               0.0000000000
       213         2  SAPS      H20R           -2.5746450649       -9.3996637183       -0.1831876295  MEMB      2               0.0000000000
       214         2  SAPS      H20S           -3.1689738501       -7.6863922613       -0.3078671274  MEMB      2               0.0000000000
       215         2  SAPS      H20T           -3.4656816750       -8.5703936495        1.2280771196  MEMB      2               0.0000000000
       216         2  SAPS      C33            -2.3403745806       -7.8537018265       13.1729185701  MEMB      2               0.0000000000
       217         2  SAPS      H3X            -1.4283557092       -7.7916863551       13.8043429033  MEMB      2               0.0000000000
       218         2  SAPS      H3Y            -2.5608144884       -6.8164867172       12.8413886023  MEMB      2               0.0000000000
       219         2  SAPS      C34            -1.8703562808       -8.6285034141       11.8479694720  MEMB      2               0.0000000000
       220         2  SAPS      H4X            -2.7197086610       -8.7621053615       11.1443557660  MEMB      2               0.0000000000
       221         2  SAPS      H4Y            -1.3571446509       -9.5841111914       12.0882788950  MEMB      2               0.0000000000
       222         2  SAPS      C35            -0.7873338341       -7.7029314453       11.1497246177  MEMB      2               0.0000000000
       223         2  SAPS      H5X            -0.3546971886       -8.3996131065       10.4002048708  MEMB      2               0.0000000000
       224         2  SAPS      H5Y            -0.0604836711       -7.3958232444       11.9318338004  MEMB      2               0.0000000000
       225         2  SAPS      C36            -1.3947041695       -6.4726204066       10.4328245219  MEMB      2               0.0000000000
       226         2  SAPS      H6X            -1.7755329929       -5.7883536039       11.2209040857  MEMB      2               0.0000000000
       227         2  SAPS      H6Y            -2.3501470085       -6.7863512651        9.9605713011  MEMB      2               0.0000000000
       228         2  SAPS      C37            -0.5267136028       -5.6531538889        9.5387755898  MEMB      2               0.0000000000
       229         2  SAPS      H7X            -0.1577657953       -6.3108129661        8.7228815205  MEMB      2               0.0000000000
       230         2  SAPS      H7Y             0.3500147614       -5.4296492957       10.1835345013  MEMB      2               0.0000000000
       231         2  SAPS      C38            -1.3428632845       -4.5248196870        9.0620253301  MEMB      2               0.0000000000
       232         2  SAPS      H8X            -1.6185856201       -4.0622688761       10.0337996400  MEMB      2               0.0000000000
       233         2  SAPS      H8Y            -2.2026077478       -4.9212847284        8.4806687485  MEMB      2               0.0000000000
       234         2  SAPS      C39            -0.6903213241       -3.6187233998        8.0860149371  MEMB      2               0.0000000000
       235         2  SAPS      H9X             0.1117493027       -3.1606895398        8.7034358430  MEMB      2               0.0000000000
       236         2  SAPS      H9Y            -1.2199964924       -2.7019588816        7.7494027400  MEMB      2               0.0000000000
       237         2  SAPS      C310           -0.0332805450       -4.2619138545        6.8122091828  MEMB      2               0.0000000000
       238         2  SAPS      H10X           -0.8618611222       -4.7507823892        6.2565271689  MEMB      2               0.0000000000
       239         2  SAPS      H10Y            0.7822723627       -4.9390909306        7.1448133067  MEMB      2               0.0000000000
       240         2  SAPS      C311            0.5789896470       -3.2408423670        5.8441957455  MEMB      2               0.0000000000
       241         2  SAPS      H11X            1.3919276286       -2.6619424022        6.3323841623  MEMB      2               0.0000000000
       242         2  SAPS      H11Y           -0.3087903935       -2.5793747623        5.7513063121  MEMB      2               0.0000000000
       243         2  SAPS      C312            0.9303211813       -3.7140077448        4.4372808150  MEMB      2               0.0000000000
       244         2  SAPS      H12X            1.4113928561       -2.9422865094        3.7990507678  MEMB      2               0.0000000000
       245         2  SAPS      H12Y            0.0400077077       -4.0430722297        3.8598906819  MEMB      2               0.0000000000
       246         2  SAPS      C313            1.9633221460       -4.8768393285        4.3740115914  MEMB      2               0.0000000000
       247         2  SAPS      H13X            1.6996979679       -5.7647231991        4.9875952181  MEMB      2               0.0000000000
       248         2  SAPS      H13Y            2.9693647546       -4.4965793521        4.6525821858  MEMB      2               0.0000000000
       249         2  SAPS      C314            2.2989652475       -5.2701381899        2.8732937053  MEMB      2               0.0000000000
       250         2  SAPS      H14X            2.9219708118       -4.4424786221        2.4718408255  MEMB      2               0.0000000000
       251         2  SAPS      H14Y            1.3191616451       -5.2343755034        2.3507739915  MEMB      2               0.0000000000
       252         2  SAPS      C315            2.9617686703       -6.6421643922        2.7107719561  MEMB      2               0.0000000000
       253         2  SAPS      H15X            2.3402849713       -7.4995906975        3.0467766515  MEMB      2               0.0000000000
       254         2  SAPS      H15Y            3.8996078230       -6.6372641068        3.3063841108  MEMB      2               0.0000000000
       255         2  SAPS      C316            3.3778368784       -7.0019789721        1.2434959807  MEMB      2               0.0000000000
       256         2  SAPS      H16X            3.8735448504       -7.9898101417        1.3565631265  MEMB      2               0.0000000000
       257         2  SAPS      H16Y            4.1212439118       -6.3368337312        0.7543653699  MEMB      2               0.0000000000
       258         2  SAPS      C317            2.2135823060       -7.0583221874        0.2167773077  MEMB      2               0.0000000000
       259         2  SAPS      H17X            2.1347941791       -6.0433772383       -0.2281942898  MEMB      2               0.0000000000
       260         2  SAPS      H17Y            1.2755709393       -7.2332812970        0.7858527891  MEMB      2               0.0000000000
       261         2  SAPS      C318            2.5690322316       -8.1381751515       -0.9242376772  MEMB      2               0.0000000000
       262         2  SAPS      H18X            3.4377527714       -7.7041385423       -1.4639199851  MEMB      2               0.0000000000
       263         2  SAPS      H18Y            1.8701710142       -8.0802760690       -1.7859581692  MEMB      2               0.0000000000
       264         2  SAPS      H18Z            2.6390188243       -9.1678823666       -0.5129888521  MEMB      2               0.0000000000
       265         3  SAPE      N              -7.0708594099        2.9233222097       17.0522764030  MEMB      3               0.0000000000
       266         3  SAPE      HN1            -6.2120070879        3.5041594567       16.9710317674  MEMB      3               0.0000000000
       267         3  SAPE      HN2            -7.0684100722        2.1744138233       16.3306599873  MEMB      3               0.0000000000
       268         3  SAPE      HN3            -7.8824577023        3.5717218817       17.0024169573  MEMB      3               0.0000000000
       269         3  SAPE      C12            -7.1210431505        2.2533525812       18.3871665479  MEMB      3               0.0000000000
       270         3  SAPE      H12A           -7.9064442348        1.4769907901       18.2658053479  MEMB      3               0.0000000000
       271         3  SAPE      H12B           -7.4045606659        3.0429795315       19.1154714604  MEMB      3               0.0000000000
       272         3  SAPE      C11            -5.9023788979        1.5453274230       18.9488023253  MEMB      3               0.0000000000
       273         3  SAPE      H11A           -5.1668175258        2.3309917331       19.2244867324  MEMB      3               0.0000000000
       274         3  SAPE      H11B           -5.3706873495        0.8205866896       18.2958276122  MEMB      3               0.0000000000
       275         3  SAPE      P              -5.3032757764        0.3440938451       21.2083736390  MEMB      3               0.0000000000
       276         3  SAPE      O13            -4.6691223149        1.5130700291       21.8454278040  MEMB      3               0.0000000000
       277         3  SAPE      O14            -6.0420058783       -0.6109663537       22.0860869152  MEMB      3               0.0000000000
       278         3  SAPE      O12            -6.3368575749        0.8844054992       20.1647354511  MEMB      3               0.0000000000
       279         3  SAPE      O11            -4.2327013018       -0.4319117937       20.3071309489  MEMB      3               0.0000000000
       280         3  SAPE      C1             -4.7649556867       -1.5759396610       19.6507574968  MEMB      3               0.0000000000
       281         3  SAPE      HA             -5.0090626901       -2.3961277563       20.3592942801  MEMB      3               0.0000000000
       282         3  SAPE      HB             -5.6218229027       -1.3339231059       18.9862821836  MEMB      3               0.0000000000
       283         3  SAPE      C2             -3.6325983080       -2.1114034423       18.7999660130  MEMB      3               0.0000000000
       284         3  SAPE      HS             -2.7408464354       -2.2129486292       19.4547851684  MEMB      3               0.0000000000
       285         3  SAPE      O21            -3.4262511567       -1.1683169292       17.7516551618  MEMB      3               0.0000000000
       286         3  SAPE      C21            -2.3567150697       -0.3712835340       18.0022879347  MEMB      3               0.0000000000
       287         3  SAPE      O22            -1.4045823118       -0.6639208711       18.6804077970  MEMB      3               0.0000000000
       288         3  SAPE      C22            -2.4977502641        0.9240036616       17.2548297895  MEMB      3               0.0000000000
       289         3  SAPE      H2R            -3.1613419837        1.7355896871       17.6226544879  MEMB      3               0.0000000000
       290         3  SAPE      H2S            -1.5015320907        1.4104055357       17.3275174220  MEMB      3               0.0000000000
       291         3  SAPE      C3             -3.9776046747       -3.5147401382       18.1966373913  MEMB      3               0.0000000000
       292         3  SAPE      HX             -4.2861224910       -4.2232145618       18.9948867116  MEMB      3               0.0000000000
       293         3  SAPE      HY             -3.0721593112       -3.9182225442       17.6949489344  MEMB      3               0.0000000000
       294         3  SAPE      O31            -5.0899495760       -3.3827770361       17.3149856456  MEMB      3               0.0000000000
       295         3  SAPE      C31            -4.9366457157       -4.0555649342       16.1923928492  MEMB      3               0.0000000000
       296         3  SAPE      O32            -4.2418403361       -5.0703180746       16.0608989561  MEMB      3               0.0000000000
       297         3  SAPE      C32            -5.8402857104       -3.3996564122       15.1224239271  MEMB      3               0.0000000000
       298         3  SAPE      H2X            -6.5962490781       -2.7325994023       15.5891951586  MEMB      3               0.0000000000
       299         3  SAPE      H2Y            -6.3890592552       -4.1896736135       14.5665090062  MEMB      3               0.0000000000
       300         3  SAPE      C23            -2.7806315523        0.5581175308       15.7847027916  MEMB      3               0.0000000000
       301         3  SAPE      H3R            -3.7398593586       -0.0005279586       15.8307285514  MEMB      3               0.0000000000
       302         3  SAPE      H3S            -2.0433613828       -0.0824653829       15.2551681425  MEMB      3               0.0000000000
       303         3  SAPE      C24            -2.7978765998        1.7501683828       14.7958044038  MEMB      3               0.0000000000
       304         3  SAPE      H4R            -3.4183983404        2.5483605617       15.2564154748  MEMB      3               0.0000000000
       305         3  SAPE      H4S            -3.4552012609        1.4490353783       13.9522612803  MEMB      3               0.0000000000
       306         3  SAPE      C25            -1.4673139016        2.2449838276       14.3618849157  MEMB      3               0.0000000000
       307         3  SAPE      H5R            -1.1306157914        3.0634016096       15.0152050282  MEMB      3               0.0000000000
       308         3  SAPE      C26            -0.7142184006        1.8409311592       13.3148346203  MEMB      3               0.0000000000
       309         3  SAPE      H6R             0.3583202006        2.0843666203       13.2948086122  MEMB      3               0.0000000000
       310         3  SAPE      C27            -1.0479752779        0.7221954980       12.3567201994  MEMB      3               0.0000000000
       311         3  SAPE      H7R            -1.7230373896       -0.0491765242       12.7852033266  MEMB      3               0.0000000000
       312         3  SAPE      H7S            -0.0792554281        0.2218240130       12.1433405783  MEMB      3               0.0000000000
       313         3  SAPE      C28            -1.5490400827        1.3800657060       11.0838085512  MEMB      3               0.0000000000
       314         3  SAPE      H8R            -2.0785443460        2.3285489151       11.2570266175  MEMB      3               0.0000000000
       315         3  SAPE      C29            -1.3543007369        0.9682024766        9.8397537487  MEMB      3               0.0000000000
       316         3  SAPE      H9R            -1.9895372948        1.5550693261        9.1600025128  MEMB      3               0.0000000000
       317         3  SAPE      C210           -0.6043091334       -0.2412174905        9.3433309763  MEMB      3               0.0000000000
       318         3  SAPE      H10R           -1.2795246894       -1.1229201877        9.3116237965  MEMB      3               0.0000000000
       319         3  SAPE      H10S            0.2564066726       -0.3377975405       10.0391484697  MEMB      3               0.0000000000
       320         3  SAPE      C211           -0.2015256996       -0.1554777030        7.8689940491  MEMB      3               0.0000000000
       321         3  SAPE      H11R            0.8494381968        0.1355451418        7.7248387081  MEMB      3               0.0000000000
       322         3  SAPE      C212           -0.9502003355       -0.5195668853        6.8677952944  MEMB      3               0.0000000000
       323         3  SAPE      H12R           -0.6598246108       -0.4700090440        5.8079725659  MEMB      3               0.0000000000
       324         3  SAPE      C213           -2.3429456359       -1.0898637024        6.9820264381  MEMB      3               0.0000000000
       325         3  SAPE      H13R           -3.0354431628       -0.6825239842        6.2146653942  MEMB      3               0.0000000000
       326         3  SAPE      H13S           -2.8565100938       -0.9386332146        7.9555258338  MEMB      3               0.0000000000
       327         3  SAPE      C214           -2.3543784693       -2.4896873753        6.7940987975  MEMB      3               0.0000000000
       328         3  SAPE      H14R           -1.3881951029       -2.9693383659        6.5786338753  MEMB      3               0.0000000000
       329         3  SAPE      C215           -3.3816094972       -3.4065078559        6.8110279938  MEMB      3               0.0000000000
       330         3  SAPE      H15R           -3.1072565563       -4.4652162949        6.6932720093  MEMB      3               0.0000000000
       331         3  SAPE      C216           -4.8255534934       -3.0366001996        7.0379692548  MEMB      3               0.0000000000
       332         3  SAPE      H16R           -4.9632527746       -2.0230790118        7.4717139768  MEMB      3               0.0000000000
       333         3  SAPE      H16S           -5.3331324659       -3.7881281307        7.6797556377  MEMB      3               0.0000000000
       334         3  SAPE      C217           -5.6618357760       -3.1070074744        5.7437351655  MEMB      3               0.0000000000
       335         3  SAPE      H17R           -6.7565923480       -3.1114645128        5.9329700237  MEMB      3               0.0000000000
       336         3  SAPE      H17S           -5.3777902700       -4.0563491450        5.2413519730  MEMB      3               0.0000000000
       337         3  SAPE      C218           -5.4405888450       -2.0047844897        4.6335515864  MEMB      3               0.0000000000
       338         3  SAPE      H18R           -4.3847352963       -1.6743073024        4.7349378721  MEMB      3               0.0000000000
       339         3  SAPE      H18S           -6.1525961455       -1.1739802195        4.8262451608  MEMB      3               0.0000000000
       340         3  SAPE      C219           -5.6881260216       -2.4236535740        3.1534803321  MEMB      3               0.0000000000
       341         3  SAPE      H19R           -6.7749542560       -2.6499215926        3.1095712357  MEMB      3               0.0000000000
       342         3  SAPE      H19S           -5.1188638903       -3.3661601086        3.0053500296  MEMB      3               0.0000000000
       343         3  SAPE      C220           -5.2485726786       -1.3844505267        2.1408447321  MEMB      3               0.0000000000
       344         3  SAPE      H20R           -5.5530714405       -0.3347713564        2.3402834883  MEMB      3               0.0000000000
       345         3  SAPE      H20S           -5.6292144312       -1.6235147263        1.1248331707  MEMB      3               0.0000000000
       346         3  SAPE      H20T           -4.1446483889       -1.3766319889        2.0159012705  MEMB      3               0.0000000000
       347         3  SAPE      C33            -4.9726701852       -2.5810526398       14.1918829731  MEMB      3               0.0000000000
       348         3  SAPE      H3X            -4.2081167138       -3.1799338330       13.6523273578  MEMB      3               0.0000000000
       349         3  SAPE      H3Y            -4.2868150332       -1.9771004979       14.8236785244  MEMB      3               0.0000000000
       350         3  SAPE      C34            -5.7820305744       -1.6252730194       13.2492717295  MEMB      3               0.0000000000
       351         3  SAPE      H4X            -6.2164146947       -0.7257139945       13.7355073951  MEMB      3               0.0000000000
       352         3  SAPE      H4Y            -6.6358402727       -2.1394265294       12.7583788275  MEMB      3               0.0000000000
       353         3  SAPE      C35            -4.9443717132       -1.1259363660       12.0674702949  MEMB      3               0.0000000000
       354         3  SAPE      H5X            -4.4848815428       -1.8971204817       11.4128972044  MEMB      3               0.0000000000
       355         3  SAPE      H5Y            -4.1252248875       -0.4378964658       12.3673374297  MEMB      3               0.0000000000
       356         3  SAPE      C36            -5.8826624424       -0.2343680950       11.2138123214  MEMB      3               0.0000000000
       357         3  SAPE      H6X            -6.5413983532        0.3508214912       11.8905255171  MEMB      3               0.0000000000
       358         3  SAPE      H6Y            -6.4272237948       -0.9697464284       10.5837390605  MEMB      3               0.0000000000
       359         3  SAPE      C37            -5.1996032876        0.7164935742       10.1785311888  MEMB      3               0.0000000000
       360         3  SAPE      H7X            -4.2360192677        0.3090650296        9.8045940304  MEMB      3               0.0000000000
       361         3  SAPE      H7Y            -4.8388050475        1.6086191994       10.7337409484  MEMB      3               0.0000000000
       362         3  SAPE      C38            -6.1575467500        1.2063051814        9.0966894524  MEMB      3               0.0000000000
       363         3  SAPE      H8X            -7.0281737060        1.7066154093        9.5721042305  MEMB      3               0.0000000000
       364         3  SAPE      H8Y            -6.4219398619        0.3377739248        8.4563221210  MEMB      3               0.0000000000
       365         3  SAPE      C39            -5.4768949759        2.2141547773        8.0872724733  MEMB      3               0.0000000000
       366         3  SAPE      H9X            -4.4228384232        1.8635140988        8.0689192679  MEMB      3               0.0000000000
       367         3  SAPE      H9Y            -5.4965947706        3.1991205666        8.6008622032  MEMB      3               0.0000000000
       368         3  SAPE      C310           -5.9195820960        2.1312103170        6.6414135481  MEMB      3               0.0000000000
       369         3  SAPE      H10X           -6.5596566050        2.9742570082        6.3039262021  MEMB      3               0.0000000000
       370         3  SAPE      H10Y           -6.2550588795        1.0805892097        6.5073536585  MEMB      3               0.0000000000
       371         3  SAPE      C311           -4.6581575535        2.2631124924        5.7282098545  MEMB      3               0.0000000000
       372         3  SAPE      H11X           -3.7715916106        1.6681175075        6.0352974941  MEMB      3               0.0000000000
       373         3  SAPE      H11Y           -4.2212231137        3.2841114048        5.7593645520  MEMB      3               0.0000000000
       374         3  SAPE      C312           -4.9736242834        1.8940867006        4.2589464087  MEMB      3               0.0000000000
       375         3  SAPE      H12X           -5.6858849622        1.0547232101        4.1090316424  MEMB      3               0.0000000000
       376         3  SAPE      H12Y           -3.9628377782        1.7968864511        3.8081869439  MEMB      3               0.0000000000
       377         3  SAPE      C313           -5.6074050673        3.0263330291        3.4917668933  MEMB      3               0.0000000000
       378         3  SAPE      H13X           -5.0360222576        3.9737923041        3.5925822280  MEMB      3               0.0000000000
       379         3  SAPE      H13Y           -6.5058603660        3.2211646845        4.1155775109  MEMB      3               0.0000000000
       380         3  SAPE      C314           -6.1625720330        2.7542287035        2.0515076501  MEMB      3               0.0000000000
       381         3  SAPE      H14X           -5.3366494727        2.3642880038        1.4189577664  MEMB      3               0.0000000000
       382         3  SAPE      H14Y           -6.3774808328        3.7338816717        1.5735793392  MEMB      3               0.0000000000
       383         3  SAPE      C315           -7.4023481740        1.8389426678        2.0859715661  MEMB      3               0.0000000000
       384         3  SAPE      H15X           -8.2572696088        2.1905715009        2.7022402989  MEMB      3               0.0000000000
       385         3  SAPE      H15Y           -7.1701649285        0.8713500621        2.5801138312  MEMB      3               0.0000000000
       386         3  SAPE      C316           -7.9390985640        1.6871975868        0.6677517281  MEMB      3               0.0000000000
       387         3  SAPE      H16X           -7.7411910435        2.6404785089        0.1325800136  MEMB      3               0.0000000000
       388         3  SAPE      H16Y           -9.0271795458        1.4876525107        0.5648809760  MEMB      3               0.0000000000
       389         3  SAPE      C317           -7.3197833820        0.5375968270       -0.1907768378  MEMB      3               0.0000000000
       390         3  SAPE      H17X           -6.3123063390        0.3843301513        0.2517385873  MEMB      3               0.0000000000
       391         3  SAPE      H17Y           -7.0846327951        0.8920402527       -1.2171289267  MEMB      3               0.0000000000
       392         3  SAPE      C318           -8.0741979065       -0.8228126287       -0.2773489003  MEMB      3               0.0000000000
       393         3  SAPE      H18X           -9.0169567463       -0.6118137244       -0.8259893685  MEMB      3               0.0000000000
       394         3  SAPE      H18Y           -8.2084919784       -1.3407834273        0.6963002642  MEMB      3               0.0000000000
       395         3  SAPE      H18Z           -7.6306970430       -1.6213585026       -0.9097675773  MEMB      3               0.0000000000
       396         4  CHL1      C3             -1.3229922619        7.1252452426       17.3263450000  MEMB      4               0.0000000000
       397         4  CHL1      H3             -0.4524382415        6.4396584807       17.2461650000  MEMB      4               0.0000000000
       398         4  CHL1      O3             -1.5302609181        7.5501125174       18.6736550000  MEMB      4               0.0000000000
       399         4  CHL1      H3'            -2.3192535589        7.0467306456       18.8874150000  MEMB      4               0.0000000000
       400         4  CHL1      C4             -0.9882477295        8.4297073312       16.5123750000  MEMB      4               0.0000000000
       401         4  CHL1      H4A            -1.7744984192        9.1730523561       16.7645150000  MEMB      4               0.0000000000
       402         4  CHL1      H4B            -0.0362712493        8.8606206540       16.8897150000  MEMB      4               0.0000000000
       403         4  CHL1      C5             -0.7867416948        8.1186875452       15.0450050000  MEMB      4               0.0000000000
       404         4  CHL1      C6              0.3563085968        8.3531899643       14.3164350000  MEMB      4               0.0000000000
       405         4  CHL1      H6              1.2801920909        8.6718969970       14.8212850000  MEMB      4               0.0000000000
       406         4  CHL1      C7              0.4991608294        8.2043857558       12.8118450000  MEMB      4               0.0000000000
       407         4  CHL1      H7A             0.8334894292        9.1469640197       12.3280250000  MEMB      4               0.0000000000
       408         4  CHL1      H7B             1.2514097171        7.4001781639       12.6646150000  MEMB      4               0.0000000000
       409         4  CHL1      C8             -0.8599393851        7.8749722723       12.1414750000  MEMB      4               0.0000000000
       410         4  CHL1      H8             -1.3536742670        8.8674098771       12.0666350000  MEMB      4               0.0000000000
       411         4  CHL1      C14            -0.7526536676        7.2809350805       10.7790650000  MEMB      4               0.0000000000
       412         4  CHL1      H14            -0.2481423874        6.3280015987       11.0468450000  MEMB      4               0.0000000000
       413         4  CHL1      C15             0.0947504655        8.0583586484        9.8197650000  MEMB      4               0.0000000000
       414         4  CHL1      H15A           -0.1297099901        9.1432974337        9.9024650000  MEMB      4               0.0000000000
       415         4  CHL1      H15B            1.1774269608        7.9643344425       10.0506150000  MEMB      4               0.0000000000
       416         4  CHL1      C16            -0.3101886985        7.5228717745        8.4426650000  MEMB      4               0.0000000000
       417         4  CHL1      H16A           -0.5331226586        8.3683444461        7.7572450000  MEMB      4               0.0000000000
       418         4  CHL1      H16B            0.5848917703        7.0229337210        8.0146350000  MEMB      4               0.0000000000
       419         4  CHL1      C17            -1.5597499805        6.6257211833        8.6163250000  MEMB      4               0.0000000000
       420         4  CHL1      H17            -1.1247574770        5.6130279477        8.7561550000  MEMB      4               0.0000000000
       421         4  CHL1      C13            -2.1047281109        6.9918525793        9.9925850000  MEMB      4               0.0000000000
       422         4  CHL1      C18            -2.8910946569        8.3175099309        9.7766750000  MEMB      4               0.0000000000
       423         4  CHL1      H18A           -3.8939019322        8.0189806075        9.4030550000  MEMB      4               0.0000000000
       424         4  CHL1      H18B           -3.1086426827        8.9106559161       10.6905550000  MEMB      4               0.0000000000
       425         4  CHL1      H18C           -2.4261331500        8.9357179228        8.9792050000  MEMB      4               0.0000000000
       426         4  CHL1      C12            -2.8577080892        5.9480024212       10.8508250000  MEMB      4               0.0000000000
       427         4  CHL1      H12A           -3.7809640722        5.5625021147       10.3677950000  MEMB      4               0.0000000000
       428         4  CHL1      H12B           -2.1156569919        5.1286649162       10.9620850000  MEMB      4               0.0000000000
       429         4  CHL1      C11            -3.0550425108        6.4039377500       12.2879850000  MEMB      4               0.0000000000
       430         4  CHL1      H11A           -3.7804631883        7.2410260419       12.2021150000  MEMB      4               0.0000000000
       431         4  CHL1      H11B           -3.5753287112        5.5908426788       12.8379950000  MEMB      4               0.0000000000
       432         4  CHL1      C9             -1.7635161222        6.9286387217       13.0016650000  MEMB      4               0.0000000000
       433         4  CHL1      H9             -1.1165360212        6.0297668206       13.0897150000  MEMB      4               0.0000000000
       434         4  CHL1      C10            -2.0030761416        7.4155987099       14.4737550000  MEMB      4               0.0000000000
       435         4  CHL1      C19            -3.2175841453        8.4773636980       14.4833050000  MEMB      4               0.0000000000
       436         4  CHL1      H19A           -4.0877840977        7.8835413561       14.1305350000  MEMB      4               0.0000000000
       437         4  CHL1      H19B           -3.3807079894        8.8212578608       15.5270650000  MEMB      4               0.0000000000
       438         4  CHL1      H19C           -3.0869567789        9.2795974476       13.7258850000  MEMB      4               0.0000000000
       439         4  CHL1      C1             -2.5066955385        6.2221001859       15.2871850000  MEMB      4               0.0000000000
       440         4  CHL1      H1A            -3.5000699893        5.9222216697       14.8901950000  MEMB      4               0.0000000000
       441         4  CHL1      H1B            -1.9224729708        5.3072867508       15.0502850000  MEMB      4               0.0000000000
       442         4  CHL1      C2             -2.6422378284        6.4062870389       16.8151250000  MEMB      4               0.0000000000
       443         4  CHL1      H2A            -2.7788404869        5.4319408250       17.3311850000  MEMB      4               0.0000000000
       444         4  CHL1      H2B            -3.4640911594        7.1012207663       17.0907050000  MEMB      4               0.0000000000
       445         4  CHL1      C20            -2.4042193226        6.4509982242        7.3243450000  MEMB      4               0.0000000000
       446         4  CHL1      H20            -2.7920190642        7.4858382164        7.2100450000  MEMB      4               0.0000000000
       447         4  CHL1      C21            -3.5711775856        5.5551051893        7.3880150000  MEMB      4               0.0000000000
       448         4  CHL1      H21A           -4.2884989050        5.9748159107        8.1253050000  MEMB      4               0.0000000000
       449         4  CHL1      H21B           -3.1837108945        4.5673045804        7.7173150000  MEMB      4               0.0000000000
       450         4  CHL1      H21C           -4.1282156260        5.4821477065        6.4295250000  MEMB      4               0.0000000000
       451         4  CHL1      C22            -1.5378553624        6.0493367261        6.0737850000  MEMB      4               0.0000000000
       452         4  CHL1      H22A           -0.7817535948        6.8396762436        5.8788850000  MEMB      4               0.0000000000
       453         4  CHL1      H22B           -1.0571245467        5.0837804747        6.3401050000  MEMB      4               0.0000000000
       454         4  CHL1      C23            -2.2728090775        5.8447862976        4.7121350000  MEMB      4               0.0000000000
       455         4  CHL1      H23A           -2.8721039840        4.9192596506        4.8484050000  MEMB      4               0.0000000000
       456         4  CHL1      H23B           -2.9132313512        6.7018610816        4.4128050000  MEMB      4               0.0000000000
       457         4  CHL1      C24            -1.1494145950        5.7180763453        3.6459450000  MEMB      4               0.0000000000
       458         4  CHL1      H24A           -0.4374016157        6.5709169375        3.6413850000  MEMB      4               0.0000000000
       459         4  CHL1      H24B           -0.5548216755        4.8143238280        3.8989350000  MEMB      4               0.0000000000
       460         4  CHL1      C25            -1.8367463370        5.7204193527        2.3047050000  MEMB      4               0.0000000000
       461         4  CHL1      H25            -2.6067354021        6.5212965230        2.2997850000  MEMB      4               0.0000000000
       462         4  CHL1      C26            -0.8992092801        5.6637956911        1.0889850000  MEMB      4               0.0000000000
       463         4  CHL1      H26A           -0.2142567190        6.5308794104        1.2044750000  MEMB      4               0.0000000000
       464         4  CHL1      H26B           -0.3368373789        4.7108738360        0.9889950000  MEMB      4               0.0000000000
       465         4  CHL1      H26C           -1.5558541708        5.9583584688        0.2425950000  MEMB      4               0.0000000000
       466         4  CHL1      C27            -2.7423773592        4.4580184187        2.1315350000  MEMB      4               0.0000000000
       467         4  CHL1      H27A           -2.1938783998        3.5872385527        1.7129550000  MEMB      4               0.0000000000
       468         4  CHL1      H27B           -3.1514468522        4.0487422257        3.0799350000  MEMB      4               0.0000000000
       469         4  CHL1      H27C           -3.4577034021        4.7172235243        1.3219450000  MEMB      4               0.0000000000
       470         5  SAPE      N               5.3584782598       -4.3313991825       21.9559402541  MEMB      5               0.0000000000
       471         5  SAPE      HN1             5.2518749961       -3.7806053260       21.0802337616  MEMB      5               0.0000000000
       472         5  SAPE      HN2             4.6342417362       -4.1396846585       22.6772773145  MEMB      5               0.0000000000
       473         5  SAPE      HN3             6.2740468326       -3.9302179839       22.2429727489  MEMB      5               0.0000000000
       474         5  SAPE      C12             5.6409239168       -5.8289548890       21.6997580566  MEMB      5               0.0000000000
       475         5  SAPE      H12A            5.0029610893       -6.1422658805       20.8458491081  MEMB      5               0.0000000000
       476         5  SAPE      H12B            5.1741640310       -6.4265931161       22.5117217331  MEMB      5               0.0000000000
       477         5  SAPE      C11             7.1461813930       -6.1769190690       21.3943373717  MEMB      5               0.0000000000
       478         5  SAPE      H11A            7.2308808731       -7.1965740344       20.9613814144  MEMB      5               0.0000000000
       479         5  SAPE      H11B            7.8235799171       -6.0608885532       22.2672573670  MEMB      5               0.0000000000
       480         5  SAPE      P               8.0091538479       -5.6554139433       18.9043409399  MEMB      5               0.0000000000
       481         5  SAPE      O13             8.4481131757       -4.4628886268       18.1388180858  MEMB      5               0.0000000000
       482         5  SAPE      O14             8.9259318748       -6.7977397268       18.9156732278  MEMB      5               0.0000000000
       483         5  SAPE      O12             7.7322524463       -5.2896712854       20.4663370802  MEMB      5               0.0000000000
       484         5  SAPE      O11             6.5297627784       -6.0244501065       18.5247949718  MEMB      5               0.0000000000
       485         5  SAPE      C1              5.8017915929       -5.6181334773       17.3799770422  MEMB      5               0.0000000000
       486         5  SAPE      HA              4.7773027808       -5.2457588699       17.5946417008  MEMB      5               0.0000000000
       487         5  SAPE      HB              6.2891626545       -4.8579727480       16.7327165255  MEMB      5               0.0000000000
       488         5  SAPE      C2              5.7165607855       -6.8381988948       16.4074695534  MEMB      5               0.0000000000
       489         5  SAPE      HS              5.1082207826       -7.6634995668       16.8353977247  MEMB      5               0.0000000000
       490         5  SAPE      O21             6.9982509520       -7.3947548563       16.1311051119  MEMB      5               0.0000000000
       491         5  SAPE      C21             7.0383233484       -8.5140357699       15.3761580885  MEMB      5               0.0000000000
       492         5  SAPE      O22             6.1203919124       -9.1803988214       15.0174239650  MEMB      5               0.0000000000
       493         5  SAPE      C22             8.5934126341       -8.8319691432       15.1180122264  MEMB      5               0.0000000000
       494         5  SAPE      H2R             9.1280731901       -8.5249054688       16.0422256562  MEMB      5               0.0000000000
       495         5  SAPE      H2S             8.6331240368       -9.9274532064       14.9372948051  MEMB      5               0.0000000000
       496         5  SAPE      C3              4.8582065311       -6.5029451939       15.0432817637  MEMB      5               0.0000000000
       497         5  SAPE      HX              3.8138143178       -6.5168894924       15.4219259629  MEMB      5               0.0000000000
       498         5  SAPE      HY              5.0634445974       -7.2822054361       14.2784604812  MEMB      5               0.0000000000
       499         5  SAPE      O31             5.2720741514       -5.2420968921       14.5396093666  MEMB      5               0.0000000000
       500         5  SAPE      C31             4.6759529586       -4.9088399167       13.3051438737  MEMB      5               0.0000000000
       501         5  SAPE      O32             3.7813130583       -5.5575482517       12.7537220451  MEMB      5               0.0000000000
       502         5  SAPE      C32             5.2537854294       -3.6746917530       12.7240766919  MEMB      5               0.0000000000
       503         5  SAPE      H2X             5.1982665774       -2.8097811585       13.4191797335  MEMB      5               0.0000000000
       504         5  SAPE      H2Y             4.8168185006       -3.6313824023       11.7035356462  MEMB      5               0.0000000000
       505         5  SAPE      C23             9.0337411572       -8.0026106238       13.8933353946  MEMB      5               0.0000000000
       506         5  SAPE      H3R             8.9552172163       -6.9062965083       14.0553550967  MEMB      5               0.0000000000
       507         5  SAPE      H3S             8.4052682905       -8.2458833952       13.0100678561  MEMB      5               0.0000000000
       508         5  SAPE      C24            10.4546591110       -8.2726957935       13.5152739917  MEMB      5               0.0000000000
       509         5  SAPE      H4R            11.0348946548       -8.4198441412       14.4512202012  MEMB      5               0.0000000000
       510         5  SAPE      H4S            10.9205343811       -7.3793597457       13.0470520261  MEMB      5               0.0000000000
       511         5  SAPE      C25            10.6249673311       -9.3869969231       12.6064808142  MEMB      5               0.0000000000
       512         5  SAPE      H5R            10.6818405066      -10.3364054693       13.1591007944  MEMB      5               0.0000000000
       513         5  SAPE      C26            10.8956154068       -9.2910365615       11.3296746735  MEMB      5               0.0000000000
       514         5  SAPE      H6R            11.1150476749      -10.2197085923       10.7824832314  MEMB      5               0.0000000000
       515         5  SAPE      C27            11.0706711566       -7.9624490616       10.5213693645  MEMB      5               0.0000000000
       516         5  SAPE      H7R            11.2370506184       -8.2325167454        9.4566149517  MEMB      5               0.0000000000
       517         5  SAPE      H7S            12.0037101239       -7.4676453871       10.8662294288  MEMB      5               0.0000000000
       518         5  SAPE      C28            10.0341498125       -6.8762520243       10.5585060919  MEMB      5               0.0000000000
       519         5  SAPE      H8R            10.3982340845       -5.9471421069       11.0213209070  MEMB      5               0.0000000000
       520         5  SAPE      C29             8.6947748728       -6.9924167925       10.1918231039  MEMB      5               0.0000000000
       521         5  SAPE      H9R             8.1918869285       -6.0193771086       10.0903466249  MEMB      5               0.0000000000
       522         5  SAPE      C210            8.0868259208       -8.2475303509        9.5954096477  MEMB      5               0.0000000000
       523         5  SAPE      H10R            8.7287101058       -9.1520052693        9.6604533006  MEMB      5               0.0000000000
       524         5  SAPE      H10S            7.8309842094       -8.0801519608        8.5273038197  MEMB      5               0.0000000000
       525         5  SAPE      C211            6.6722080443       -8.5635447064       10.1225170850  MEMB      5               0.0000000000
       526         5  SAPE      H11R            6.5789654093       -9.4156312480       10.8119038420  MEMB      5               0.0000000000
       527         5  SAPE      C212            5.5978990846       -7.8651138166        9.7519207573  MEMB      5               0.0000000000
       528         5  SAPE      H12R            4.6611035918       -8.2124437332       10.2121123762  MEMB      5               0.0000000000
       529         5  SAPE      C213            5.4114514238       -6.6646028145        8.8053531634  MEMB      5               0.0000000000
       530         5  SAPE      H13R            6.3206180068       -6.5774688470        8.1727834233  MEMB      5               0.0000000000
       531         5  SAPE      H13S            5.3343901481       -5.6911882574        9.3353028134  MEMB      5               0.0000000000
       532         5  SAPE      C214            4.2184281760       -6.9628399261        7.8603184974  MEMB      5               0.0000000000
       533         5  SAPE      H14R            3.6228184732       -7.8464059290        8.1333764251  MEMB      5               0.0000000000
       534         5  SAPE      C215            3.8655024028       -6.2774905426        6.8043681052  MEMB      5               0.0000000000
       535         5  SAPE      H15R            2.9459730569       -6.5829661421        6.2836466893  MEMB      5               0.0000000000
       536         5  SAPE      C216            4.5856918562       -5.0328387050        6.3154690211  MEMB      5               0.0000000000
       537         5  SAPE      H16R            5.6592546038       -5.2977843876        6.2078206801  MEMB      5               0.0000000000
       538         5  SAPE      H16S            4.5548227486       -4.1781578520        7.0246158203  MEMB      5               0.0000000000
       539         5  SAPE      C217            4.0941148170       -4.7518445166        4.8542381217  MEMB      5               0.0000000000
       540         5  SAPE      H17R            4.7465198284       -3.9059149822        4.5491274565  MEMB      5               0.0000000000
       541         5  SAPE      H17S            3.0028509627       -4.5483617318        4.8996054827  MEMB      5               0.0000000000
       542         5  SAPE      C218            4.3660559733       -5.7656639415        3.8105879640  MEMB      5               0.0000000000
       543         5  SAPE      H18R            3.7006832380       -6.6320887842        4.0128461865  MEMB      5               0.0000000000
       544         5  SAPE      H18S            5.4255031727       -6.0980022758        3.8485890442  MEMB      5               0.0000000000
       545         5  SAPE      C219            4.1724945915       -5.2999897247        2.3650151623  MEMB      5               0.0000000000
       546         5  SAPE      H19R            3.1840624383       -4.7987768260        2.2868583044  MEMB      5               0.0000000000
       547         5  SAPE      H19S            4.1360390052       -6.1393287489        1.6380350647  MEMB      5               0.0000000000
       548         5  SAPE      C220            5.1639444336       -4.2802088979        1.8408162191  MEMB      5               0.0000000000
       549         5  SAPE      H20R            4.9474926493       -3.9985571735        0.7881333887  MEMB      5               0.0000000000
       550         5  SAPE      H20S            6.2368206217       -4.5293604112        1.9863543086  MEMB      5               0.0000000000
       551         5  SAPE      H20T            4.9671380268       -3.3578939031        2.4281181403  MEMB      5               0.0000000000
       552         5  SAPE      C33             6.7666958268       -3.9823734781       12.4053967543  MEMB      5               0.0000000000
       553         5  SAPE      H3X             6.9653757675       -5.0562930755       12.2015735878  MEMB      5               0.0000000000
       554         5  SAPE      H3Y             7.3980840686       -3.8165366123       13.3043784136  MEMB      5               0.0000000000
       555         5  SAPE      C34             7.2246428891       -3.1118404417       11.2096039762  MEMB      5               0.0000000000
       556         5  SAPE      H4X             6.9362193146       -2.0713895648       11.4715095261  MEMB      5               0.0000000000
       557         5  SAPE      H4Y             6.7127196390       -3.5482876083       10.3254263956  MEMB      5               0.0000000000
       558         5  SAPE      C35             8.7670955783       -3.1380602184       10.9350805426  MEMB      5               0.0000000000
       559         5  SAPE      H5X             8.9955684501       -4.2252608083       10.9458585258  MEMB      5               0.0000000000
       560         5  SAPE      H5Y             9.1908057272       -2.7009783601       11.8644619062  MEMB      5               0.0000000000
       561         5  SAPE      C36             9.2461308373       -2.4841722517        9.6527976381  MEMB      5               0.0000000000
       562         5  SAPE      H6X             9.0407639519       -1.3927708612        9.6842310562  MEMB      5               0.0000000000
       563         5  SAPE      H6Y             8.7260709335       -2.8705920054        8.7502804203  MEMB      5               0.0000000000
       564         5  SAPE      C37            10.7953035944       -2.7389438291        9.4212077732  MEMB      5               0.0000000000
       565         5  SAPE      H7X            10.8720627616       -3.8467317892        9.4563486518  MEMB      5               0.0000000000
       566         5  SAPE      H7Y            11.3795685461       -2.3670783364       10.2899265579  MEMB      5               0.0000000000
       567         5  SAPE      C38            11.5219449355       -2.3616675355        8.1194369429  MEMB      5               0.0000000000
       568         5  SAPE      H8X            12.5690686430       -2.1936691677        8.4505403896  MEMB      5               0.0000000000
       569         5  SAPE      H8Y            11.2625496289       -1.3619486558        7.7100496107  MEMB      5               0.0000000000
       570         5  SAPE      C39            11.5185734199       -3.5684133878        7.0351230049  MEMB      5               0.0000000000
       571         5  SAPE      H9X            12.2127713832       -3.2594439525        6.2245996625  MEMB      5               0.0000000000
       572         5  SAPE      H9Y            10.4866726752       -3.5103897090        6.6275260507  MEMB      5               0.0000000000
       573         5  SAPE      C310           11.7831337826       -5.0046336716        7.5905601923  MEMB      5               0.0000000000
       574         5  SAPE      H10X           10.8387086854       -5.2409042001        8.1258718863  MEMB      5               0.0000000000
       575         5  SAPE      H10Y           12.5493277738       -4.9285710257        8.3914855580  MEMB      5               0.0000000000
       576         5  SAPE      C311           12.1014523706       -5.9951762747        6.4177620705  MEMB      5               0.0000000000
       577         5  SAPE      H11X           12.3344528073       -7.0117754859        6.8005901759  MEMB      5               0.0000000000
       578         5  SAPE      H11Y           12.9465525555       -5.4313435159        5.9680745721  MEMB      5               0.0000000000
       579         5  SAPE      C312           11.0825977620       -5.9816582618        5.3831927268  MEMB      5               0.0000000000
       580         5  SAPE      H12X           11.2884315882       -6.8068236469        4.6683116112  MEMB      5               0.0000000000
       581         5  SAPE      H12Y           11.2197917467       -5.0272113318        4.8313512468  MEMB      5               0.0000000000
       582         5  SAPE      C313            9.5804738391       -6.1410892712        5.7437494250  MEMB      5               0.0000000000
       583         5  SAPE      H13X            9.2214361736       -5.3819375057        6.4711428234  MEMB      5               0.0000000000
       584         5  SAPE      H13Y            9.3538581663       -7.0875021449        6.2797237918  MEMB      5               0.0000000000
       585         5  SAPE      C314            8.6258217529       -6.2758017116        4.4831744604  MEMB      5               0.0000000000
       586         5  SAPE      H14X            8.8206058456       -5.4699465672        3.7435952626  MEMB      5               0.0000000000
       587         5  SAPE      H14Y            7.5948272379       -6.2758058362        4.8971449194  MEMB      5               0.0000000000
       588         5  SAPE      C315            8.8705187411       -7.5808941787        3.7290943875  MEMB      5               0.0000000000
       589         5  SAPE      H15X            8.9821743711       -8.3401201097        4.5324802164  MEMB      5               0.0000000000
       590         5  SAPE      H15Y            9.9095042073       -7.5566351086        3.3363583103  MEMB      5               0.0000000000
       591         5  SAPE      C316            7.6827451960       -7.8572394290        2.7927201826  MEMB      5               0.0000000000
       592         5  SAPE      H16X            6.7054929167       -7.6017115347        3.2553274681  MEMB      5               0.0000000000
       593         5  SAPE      H16Y            7.6486520200       -8.9635041710        2.6960923075  MEMB      5               0.0000000000
       594         5  SAPE      C317            7.6904887229       -7.1708978769        1.4336322786  MEMB      5               0.0000000000
       595         5  SAPE      H17X            7.7494213203       -6.0628162725        1.4884342039  MEMB      5               0.0000000000
       596         5  SAPE      H17Y            6.7343281322       -7.4359022567        0.9337820586  MEMB      5               0.0000000000
       597         5  SAPE      C318            8.7999777030       -7.6722859814        0.3911559406  MEMB      5               0.0000000000
       598         5  SAPE      H18X            8.7900073069       -6.9520813951       -0.4547325908  MEMB      5               0.0000000000
       599         5  SAPE      H18Y            8.5372239891       -8.6982276769        0.0554105879  MEMB      5               0.0000000000
       600         5  SAPE      H18Z            9.7706865147       -7.5228385566        0.9104935154  MEMB      5               0.0000000000
       601         6  CHL1      C3              7.3830620101        7.4328758668       17.2938650000  MEMB      6               0.0000000000
       602         6  CHL1      H3              8.2153610535        6.7646106722       16.9856050000  MEMB      6               0.0000000000
       603         6  CHL1      O3              7.1332727299        7.6299828732       18.7061350000  MEMB      6               0.0000000000
       604         6  CHL1      H3'             7.8849475589        8.1348649663       19.0249950000  MEMB      6               0.0000000000
       605         6  CHL1      C4              7.6519157674        8.8036618050       16.6908950000  MEMB      6               0.0000000000
       606         6  CHL1      H4A             6.7402841368        9.3639810914       16.9897350000  MEMB      6               0.0000000000
       607         6  CHL1      H4B             8.4466242560        9.3750233494       17.2165450000  MEMB      6               0.0000000000
       608         6  CHL1      C5              7.8814135544        8.6825752998       15.1777150000  MEMB      6               0.0000000000
       609         6  CHL1      C6              9.0634899859        9.0501591805       14.6656150000  MEMB      6               0.0000000000
       610         6  CHL1      H6              9.8178594815        9.5519925079       15.2893950000  MEMB      6               0.0000000000
       611         6  CHL1      C7              9.4712588235        8.8036696111       13.2590850000  MEMB      6               0.0000000000
       612         6  CHL1      H7A            10.1368533194        9.5642537476       12.7977750000  MEMB      6               0.0000000000
       613         6  CHL1      H7B            10.1241542048        7.9083482091       13.3396250000  MEMB      6               0.0000000000
       614         6  CHL1      C8              8.3064950435        8.4510014469       12.3056850000  MEMB      6               0.0000000000
       615         6  CHL1      H8              7.7310428310        9.3972780685       12.2177050000  MEMB      6               0.0000000000
       616         6  CHL1      C14             8.8591982538        8.0178215724       10.9734450000  MEMB      6               0.0000000000
       617         6  CHL1      H14             9.6074487204        7.2341883444       11.2191750000  MEMB      6               0.0000000000
       618         6  CHL1      C15             9.6680100196        9.1107519833       10.2378750000  MEMB      6               0.0000000000
       619         6  CHL1      H15A            9.0144101430       10.0085500335       10.2049050000  MEMB      6               0.0000000000
       620         6  CHL1      H15B           10.6999887159        9.1932089098       10.6410350000  MEMB      6               0.0000000000
       621         6  CHL1      C16             9.6710311437        8.6838166466        8.7541150000  MEMB      6               0.0000000000
       622         6  CHL1      H16A            9.3373760939        9.4863436947        8.0620550000  MEMB      6               0.0000000000
       623         6  CHL1      H16B           10.7211087872        8.3542658536        8.6023150000  MEMB      6               0.0000000000
       624         6  CHL1      C17             8.7319670807        7.4629230317        8.6874850000  MEMB      6               0.0000000000
       625         6  CHL1      H17             9.3057157155        6.5432412804        8.9310450000  MEMB      6               0.0000000000
       626         6  CHL1      C13             7.7694893528        7.5981891190        9.9536050000  MEMB      6               0.0000000000
       627         6  CHL1      C18             6.6386643870        8.6720007595        9.6760650000  MEMB      6               0.0000000000
       628         6  CHL1      H18A            6.9816863379        9.6092632958        9.1880150000  MEMB      6               0.0000000000
       629         6  CHL1      H18B            5.7490944361        8.2218680762        9.1857950000  MEMB      6               0.0000000000
       630         6  CHL1      H18C            6.2361488909        8.9302390523       10.6788750000  MEMB      6               0.0000000000
       631         6  CHL1      C12             7.1138302486        6.3708232393       10.6184750000  MEMB      6               0.0000000000
       632         6  CHL1      H12A            6.3456487109        6.1035448564        9.8616550000  MEMB      6               0.0000000000
       633         6  CHL1      H12B            7.8267992202        5.5188332098       10.6286550000  MEMB      6               0.0000000000
       634         6  CHL1      C11             6.5364473388        6.6404997410       12.0313250000  MEMB      6               0.0000000000
       635         6  CHL1      H11A            5.7060191407        7.3675532213       11.9043650000  MEMB      6               0.0000000000
       636         6  CHL1      H11B            6.1669233975        5.6746418518       12.4374050000  MEMB      6               0.0000000000
       637         6  CHL1      C9              7.4868768150        7.3474085193       12.9857850000  MEMB      6               0.0000000000
       638         6  CHL1      H9              8.2925169765        6.6339500838       13.2618950000  MEMB      6               0.0000000000
       639         6  CHL1      C10             6.8497720573        7.8400656349       14.3645650000  MEMB      6               0.0000000000
       640         6  CHL1      C19             5.7196675124        8.8962157977       14.1038650000  MEMB      6               0.0000000000
       641         6  CHL1      H19A            6.1021877963        9.7756747235       13.5430150000  MEMB      6               0.0000000000
       642         6  CHL1      H19B            4.8767611246        8.4300554297       13.5502150000  MEMB      6               0.0000000000
       643         6  CHL1      H19C            5.2300118373        9.1929684216       15.0559650000  MEMB      6               0.0000000000
       644         6  CHL1      C1              6.1822621086        6.6551508127       15.1353250000  MEMB      6               0.0000000000
       645         6  CHL1      H1A             5.2328356837        6.4158845709       14.6103050000  MEMB      6               0.0000000000
       646         6  CHL1      H1B             6.7917350175        5.7283539553       15.0726050000  MEMB      6               0.0000000000
       647         6  CHL1      C2              6.0623912255        6.7978603506       16.6477050000  MEMB      6               0.0000000000
       648         6  CHL1      H2A             5.8477371257        5.7961080957       17.0774850000  MEMB      6               0.0000000000
       649         6  CHL1      H2B             5.3320882305        7.6172917232       16.8194850000  MEMB      6               0.0000000000
       650         6  CHL1      C20             8.1150005299        7.1766003436        7.3060250000  MEMB      6               0.0000000000
       651         6  CHL1      H20             7.3582580753        7.9649109150        7.1054650000  MEMB      6               0.0000000000
       652         6  CHL1      C21             7.3876297474        5.7975786718        7.1941850000  MEMB      6               0.0000000000
       653         6  CHL1      H21A            8.0520003090        4.9344034226        7.4129650000  MEMB      6               0.0000000000
       654         6  CHL1      H21B            7.0325961236        5.7224687151        6.1441250000  MEMB      6               0.0000000000
       655         6  CHL1      H21C            6.4244939345        5.7261074767        7.7433450000  MEMB      6               0.0000000000
       656         6  CHL1      C22             9.3449495795        7.3159185129        6.3523550000  MEMB      6               0.0000000000
       657         6  CHL1      H22A            9.6032724188        8.3949391195        6.4097650000  MEMB      6               0.0000000000
       658         6  CHL1      H22B           10.1742370919        6.7360892498        6.8110750000  MEMB      6               0.0000000000
       659         6  CHL1      C23             9.2362127886        6.8524244384        4.9081050000  MEMB      6               0.0000000000
       660         6  CHL1      H23A           10.2066541240        6.9612625098        4.3782750000  MEMB      6               0.0000000000
       661         6  CHL1      H23B            9.0147317482        5.7710343698        5.0340550000  MEMB      6               0.0000000000
       662         6  CHL1      C24             8.0948581458        7.5797067618        4.1994350000  MEMB      6               0.0000000000
       663         6  CHL1      H24A            7.2044724728        7.6666627248        4.8582050000  MEMB      6               0.0000000000
       664         6  CHL1      H24B            8.4690838681        8.6057861160        3.9958950000  MEMB      6               0.0000000000
       665         6  CHL1      C25             7.6612767158        7.1787257890        2.7551150000  MEMB      6               0.0000000000
       666         6  CHL1      H25             7.2498699612        6.1590973451        2.9145550000  MEMB      6               0.0000000000
       667         6  CHL1      C26             6.6121519663        8.0901152181        2.1955450000  MEMB      6               0.0000000000
       668         6  CHL1      H26A            6.9865498927        9.1360377285        2.2094750000  MEMB      6               0.0000000000
       669         6  CHL1      H26B            6.2853405086        7.6507729429        1.2288550000  MEMB      6               0.0000000000
       670         6  CHL1      H26C            5.7303448915        8.0619005574        2.8707850000  MEMB      6               0.0000000000
       671         6  CHL1      C27             8.8763334656        7.0641135224        1.7264050000  MEMB      6               0.0000000000
       672         6  CHL1      H27A            9.3578744148        8.0570624057        1.8548550000  MEMB      6               0.0000000000
       673         6  CHL1      H27B            9.5719708075        6.2363137866        1.9816150000  MEMB      6               0.0000000000
       674         6  CHL1      H27C            8.4562702360        7.0033375938        0.6996750000  MEMB      6               0.0000000000
       675         7  OSM       N              -8.5482820957       -7.4077293084       21.2960136164  MEMB      7               0.0000000000
       676         7  OSM       C15            -7.7722455520       -6.2449994180       21.6388140110  MEMB      7               0.0000000000
       677         7  OSM       H15A           -6.7212536458       -6.3495176787       21.4132215010  MEMB      7               0.0000000000
       678         7  OSM       H15B           -7.9438488931       -6.1119003895       22.6967539898  MEMB      7               0.0000000000
       679         7  OSM       H15C           -8.1612801556       -5.3829650966       21.1173266496  MEMB      7               0.0000000000
       680         7  OSM       C14            -8.6339711372       -7.6799589162       19.7594228087  MEMB      7               0.0000000000
       681         7  OSM       H14A           -9.0384920765       -6.7990247281       19.2832738321  MEMB      7               0.0000000000
       682         7  OSM       H14B           -9.2777980033       -8.5310449158       19.5934708970  MEMB      7               0.0000000000
       683         7  OSM       H14C           -7.6604163925       -8.0399045620       19.4610435174  MEMB      7               0.0000000000
       684         7  OSM       C13            -8.1776339746       -8.6592979211       22.0591021390  MEMB      7               0.0000000000
       685         7  OSM       H13A           -8.3634031376       -8.4790966411       23.1076330869  MEMB      7               0.0000000000
       686         7  OSM       H13B           -7.1279676563       -8.8684169126       21.9146382795  MEMB      7               0.0000000000
       687         7  OSM       H13C           -8.7160683213       -9.5673491112       21.8312176433  MEMB      7               0.0000000000
       688         7  OSM       C12           -10.0574827051       -7.1613486380       21.7346503547  MEMB      7               0.0000000000
       689         7  OSM       H12A          -10.0680916643       -6.8853570148       22.7787366116  MEMB      7               0.0000000000
       690         7  OSM       H12B          -10.5766754885       -8.1079724646       21.7074056669  MEMB      7               0.0000000000
       691         7  OSM       C11           -10.9159983895       -6.1358228919       20.9614096602  MEMB      7               0.0000000000
       692         7  OSM       H11A          -11.9966593465       -6.3177571188       21.1441466554  MEMB      7               0.0000000000
       693         7  OSM       H11B          -10.8400265757       -6.2708266634       19.8612627911  MEMB      7               0.0000000000
       694         7  OSM       P             -11.2626922270       -3.5446640799       20.7120024243  MEMB      7               0.0000000000
       695         7  OSM       O13           -12.6392167433       -3.5515011489       21.2427882376  MEMB      7               0.0000000000
       696         7  OSM       O14           -10.5131972087       -2.3279650048       21.0370526528  MEMB      7               0.0000000000
       697         7  OSM       O11           -11.2665046577       -3.8235743650       19.2185257779  MEMB      7               0.0000000000
       698         7  OSM       O12           -10.4715866080       -4.8199552638       21.3402183149  MEMB      7               0.0000000000
       699         7  OSM       C1S           -10.2622461168       -3.3771118395       18.2673173596  MEMB      7               0.0000000000
       700         7  OSM       H1S            -9.2862760097       -3.4558869896       18.7922914654  MEMB      7               0.0000000000
       701         7  OSM       H1T           -10.3653435261       -2.3265944273       17.9207553649  MEMB      7               0.0000000000
       702         7  OSM       NF             -9.1290580635       -3.8963913104       16.0481565523  MEMB      7               0.0000000000
       703         7  OSM       HNF            -9.4109312893       -3.4898010030       15.1825693759  MEMB      7               0.0000000000
       704         7  OSM       C2S           -10.2052510160       -4.2478172530       16.9506080025  MEMB      7               0.0000000000
       705         7  OSM       H2S           -10.0366225312       -5.2667556086       17.3600588951  MEMB      7               0.0000000000
       706         7  OSM       C3S           -11.5942371374       -4.2039625567       16.1805883626  MEMB      7               0.0000000000
       707         7  OSM       H3S           -11.8246128795       -3.1228651395       16.0688903102  MEMB      7               0.0000000000
       708         7  OSM       O3            -12.6631529040       -4.8785307790       16.9299059978  MEMB      7               0.0000000000
       709         7  OSM       HO3           -12.3838942066       -4.9168817740       17.8475898685  MEMB      7               0.0000000000
       710         7  OSM       C4S           -11.4943175655       -4.7936281627       14.8151149784  MEMB      7               0.0000000000
       711         7  OSM       H4S           -10.9708046200       -5.7558994956       14.7152746450  MEMB      7               0.0000000000
       712         7  OSM       C5S           -12.1033463235       -4.2257305978       13.7940311341  MEMB      7               0.0000000000
       713         7  OSM       H5S           -12.5731868720       -3.2570938058       14.0198467169  MEMB      7               0.0000000000
       714         7  OSM       C6S           -12.0880995324       -4.7086647963       12.3759856972  MEMB      7               0.0000000000
       715         7  OSM       H6S           -11.6780445920       -3.8884564128       11.7487416992  MEMB      7               0.0000000000
       716         7  OSM       H6T           -13.1451361570       -4.7570007739       12.0373728143  MEMB      7               0.0000000000
       717         7  OSM       C7S           -11.5791327985       -6.1148382086       12.0408270088  MEMB      7               0.0000000000
       718         7  OSM       H7S           -11.9104727645       -6.8756578124       12.7795344944  MEMB      7               0.0000000000
       719         7  OSM       H7T           -10.4771933403       -6.2435180994       12.0999197259  MEMB      7               0.0000000000
       720         7  OSM       C8S           -12.1827573748       -6.6536670767       10.7436165992  MEMB      7               0.0000000000
       721         7  OSM       H8S           -11.7492075616       -6.1278081717        9.8662179071  MEMB      7               0.0000000000
       722         7  OSM       H8T           -13.2337053050       -6.3690357802       10.5226767254  MEMB      7               0.0000000000
       723         7  OSM       C9S           -11.9349474187       -8.2114707451       10.5325979873  MEMB      7               0.0000000000
       724         7  OSM       H9S           -12.5113460140       -8.5789334978        9.6567801926  MEMB      7               0.0000000000
       725         7  OSM       H9T           -12.4681000971       -8.7378441969       11.3529631386  MEMB      7               0.0000000000
       726         7  OSM       C10S          -10.4730829119       -8.5162980871       10.5363662809  MEMB      7               0.0000000000
       727         7  OSM       H10S          -10.2403284037       -9.6015929850       10.5841291571  MEMB      7               0.0000000000
       728         7  OSM       H10T          -10.0169843610       -8.2844004854       11.5225298803  MEMB      7               0.0000000000
       729         7  OSM       C11S           -9.6624161234       -7.8703061170        9.3994137863  MEMB      7               0.0000000000
       730         7  OSM       H11S           -8.5910514754       -8.1100909295        9.5697135071  MEMB      7               0.0000000000
       731         7  OSM       H11T           -9.7116892359       -6.7631755662        9.4778696578  MEMB      7               0.0000000000
       732         7  OSM       C12S           -9.9739220751       -8.3106231900        7.9394301761  MEMB      7               0.0000000000
       733         7  OSM       H12S          -10.9807180671       -7.9556900349        7.6316876462  MEMB      7               0.0000000000
       734         7  OSM       H12T          -10.0906557805       -9.4148811651        7.9755992398  MEMB      7               0.0000000000
       735         7  OSM       C13S           -8.8927188408       -8.0405933568        6.7990306140  MEMB      7               0.0000000000
       736         7  OSM       H13S           -9.2522793531       -8.5131296828        5.8600164769  MEMB      7               0.0000000000
       737         7  OSM       H13T           -7.8966473767       -8.4096011127        7.1246006204  MEMB      7               0.0000000000
       738         7  OSM       C14S           -8.7057001385       -6.5969676505        6.3686432106  MEMB      7               0.0000000000
       739         7  OSM       H14S           -7.8658205434       -6.4336155842        5.6599544320  MEMB      7               0.0000000000
       740         7  OSM       H14T           -8.5356213325       -6.0049899290        7.2932810770  MEMB      7               0.0000000000
       741         7  OSM       C15S          -10.0231536071       -5.8998156847        5.8235064238  MEMB      7               0.0000000000
       742         7  OSM       H15S           -9.8688339217       -4.8004154496        5.8662324583  MEMB      7               0.0000000000
       743         7  OSM       H15T          -10.8474925941       -6.0379690185        6.5554221443  MEMB      7               0.0000000000
       744         7  OSM       C16S          -10.4732129524       -6.3421611808        4.4242171374  MEMB      7               0.0000000000
       745         7  OSM       H16S          -11.4929552958       -5.9301254069        4.2671399739  MEMB      7               0.0000000000
       746         7  OSM       H16T          -10.4253233228       -7.4422304339        4.2763145922  MEMB      7               0.0000000000
       747         7  OSM       C17S           -9.6959235499       -5.6664827224        3.3066367454  MEMB      7               0.0000000000
       748         7  OSM       H17S           -8.7268672185       -6.2079094456        3.2607239674  MEMB      7               0.0000000000
       749         7  OSM       H17T           -9.4949673953       -4.5840510703        3.4558977859  MEMB      7               0.0000000000
       750         7  OSM       C18S          -10.2471989545       -5.7831875861        1.8433790580  MEMB      7               0.0000000000
       751         7  OSM       H18S           -9.5404943885       -5.4851644158        1.0395917660  MEMB      7               0.0000000000
       752         7  OSM       H18T          -11.0847305346       -5.0569928078        1.7691962233  MEMB      7               0.0000000000
       753         7  OSM       H18U          -10.6718984660       -6.7854822166        1.6212133675  MEMB      7               0.0000000000
       754         7  OSM       C1F            -7.8372050642       -3.7825245444       16.4936472842  MEMB      7               0.0000000000
       755         7  OSM       OF             -7.4293514160       -4.4698684517       17.4047328343  MEMB      7               0.0000000000
       756         7  OSM       C2F            -7.0010512097       -2.6140965912       15.8870039329  MEMB      7               0.0000000000
       757         7  OSM       H2F            -6.2830507419       -2.2630696633       16.6587400867  MEMB      7               0.0000000000
       758         7  OSM       H2G            -7.6346064150       -1.7955385301       15.4834060521  MEMB      7               0.0000000000
       759         7  OSM       C3F            -6.1706991009       -3.2793558618       14.8196141470  MEMB      7               0.0000000000
       760         7  OSM       H3F            -5.3851444226       -3.9742718419       15.1861067199  MEMB      7               0.0000000000
       761         7  OSM       H3G            -5.5809098646       -2.4337123673       14.4056619758  MEMB      7               0.0000000000
       762         7  OSM       C4F            -6.9429565180       -3.9263917442       13.6369474640  MEMB      7               0.0000000000
       763         7  OSM       H4F            -7.9081358873       -3.3854922970       13.5360627218  MEMB      7               0.0000000000
       764         7  OSM       H4G            -7.2182531450       -4.9960814818       13.7565158053  MEMB      7               0.0000000000
       765         7  OSM       C5F            -6.2651245909       -3.7963169950       12.2897460213  MEMB      7               0.0000000000
       766         7  OSM       H5F            -5.3306916228       -4.3413587860       12.0365944156  MEMB      7               0.0000000000
       767         7  OSM       H5G            -5.8139807235       -2.7836387141       12.2171302967  MEMB      7               0.0000000000
       768         7  OSM       C6F            -7.1996364772       -4.0095484628       11.1128699581  MEMB      7               0.0000000000
       769         7  OSM       H6F            -7.9678029449       -3.2136412734       11.2166649093  MEMB      7               0.0000000000
       770         7  OSM       H6G            -7.6772436652       -5.0066837081       11.2221115047  MEMB      7               0.0000000000
       771         7  OSM       C7F            -6.5665253888       -3.8532809670        9.7495241299  MEMB      7               0.0000000000
       772         7  OSM       H7F            -6.0097348043       -4.7997616722        9.5807653074  MEMB      7               0.0000000000
       773         7  OSM       H7G            -5.7840968644       -3.0658728737        9.7035336632  MEMB      7               0.0000000000
       774         7  OSM       C8F            -7.5995044401       -3.6655058499        8.5760804112  MEMB      7               0.0000000000
       775         7  OSM       H8F            -8.5657560321       -4.1559910118        8.8212392660  MEMB      7               0.0000000000
       776         7  OSM       H8G            -7.1256226153       -4.1944212750        7.7216767389  MEMB      7               0.0000000000
       777         7  OSM       C9F            -7.9113114848       -2.2084826513        8.3295369764  MEMB      7               0.0000000000
       778         7  OSM       H9F            -8.3380292403       -1.7178258932        9.2167620621  MEMB      7               0.0000000000
       779         7  OSM       C10F           -7.6466195079       -1.5032059784        7.1982801377  MEMB      7               0.0000000000
       780         7  OSM       H10F           -7.9714584383       -0.4530971333        7.2401249326  MEMB      7               0.0000000000
       781         7  OSM       C11F           -6.9711593133       -1.9250509835        5.8685259921  MEMB      7               0.0000000000
       782         7  OSM       H11F           -6.9340324906       -3.0354103238        5.8752152965  MEMB      7               0.0000000000
       783         7  OSM       H11G           -5.9466761968       -1.5044274268        5.9570206523  MEMB      7               0.0000000000
       784         7  OSM       C12F           -7.6709582585       -1.3608901396        4.6336482965  MEMB      7               0.0000000000
       785         7  OSM       H12F           -7.7669610196       -0.2542843707        4.6566465451  MEMB      7               0.0000000000
       786         7  OSM       H12G           -8.6766245567       -1.8328815066        4.6470847701  MEMB      7               0.0000000000
       787         7  OSM       C13F           -6.9288006696       -1.7808265957        3.3727436519  MEMB      7               0.0000000000
       788         7  OSM       H13F           -6.7071037624       -2.8694821495        3.3721455510  MEMB      7               0.0000000000
       789         7  OSM       H13G           -5.9920769981       -1.1873152705        3.3048141192  MEMB      7               0.0000000000
       790         7  OSM       C14F           -7.7824939871       -1.6774812619        2.0769172348  MEMB      7               0.0000000000
       791         7  OSM       H14F           -8.1852237448       -0.6669917616        1.8509954830  MEMB      7               0.0000000000
       792         7  OSM       H14G           -8.6499497928       -2.3121412752        2.3580721337  MEMB      7               0.0000000000
       793         7  OSM       C15F           -7.0644982796       -2.2954181645        0.8677650430  MEMB      7               0.0000000000
       794         7  OSM       H15F           -6.5983730506       -3.2152628651        1.2812065281  MEMB      7               0.0000000000
       795         7  OSM       H15G           -6.2957615678       -1.5840119898        0.4972687077  MEMB      7               0.0000000000
       796         7  OSM       C16F           -7.9585261592       -2.6121740263       -0.3018155904  MEMB      7               0.0000000000
       797         7  OSM       H16F           -8.0953066836       -1.6642747091       -0.8649314511  MEMB      7               0.0000000000
       798         7  OSM       H16G           -8.9699924719       -3.0131753814       -0.0771939769  MEMB      7               0.0000000000
       799         7  OSM       C17F           -7.4349458238       -3.6727968752       -1.2560603314  MEMB      7               0.0000000000
       800         7  OSM       H17F           -7.6367574606       -4.6016191238       -0.6808378936  MEMB      7               0.0000000000
       801         7  OSM       H17G           -6.3455284368       -3.5356401969       -1.4254086021  MEMB      7               0.0000000000
       802         7  OSM       C18F           -8.3105054608       -3.7260507242       -2.4804363652  MEMB      7               0.0000000000
       803         7  OSM       H18F           -8.2706438932       -4.6942392793       -3.0238902259  MEMB      7               0.0000000000
       804         7  OSM       H18G           -8.0595594304       -2.9642040912       -3.2491600421  MEMB      7               0.0000000000
       805         7  OSM       H18H           -9.3812560879       -3.6782553571       -2.1879805732  MEMB      7               0.0000000000
       806         8  CHL1      C3             11.5816397675        1.2115519654       17.3600800000  MEMB      8               0.0000000000
       807         8  CHL1      H3             11.9850427986        2.2466451462       17.3733400000  MEMB      8               0.0000000000
       808         8  CHL1      O3             11.3847264325        0.6835621546       18.6399200000  MEMB      8               0.0000000000
       809         8  CHL1      H3'            11.3330855780        1.4652786512       19.1947700000  MEMB      8               0.0000000000
       810         8  CHL1      C4             10.1755563406        1.2653779684       16.7069300000  MEMB      8               0.0000000000
       811         8  CHL1      H4A             9.6920761058        0.2762533601       16.8558900000  MEMB      8               0.0000000000
       812         8  CHL1      H4B             9.6946987994        2.0977120991       17.2640000000  MEMB      8               0.0000000000
       813         8  CHL1      C5             10.2191351907        1.5157544783       15.2474600000  MEMB      8               0.0000000000
       814         8  CHL1      C6              9.4449763137        2.5189543675       14.6900600000  MEMB      8               0.0000000000
       815         8  CHL1      H6              8.8261204870        3.1297679518       15.3638100000  MEMB      8               0.0000000000
       816         8  CHL1      C7              9.4912007766        2.8954952338       13.2683900000  MEMB      8               0.0000000000
       817         8  CHL1      H7A             8.4783150146        3.1633227172       12.8987100000  MEMB      8               0.0000000000
       818         8  CHL1      H7B            10.1028284847        3.8229664464       13.2733700000  MEMB      8               0.0000000000
       819         8  CHL1      C8             10.1614798111        1.8695652674       12.4235300000  MEMB      8               0.0000000000
       820         8  CHL1      H8              9.4295491419        1.0483939031       12.2676800000  MEMB      8               0.0000000000
       821         8  CHL1      C14            10.5706265836        2.4979460267       11.0546000000  MEMB      8               0.0000000000
       822         8  CHL1      H14            11.4479000405        3.1173059472       11.3394000000  MEMB      8               0.0000000000
       823         8  CHL1      C15             9.4850905401        3.3008520443       10.3408300000  MEMB      8               0.0000000000
       824         8  CHL1      H15A            8.5862084954        2.6596074115       10.4638400000  MEMB      8               0.0000000000
       825         8  CHL1      H15B            9.4865895189        4.3658703846       10.6571300000  MEMB      8               0.0000000000
       826         8  CHL1      C16             9.7389208892        3.1476238850        8.8449100000  MEMB      8               0.0000000000
       827         8  CHL1      H16A            8.7970458909        2.8062393837        8.3646300000  MEMB      8               0.0000000000
       828         8  CHL1      H16B            9.9620989990        4.1679237042        8.4661100000  MEMB      8               0.0000000000
       829         8  CHL1      C17            11.0951144936        2.3027751013        8.7902400000  MEMB      8               0.0000000000
       830         8  CHL1      H17            11.9955791311        2.9379377443        8.9318200000  MEMB      8               0.0000000000
       831         8  CHL1      C13            11.0388877610        1.4266238073       10.0703400000  MEMB      8               0.0000000000
       832         8  CHL1      C18             9.9502520265        0.3795096614        9.7681800000  MEMB      8               0.0000000000
       833         8  CHL1      H18A            9.6721167511       -0.1641555561       10.6962900000  MEMB      8               0.0000000000
       834         8  CHL1      H18B            9.0103471485        0.8123131248        9.3637200000  MEMB      8               0.0000000000
       835         8  CHL1      H18C           10.3124437182       -0.4721686200        9.1535400000  MEMB      8               0.0000000000
       836         8  CHL1      C12            12.3213123542        0.8932730619       10.6851000000  MEMB      8               0.0000000000
       837         8  CHL1      H12A           12.7164269491        0.1031597230       10.0113600000  MEMB      8               0.0000000000
       838         8  CHL1      H12B           13.1350848731        1.6323574301       10.5243300000  MEMB      8               0.0000000000
       839         8  CHL1      C11            12.1860863421        0.3549830229       12.0829100000  MEMB      8               0.0000000000
       840         8  CHL1      H11A           11.5131250608       -0.5229630285       11.9797700000  MEMB      8               0.0000000000
       841         8  CHL1      H11B           13.2408564857        0.1551611656       12.3690200000  MEMB      8               0.0000000000
       842         8  CHL1      C9             11.4889516957        1.2961004991       13.0429000000  MEMB      8               0.0000000000
       843         8  CHL1      H9             12.0686669829        2.2363554277       13.1620000000  MEMB      8               0.0000000000
       844         8  CHL1      C10            11.2383509820        0.7279186014       14.4654300000  MEMB      8               0.0000000000
       845         8  CHL1      C19            10.6483698992       -0.7375673922       14.2794100000  MEMB      8               0.0000000000
       846         8  CHL1      H19A           10.2367228074       -1.1477555108       15.2263100000  MEMB      8               0.0000000000
       847         8  CHL1      H19B            9.8516015904       -0.7272167073       13.5052300000  MEMB      8               0.0000000000
       848         8  CHL1      H19C           11.3913805434       -1.4793474034       13.9160600000  MEMB      8               0.0000000000
       849         8  CHL1      C1             12.6114190440        0.6483722196       15.1211400000  MEMB      8               0.0000000000
       850         8  CHL1      H1A            13.2415002110       -0.0437499616       14.5225600000  MEMB      8               0.0000000000
       851         8  CHL1      H1B            13.1514550336        1.6185661704       15.0837400000  MEMB      8               0.0000000000
       852         8  CHL1      C2             12.5336785213        0.2869826626       16.6335500000  MEMB      8               0.0000000000
       853         8  CHL1      H2A            13.5808089355        0.2707122180       17.0044600000  MEMB      8               0.0000000000
       854         8  CHL1      H2B            12.2139524639       -0.7652735556       16.7911700000  MEMB      8               0.0000000000
       855         8  CHL1      C20            11.2081012503        1.6375446909        7.3700500000  MEMB      8               0.0000000000
       856         8  CHL1      H20            10.2874017625        1.0532591590        7.1573100000  MEMB      8               0.0000000000
       857         8  CHL1      C21            12.2807066004        0.5181362638        7.3111700000  MEMB      8               0.0000000000
       858         8  CHL1      H21A           13.2999024238        0.8925350242        7.5465400000  MEMB      8               0.0000000000
       859         8  CHL1      H21B           12.3116116570        0.0340213312        6.3116800000  MEMB      8               0.0000000000
       860         8  CHL1      H21C           11.9613472782       -0.3321763414        7.9509400000  MEMB      8               0.0000000000
       861         8  CHL1      C22            11.4258786750        2.7535155543        6.3268400000  MEMB      8               0.0000000000
       862         8  CHL1      H22A           10.5213205572        3.3980284047        6.3532900000  MEMB      8               0.0000000000
       863         8  CHL1      H22B           12.3132841818        3.4055332589        6.4741500000  MEMB      8               0.0000000000
       864         8  CHL1      C23            11.3583342023        2.2266102304        4.8460800000  MEMB      8               0.0000000000
       865         8  CHL1      H23A           12.1151111311        1.4907411505        4.4995100000  MEMB      8               0.0000000000
       866         8  CHL1      H23B           10.4171784955        1.6403113663        4.7767300000  MEMB      8               0.0000000000
       867         8  CHL1      C24            11.2785916951        3.4032026159        3.8430300000  MEMB      8               0.0000000000
       868         8  CHL1      H24A           10.3389672541        3.9947622513        3.8815200000  MEMB      8               0.0000000000
       869         8  CHL1      H24B           12.1014663615        4.1388854975        3.9694600000  MEMB      8               0.0000000000
       870         8  CHL1      C25            11.3765265833        2.9715789146        2.3970400000  MEMB      8               0.0000000000
       871         8  CHL1      H25            11.3662532280        3.8363323657        1.6996100000  MEMB      8               0.0000000000
       872         8  CHL1      C26            12.8091741651        2.4295424970        2.0512900000  MEMB      8               0.0000000000
       873         8  CHL1      H26A           13.0711212477        1.4522573617        2.5102300000  MEMB      8               0.0000000000
       874         8  CHL1      H26B           12.8320155639        2.1950942302        0.9655500000  MEMB      8               0.0000000000
       875         8  CHL1      H26C           13.5512754107        3.2503972021        2.1503000000  MEMB      8               0.0000000000
       876         8  CHL1      C27            10.3253461431        1.8855103925        2.0241700000  MEMB      8               0.0000000000
       877         8  CHL1      H27A           10.3618409144        1.0905424295        2.7994100000  MEMB      8               0.0000000000
       878         8  CHL1      H27B            9.3383326280        2.3954652526        2.0152600000  MEMB      8               0.0000000000
       879         8  CHL1      H27C           10.4438000446        1.3945942280        1.0345800000  MEMB      8               0.0000000000
       880         9  OSM       N               3.9265402545       -9.9955726035       21.1845171365  MEMB      9               0.0000000000
       881         9  OSM       C15             4.3679702484       -8.5530912883       21.6051328966  MEMB      9               0.0000000000
       882         9  OSM       H15A            5.0055038976       -8.2252302518       20.7973841329  MEMB      9               0.0000000000
       883         9  OSM       H15B            4.9657168816       -8.6182435241       22.5022695562  MEMB      9               0.0000000000
       884         9  OSM       H15C            3.5059310360       -7.9151208669       21.7327345474  MEMB      9               0.0000000000
       885         9  OSM       C14             3.0995127510       -9.9090539612       19.9145949159  MEMB      9               0.0000000000
       886         9  OSM       H14A            2.1677217991       -9.4361405861       20.1875757163  MEMB      9               0.0000000000
       887         9  OSM       H14B            2.7667008423      -10.8750668413       19.5646585636  MEMB      9               0.0000000000
       888         9  OSM       H14C            3.4583431207       -9.2611100575       19.1285863680  MEMB      9               0.0000000000
       889         9  OSM       C13             5.1254479944      -10.8273248460       20.7688590325  MEMB      9               0.0000000000
       890         9  OSM       H13A            5.6824798321      -10.3258287897       19.9912876402  MEMB      9               0.0000000000
       891         9  OSM       H13B            4.8172963682      -11.8302206690       20.5126505646  MEMB      9               0.0000000000
       892         9  OSM       H13C            5.7804115909      -10.8726807558       21.6263935697  MEMB      9               0.0000000000
       893         9  OSM       C12             3.1117899300      -10.6372735725       22.1917888395  MEMB      9               0.0000000000
       894         9  OSM       H12A            2.1950032697      -10.0914370681       22.3590154932  MEMB      9               0.0000000000
       895         9  OSM       H12B            3.6917928168      -10.6150281584       23.1025587479  MEMB      9               0.0000000000
       896         9  OSM       C11             2.7217606986      -12.1771506805       22.1034076421  MEMB      9               0.0000000000
       897         9  OSM       H11A            2.0953797557      -12.3950247808       22.9947543063  MEMB      9               0.0000000000
       898         9  OSM       H11B            3.6428968352      -12.7333831524       22.3798758549  MEMB      9               0.0000000000
       899         9  OSM       P               1.5639609637      -14.0558247784       20.7225064239  MEMB      9               0.0000000000
       900         9  OSM       O13             2.1576689376      -15.0370302127       21.6637222127  MEMB      9               0.0000000000
       901         9  OSM       O14             0.0636853946      -13.9064886144       20.8046336747  MEMB      9               0.0000000000
       902         9  OSM       O11             1.9446068755      -14.5055738716       19.2248432716  MEMB      9               0.0000000000
       903         9  OSM       O12             2.2011176739      -12.5814044717       20.8159939587  MEMB      9               0.0000000000
       904         9  OSM       C1S             2.2775599713      -13.5892814643       18.1957852359  MEMB      9               0.0000000000
       905         9  OSM       H1S             3.3720375563      -13.4053520871       18.2468713756  MEMB      9               0.0000000000
       906         9  OSM       H1T             1.7717010707      -12.6028937575       18.2697240596  MEMB      9               0.0000000000
       907         9  OSM       NF              2.0548611722      -12.8639268561       15.8217296502  MEMB      9               0.0000000000
       908         9  OSM       HNF             1.1756412541      -12.6985881651       15.3816789861  MEMB      9               0.0000000000
       909         9  OSM       C2S             1.8737596016      -14.0244491753       16.7477237555  MEMB      9               0.0000000000
       910         9  OSM       H2S             2.5599473871      -14.8312595444       16.4122771712  MEMB      9               0.0000000000
       911         9  OSM       C3S             0.3761774488      -14.4858525451       16.5869230488  MEMB      9               0.0000000000
       912         9  OSM       H3S            -0.3161402348      -13.6581235878       16.8512754775  MEMB      9               0.0000000000
       913         9  OSM       O3              0.1638197375      -15.6018074172       17.4091538680  MEMB      9               0.0000000000
       914         9  OSM       HO3             1.0802194220      -15.8556242800       17.5410189748  MEMB      9               0.0000000000
       915         9  OSM       C4S             0.0164430658      -14.8288210444       15.1575840926  MEMB      9               0.0000000000
       916         9  OSM       H4S             0.4928225898      -15.7343838973       14.7538281899  MEMB      9               0.0000000000
       917         9  OSM       C5S            -0.9135542220      -14.3310226309       14.3473091561  MEMB      9               0.0000000000
       918         9  OSM       H5S            -1.5008747987      -13.4172202160       14.5205716156  MEMB      9               0.0000000000
       919         9  OSM       C6S            -1.0944672638      -14.9140893876       12.8952493369  MEMB      9               0.0000000000
       920         9  OSM       H6S            -1.8884460523      -14.2696965866       12.4608804583  MEMB      9               0.0000000000
       921         9  OSM       H6T            -1.4476020104      -15.9656486867       12.9572143389  MEMB      9               0.0000000000
       922         9  OSM       C7S             0.2025927781      -14.7914493628       12.0001522547  MEMB      9               0.0000000000
       923         9  OSM       H7S             0.0771934329      -15.2753014322       11.0079408464  MEMB      9               0.0000000000
       924         9  OSM       H7T             1.0331679074      -15.2750735002       12.5574435431  MEMB      9               0.0000000000
       925         9  OSM       C8S             0.5746363987      -13.2799033789       11.7122493657  MEMB      9               0.0000000000
       926         9  OSM       H8S             1.5910691696      -13.4406192030       11.2934947059  MEMB      9               0.0000000000
       927         9  OSM       H8T             0.7259835450      -12.6743850640       12.6313589449  MEMB      9               0.0000000000
       928         9  OSM       C9S            -0.4380060621      -12.6131982620       10.7466696083  MEMB      9               0.0000000000
       929         9  OSM       H9S            -1.3697406885      -12.4579033902       11.3315411353  MEMB      9               0.0000000000
       930         9  OSM       H9T            -0.6741804078      -13.3442940663        9.9441470706  MEMB      9               0.0000000000
       931         9  OSM       C10S           -0.1040923238      -11.1469986506       10.3108072666  MEMB      9               0.0000000000
       932         9  OSM       H10S            0.4788966993      -10.7372940036       11.1632074860  MEMB      9               0.0000000000
       933         9  OSM       H10T           -1.0655993902      -10.5912621762       10.2794647398  MEMB      9               0.0000000000
       934         9  OSM       C11S            0.4862490319      -11.0946628618        8.9092440235  MEMB      9               0.0000000000
       935         9  OSM       H11S            1.3556320533      -11.7833920760        8.8448544882  MEMB      9               0.0000000000
       936         9  OSM       H11T            0.9467048978      -10.1016326113        8.7190006002  MEMB      9               0.0000000000
       937         9  OSM       C12S           -0.3928895789      -11.5220680849        7.7709761741  MEMB      9               0.0000000000
       938         9  OSM       H12S           -1.3090608012      -10.9000269196        7.6814428244  MEMB      9               0.0000000000
       939         9  OSM       H12T           -0.7721004924      -12.5621211990        7.8648338463  MEMB      9               0.0000000000
       940         9  OSM       C13S            0.4318490072      -11.5493093230        6.4675729201  MEMB      9               0.0000000000
       941         9  OSM       H13S            1.2331174039      -12.3092796198        6.5889624938  MEMB      9               0.0000000000
       942         9  OSM       H13T            0.8167241001      -10.5131649756        6.3553362783  MEMB      9               0.0000000000
       943         9  OSM       C14S           -0.4117274962      -12.0516209576        5.3587186227  MEMB      9               0.0000000000
       944         9  OSM       H14S           -1.0928559857      -11.2216526444        5.0731708048  MEMB      9               0.0000000000
       945         9  OSM       H14T           -1.0062511618      -12.9731688772        5.5365164095  MEMB      9               0.0000000000
       946         9  OSM       C15S            0.5276555614      -12.3910815929        4.1929574928  MEMB      9               0.0000000000
       947         9  OSM       H15S            0.0206769137      -13.1206022365        3.5258040541  MEMB      9               0.0000000000
       948         9  OSM       H15T            1.5200463358      -12.7424109797        4.5479906010  MEMB      9               0.0000000000
       949         9  OSM       C16S            0.8806386745      -11.1788641343        3.3127378267  MEMB      9               0.0000000000
       950         9  OSM       H16S            1.4104942239      -10.4052900621        3.9086878510  MEMB      9               0.0000000000
       951         9  OSM       H16T           -0.0269980539      -10.7111059184        2.8748804392  MEMB      9               0.0000000000
       952         9  OSM       C17S            1.8248612731      -11.6903951675        2.1305561528  MEMB      9               0.0000000000
       953         9  OSM       H17S            2.6994114093      -12.2855002248        2.4701623916  MEMB      9               0.0000000000
       954         9  OSM       H17T            2.3255046025      -10.7941480053        1.7057991367  MEMB      9               0.0000000000
       955         9  OSM       C18S            1.1974189299      -12.4900868400        1.0329397733  MEMB      9               0.0000000000
       956         9  OSM       H18S            0.3334055315      -12.0343235536        0.5037123592  MEMB      9               0.0000000000
       957         9  OSM       H18T            0.6378991915      -13.3573971015        1.4440754708  MEMB      9               0.0000000000
       958         9  OSM       H18U            1.8821234469      -12.9859134389        0.3120682190  MEMB      9               0.0000000000
       959         9  OSM       C1F             3.2789924445      -12.5614554143       15.3552506285  MEMB      9               0.0000000000
       960         9  OSM       OF              4.2967164418      -12.9463097670       15.8491471995  MEMB      9               0.0000000000
       961         9  OSM       C2F             3.2200708956      -11.6004424122       14.1992702382  MEMB      9               0.0000000000
       962         9  OSM       H2F             3.3608450557      -10.5614052541       14.5665651731  MEMB      9               0.0000000000
       963         9  OSM       H2G             2.2526917389      -11.6931031740       13.6608353007  MEMB      9               0.0000000000
       964         9  OSM       C3F             4.3443307092      -11.9114292966       13.1912254351  MEMB      9               0.0000000000
       965         9  OSM       H3F             4.3172818573      -12.9661513191       12.8431580440  MEMB      9               0.0000000000
       966         9  OSM       H3G             5.3055156624      -11.6312640964       13.6728394127  MEMB      9               0.0000000000
       967         9  OSM       C4F             4.3272738038      -10.9960115175       11.9710579781  MEMB      9               0.0000000000
       968         9  OSM       H4F             4.1732229404       -9.9411904519       12.2840148518  MEMB      9               0.0000000000
       969         9  OSM       H4G             3.4539898561      -11.3289866163       11.3703721040  MEMB      9               0.0000000000
       970         9  OSM       C5F             5.6013562676      -11.1725413746       11.0912649863  MEMB      9               0.0000000000
       971         9  OSM       H5F             5.7959070009      -12.1868696630       10.6818646486  MEMB      9               0.0000000000
       972         9  OSM       H5G             6.4254848930      -10.9971385358       11.8153969828  MEMB      9               0.0000000000
       973         9  OSM       C6F             5.6570138439      -10.2722604447        9.8912563088  MEMB      9               0.0000000000
       974         9  OSM       H6F             6.6613506058      -10.3282478746        9.4195634049  MEMB      9               0.0000000000
       975         9  OSM       H6G             5.4874024305       -9.1962189610       10.1096316373  MEMB      9               0.0000000000
       976         9  OSM       C7F             4.6170544020      -10.6140486261        8.7973109695  MEMB      9               0.0000000000
       977         9  OSM       H7F             3.5652374934      -10.4858708509        9.1313351320  MEMB      9               0.0000000000
       978         9  OSM       H7G             4.7414563294      -11.7013294475        8.6058283488  MEMB      9               0.0000000000
       979         9  OSM       C8F             4.5811227384       -9.7893265396        7.4762990170  MEMB      9               0.0000000000
       980         9  OSM       H8F             4.2770373636       -8.7489627713        7.7202177010  MEMB      9               0.0000000000
       981         9  OSM       H8G             3.7411726565      -10.2215187398        6.8914786794  MEMB      9               0.0000000000
       982         9  OSM       C9F             5.9936052270       -9.8608169349        6.8311783190  MEMB      9               0.0000000000
       983         9  OSM       H9F             6.8932264326       -9.8967591657        7.4631513992  MEMB      9               0.0000000000
       984         9  OSM       C10F            6.3226335609       -9.9370947772        5.5212349273  MEMB      9               0.0000000000
       985         9  OSM       H10F            7.3771758373       -9.7943338480        5.2427381174  MEMB      9               0.0000000000
       986         9  OSM       C11F            5.4500500898       -9.9689484582        4.2589045025  MEMB      9               0.0000000000
       987         9  OSM       H11F            5.6679055123       -9.1148198301        3.5826470474  MEMB      9               0.0000000000
       988         9  OSM       H11G            4.3835250795       -9.9070681305        4.5638896809  MEMB      9               0.0000000000
       989         9  OSM       C12F            5.6372844780      -11.2164482926        3.3724847828  MEMB      9               0.0000000000
       990         9  OSM       H12F            4.9926342072      -10.9800398999        2.4990674240  MEMB      9               0.0000000000
       991         9  OSM       H12G            5.2408530295      -12.1132240335        3.8949368910  MEMB      9               0.0000000000
       992         9  OSM       C13F            7.1508865675      -11.4744223649        2.9566829469  MEMB      9               0.0000000000
       993         9  OSM       H13F            7.0740392180      -12.4332641771        2.4007707941  MEMB      9               0.0000000000
       994         9  OSM       H13G            7.7608674140      -11.5636983988        3.8809513664  MEMB      9               0.0000000000
       995         9  OSM       C14F            7.6937428002      -10.3538750257        1.9941053886  MEMB      9               0.0000000000
       996         9  OSM       H14F            8.7907762642      -10.4438482731        1.8432980288  MEMB      9               0.0000000000
       997         9  OSM       H14G            7.4889988251       -9.3898111560        2.5069234836  MEMB      9               0.0000000000
       998         9  OSM       C15F            7.1921680004      -10.3490411214        0.5463622530  MEMB      9               0.0000000000
       999         9  OSM       H15F            7.5718682120       -9.3911754265        0.1308605996  MEMB      9               0.0000000000
      1000         9  OSM       H15G            6.0812032206      -10.3481042435        0.5551480041  MEMB      9               0.0000000000
      1001         9  OSM       C16F            7.5844222598      -11.5843285077       -0.3037254691  MEMB      9               0.0000000000
      1002         9  OSM       H16F            7.2125977342      -12.4998270257        0.2041418185  MEMB      9               0.0000000000
      1003         9  OSM       H16G            8.6840911098      -11.6431448967       -0.4506607568  MEMB      9               0.0000000000
      1004         9  OSM       C17F            6.9833253373      -11.5282995368       -1.6410575548  MEMB      9               0.0000000000
      1005         9  OSM       H17F            7.4742649110      -12.2194146041       -2.3591516311  MEMB      9               0.0000000000
      1006         9  OSM       H17G            7.3099439141      -10.5663818201       -2.0908983034  MEMB      9               0.0000000000
      1007         9  OSM       C18F            5.4676214803      -11.7434210503       -1.7838576488  MEMB      9               0.0000000000
      1008         9  OSM       H18F            5.3326415030      -12.8056101944       -1.4874521035  MEMB      9               0.0000000000
      1009         9  OSM       H18G            5.2300240728      -11.5789867910       -2.8566255410  MEMB      9               0.0000000000
      1010         9  OSM       H18H            5.0273096105      -11.1800337638       -0.9335390254  MEMB      9               0.0000000000
      1011        10  CHL1      C3            -10.2269403586        7.7054940624       17.3416100000  MEMB      10              0.0000000000
      1012        10  CHL1      H3             -9.5560877087        8.5331646296       17.0265700000  MEMB      10              0.0000000000
      1013        10  CHL1      O3             -9.8080622414        7.2054664776       18.6583900000  MEMB      10              0.0000000000
      1014        10  CHL1      H3'            -8.8717611524        7.3903521792       18.7621300000  MEMB      10              0.0000000000
      1015        10  CHL1      C4            -11.7328433113        8.1404215153       17.5273700000  MEMB      10              0.0000000000
      1016        10  CHL1      H4A           -12.1716049916        7.2131197184       17.9538900000  MEMB      10              0.0000000000
      1017        10  CHL1      H4B           -11.8903578925        8.8211643050       18.3911400000  MEMB      10              0.0000000000
      1018        10  CHL1      C5            -12.3447338626        8.6696334927       16.1601000000  MEMB      10              0.0000000000
      1019        10  CHL1      C6            -12.8966311501        9.8843245239       16.1257300000  MEMB      10              0.0000000000
      1020        10  CHL1      H6            -12.9145288958       10.4836096531       17.0479800000  MEMB      10              0.0000000000
      1021        10  CHL1      C7            -13.5538449791       10.3891500336       14.9352600000  MEMB      10              0.0000000000
      1022        10  CHL1      H7A           -14.5455796038       10.8237629436       15.1840600000  MEMB      10              0.0000000000
      1023        10  CHL1      H7B           -12.9152585074       11.1599440631       14.4531700000  MEMB      10              0.0000000000
      1024        10  CHL1      C8            -13.8109509191        9.3556273074       13.8277600000  MEMB      10              0.0000000000
      1025        10  CHL1      H8            -14.7504745100        8.7817954450       13.9771800000  MEMB      10              0.0000000000
      1026        10  CHL1      C14           -14.0235545449       10.0989243748       12.4992200000  MEMB      10              0.0000000000
      1027        10  CHL1      H14           -13.0928824158       10.6939851567       12.3806100000  MEMB      10              0.0000000000
      1028        10  CHL1      C15           -15.1385231997       11.1523077724       12.4031100000  MEMB      10              0.0000000000
      1029        10  CHL1      H15A          -16.0552430039       10.6148111905       12.7272300000  MEMB      10              0.0000000000
      1030        10  CHL1      H15B          -14.9140570532       12.0291611836       13.0473600000  MEMB      10              0.0000000000
      1031        10  CHL1      C16           -15.1588462724       11.4278199241       10.8790300000  MEMB      10              0.0000000000
      1032        10  CHL1      H16A          -16.2283189626       11.4373868397       10.5782700000  MEMB      10              0.0000000000
      1033        10  CHL1      H16B          -14.7688620342       12.4244320236       10.5807000000  MEMB      10              0.0000000000
      1034        10  CHL1      C17           -14.3787824384       10.2487183754       10.1953900000  MEMB      10              0.0000000000
      1035        10  CHL1      H17           -13.3523337837       10.5994949233        9.9552400000  MEMB      10              0.0000000000
      1036        10  CHL1      C13           -14.2322689947        9.1653976008       11.2293500000  MEMB      10              0.0000000000
      1037        10  CHL1      C18           -15.5304152500        8.3758938343       11.3921000000  MEMB      10              0.0000000000
      1038        10  CHL1      H18A          -15.7883828325        7.9912485924       12.4019600000  MEMB      10              0.0000000000
      1039        10  CHL1      H18B          -16.3773925507        9.0743616620       11.2214900000  MEMB      10              0.0000000000
      1040        10  CHL1      H18C          -15.5689421338        7.4829534138       10.7321800000  MEMB      10              0.0000000000
      1041        10  CHL1      C12           -13.0683509523        8.2153695826       11.1244400000  MEMB      10              0.0000000000
      1042        10  CHL1      H12A          -13.1959928528        7.3745238594       10.4095800000  MEMB      10              0.0000000000
      1043        10  CHL1      H12B          -12.1257899269        8.7124225274       10.8100700000  MEMB      10              0.0000000000
      1044        10  CHL1      C11           -12.8416746601        7.4778117366       12.4433400000  MEMB      10              0.0000000000
      1045        10  CHL1      H11A          -13.7117945819        6.8185141031       12.6495900000  MEMB      10              0.0000000000
      1046        10  CHL1      H11B          -12.0064484699        6.7536357797       12.3324100000  MEMB      10              0.0000000000
      1047        10  CHL1      C9            -12.6389325876        8.3898706459       13.6371500000  MEMB      10              0.0000000000
      1048        10  CHL1      H9            -11.7866267141        9.0202038205       13.3046500000  MEMB      10              0.0000000000
      1049        10  CHL1      C10           -12.1929272324        7.7363884689       14.9548100000  MEMB      10              0.0000000000
      1050        10  CHL1      C19           -13.1690882351        6.5009211510       15.2269000000  MEMB      10              0.0000000000
      1051        10  CHL1      H19A          -14.1919591944        6.9189809352       15.3422200000  MEMB      10              0.0000000000
      1052        10  CHL1      H19B          -13.1474012627        5.7503987768       14.4080200000  MEMB      10              0.0000000000
      1053        10  CHL1      H19C          -13.0355112176        6.0018343360       16.2104600000  MEMB      10              0.0000000000
      1054        10  CHL1      C1            -10.7002799263        7.2413462397       14.8530900000  MEMB      10              0.0000000000
      1055        10  CHL1      H1A           -10.5649293596        6.4509003244       14.0842000000  MEMB      10              0.0000000000
      1056        10  CHL1      H1B           -10.2041068120        8.1922264345       14.5633500000  MEMB      10              0.0000000000
      1057        10  CHL1      C2            -10.0377133970        6.7045842258       16.1502400000  MEMB      10              0.0000000000
      1058        10  CHL1      H2A            -8.9698340248        6.4123719178       16.0576800000  MEMB      10              0.0000000000
      1059        10  CHL1      H2B           -10.6753842949        5.8263118421       16.3875900000  MEMB      10              0.0000000000
      1060        10  CHL1      C20           -14.9636607882        9.8443372607        8.7780700000  MEMB      10              0.0000000000
      1061        10  CHL1      H20           -15.9972000336        9.4504850116        8.8829500000  MEMB      10              0.0000000000
      1062        10  CHL1      C21           -14.1442206526        8.8314770518        7.9965800000  MEMB      10              0.0000000000
      1063        10  CHL1      H21A          -14.1124042314        7.8126016623        8.4384000000  MEMB      10              0.0000000000
      1064        10  CHL1      H21B          -13.0565136067        9.0465519506        7.9262500000  MEMB      10              0.0000000000
      1065        10  CHL1      H21C          -14.5292758443        8.6422138584        6.9717700000  MEMB      10              0.0000000000
      1066        10  CHL1      C22           -15.0712579478       11.0943987586        7.9567600000  MEMB      10              0.0000000000
      1067        10  CHL1      H22A          -15.7996831571       11.7871153658        8.4299100000  MEMB      10              0.0000000000
      1068        10  CHL1      H22B          -14.1133577471       11.6411143120        7.8231900000  MEMB      10              0.0000000000
      1069        10  CHL1      C23           -15.6639187366       10.8698812885        6.5402100000  MEMB      10              0.0000000000
      1070        10  CHL1      H23A          -15.0085247958       10.2848901789        5.8600800000  MEMB      10              0.0000000000
      1071        10  CHL1      H23B          -16.6177538022       10.3131696770        6.6609700000  MEMB      10              0.0000000000
      1072        10  CHL1      C24           -15.9461392590       12.1786321455        5.6800500000  MEMB      10              0.0000000000
      1073        10  CHL1      H24A          -16.5689871096       12.9293283004        6.2118800000  MEMB      10              0.0000000000
      1074        10  CHL1      H24B          -14.9338100631       12.5448427268        5.4054500000  MEMB      10              0.0000000000
      1075        10  CHL1      C25           -16.7862067042       11.9231743510        4.4672100000  MEMB      10              0.0000000000
      1076        10  CHL1      H25           -16.4276052657       11.0420033876        3.8934000000  MEMB      10              0.0000000000
      1077        10  CHL1      C26           -18.2603161393       11.6894781809        4.7841300000  MEMB      10              0.0000000000
      1078        10  CHL1      H26A          -18.9125187581       11.2424467989        4.0036700000  MEMB      10              0.0000000000
      1079        10  CHL1      H26B          -18.3393534343       11.0351157171        5.6784800000  MEMB      10              0.0000000000
      1080        10  CHL1      H26C          -18.6995242410       12.6623242246        5.0923200000  MEMB      10              0.0000000000
      1081        10  CHL1      C27           -16.6009370685       13.0812098813        3.4980800000  MEMB      10              0.0000000000
      1082        10  CHL1      H27A          -16.1789051236       13.9703334651        4.0135000000  MEMB      10              0.0000000000
      1083        10  CHL1      H27B          -15.8487992833       12.7768398805        2.7391500000  MEMB      10              0.0000000000
      1084        10  CHL1      H27C          -17.5752880840       13.2823945172        3.0036200000  MEMB      10              0.0000000000
      1085        11  CHL1      C3             -5.3349492367      -12.5461488845       17.3187700000  MEMB      11              0.0000000000
      1086        11  CHL1      H3             -5.7311872198      -11.5579367063       17.0013700000  MEMB      11              0.0000000000
      1087        11  CHL1      O3             -5.4497515833      -12.8352683889       18.6812300000  MEMB      11              0.0000000000
      1088        11  CHL1      H3'            -5.1578120859      -12.0879887877       19.2084300000  MEMB      11              0.0000000000
      1089        11  CHL1      C4             -6.0464030904      -13.6775179186       16.4656500000  MEMB      11              0.0000000000
      1090        11  CHL1      H4A            -5.5766709082      -14.6482971481       16.7325900000  MEMB      11              0.0000000000
      1091        11  CHL1      H4B            -7.1368480119      -13.6861542857       16.6782200000  MEMB      11              0.0000000000
      1092        11  CHL1      C5             -5.7332917309      -13.3636789347       14.9890000000  MEMB      11              0.0000000000
      1093        11  CHL1      C6             -6.7558105933      -13.2700697083       14.2132200000  MEMB      11              0.0000000000
      1094        11  CHL1      H6             -7.7633384923      -13.3173629127       14.6521500000  MEMB      11              0.0000000000
      1095        11  CHL1      C7             -6.7194420605      -12.9872443013       12.7943800000  MEMB      11              0.0000000000
      1096        11  CHL1      H7A            -7.4278083318      -13.5082651213       12.1153600000  MEMB      11              0.0000000000
      1097        11  CHL1      H7B            -6.9262119461      -11.9187631196       12.5709500000  MEMB      11              0.0000000000
      1098        11  CHL1      C8             -5.3385810445      -13.4235409973       12.2701800000  MEMB      11              0.0000000000
      1099        11  CHL1      H8             -5.1744719529      -14.5222444682       12.2861300000  MEMB      11              0.0000000000
      1100        11  CHL1      C14            -5.2596122860      -13.0244616185       10.8143200000  MEMB      11              0.0000000000
      1101        11  CHL1      H14            -5.4683949546      -11.9344276642       10.7638000000  MEMB      11              0.0000000000
      1102        11  CHL1      C15            -6.1595142523      -13.7217177415        9.8244100000  MEMB      11              0.0000000000
      1103        11  CHL1      H15A           -6.2244160075      -14.8083404813       10.0466100000  MEMB      11              0.0000000000
      1104        11  CHL1      H15B           -7.2179645081      -13.3920269117        9.8972400000  MEMB      11              0.0000000000
      1105        11  CHL1      C16            -5.6421972189      -13.4025863053        8.4565000000  MEMB      11              0.0000000000
      1106        11  CHL1      H16A           -5.5964783756      -14.3504156458        7.8787000000  MEMB      11              0.0000000000
      1107        11  CHL1      H16B           -6.2206179189      -12.6247023796        7.9136900000  MEMB      11              0.0000000000
      1108        11  CHL1      C17            -4.2127199844      -12.8015894395        8.7464500000  MEMB      11              0.0000000000
      1109        11  CHL1      H17            -4.2133704776      -11.6948021829        8.6497500000  MEMB      11              0.0000000000
      1110        11  CHL1      C13            -3.8783864177      -13.2340644236       10.2231100000  MEMB      11              0.0000000000
      1111        11  CHL1      C18            -3.4711519377      -14.7035708954       10.2539800000  MEMB      11              0.0000000000
      1112        11  CHL1      H18A           -3.9839982472      -15.2539474205        9.4364300000  MEMB      11              0.0000000000
      1113        11  CHL1      H18B           -2.4196558749      -14.8871252404        9.9457600000  MEMB      11              0.0000000000
      1114        11  CHL1      H18C           -3.5823239218      -15.2113477331       11.2358800000  MEMB      11              0.0000000000
      1115        11  CHL1      C12            -2.9244831734      -12.3304162901       11.0649300000  MEMB      11              0.0000000000
      1116        11  CHL1      H12A           -1.9179986566      -12.3336790176       10.5945100000  MEMB      11              0.0000000000
      1117        11  CHL1      H12B           -3.2500599524      -11.2682229445       11.0727000000  MEMB      11              0.0000000000
      1118        11  CHL1      C11            -2.8440673858      -12.7835769424       12.4827300000  MEMB      11              0.0000000000
      1119        11  CHL1      H11A           -2.2875578692      -13.7448000256       12.5087100000  MEMB      11              0.0000000000
      1120        11  CHL1      H11B           -2.1690082374      -12.0711482384       13.0033600000  MEMB      11              0.0000000000
      1121        11  CHL1      C9             -4.2595549408      -12.7451520790       13.0814400000  MEMB      11              0.0000000000
      1122        11  CHL1      H9             -4.5229822513      -11.6663105692       13.1134200000  MEMB      11              0.0000000000
      1123        11  CHL1      C10            -4.3043587808      -13.2245694342       14.6260400000  MEMB      11              0.0000000000
      1124        11  CHL1      C19            -3.6792536966      -14.6464089593       14.6504200000  MEMB      11              0.0000000000
      1125        11  CHL1      H19A           -4.2111251203      -15.3274366441       13.9521000000  MEMB      11              0.0000000000
      1126        11  CHL1      H19B           -2.5819255974      -14.6377917014       14.4768600000  MEMB      11              0.0000000000
      1127        11  CHL1      H19C           -3.7634117411      -14.9520034981       15.7152400000  MEMB      11              0.0000000000
      1128        11  CHL1      C1             -3.5381191640      -12.2162435138       15.5597300000  MEMB      11              0.0000000000
      1129        11  CHL1      H1A            -2.4785321774      -12.4519420469       15.3229900000  MEMB      11              0.0000000000
      1130        11  CHL1      H1B            -3.8365438265      -11.1710816558       15.3297300000  MEMB      11              0.0000000000
      1131        11  CHL1      C2             -3.8515432949      -12.5618243231       17.0374000000  MEMB      11              0.0000000000
      1132        11  CHL1      H2A            -3.4000064656      -11.8345093642       17.7455300000  MEMB      11              0.0000000000
      1133        11  CHL1      H2B            -3.4812969308      -13.5694737913       17.3235400000  MEMB      11              0.0000000000
      1134        11  CHL1      C20            -3.2020218779      -13.1840049716        7.6546500000  MEMB      11              0.0000000000
      1135        11  CHL1      H20            -3.2065248273      -14.2927002455        7.5831300000  MEMB      11              0.0000000000
      1136        11  CHL1      C21            -1.7694566351      -12.7703150985        8.0497600000  MEMB      11              0.0000000000
      1137        11  CHL1      H21A           -1.8191898384      -11.7684517741        8.5273800000  MEMB      11              0.0000000000
      1138        11  CHL1      H21B           -1.0248036942      -12.7573949084        7.2253500000  MEMB      11              0.0000000000
      1139        11  CHL1      H21C           -1.4218799962      -13.5653942001        8.7435600000  MEMB      11              0.0000000000
      1140        11  CHL1      C22            -3.6455103695      -12.6392983843        6.2756600000  MEMB      11              0.0000000000
      1141        11  CHL1      H22A           -4.6626731784      -13.0616198254        6.1295700000  MEMB      11              0.0000000000
      1142        11  CHL1      H22B           -3.7419349789      -11.5346231074        6.3443200000  MEMB      11              0.0000000000
      1143        11  CHL1      C23            -2.8332448028      -13.0039437968        5.0037600000  MEMB      11              0.0000000000
      1144        11  CHL1      H23A           -1.7707141315      -12.9018208090        5.3118500000  MEMB      11              0.0000000000
      1145        11  CHL1      H23B           -3.1472531940      -14.0504568159        4.8024600000  MEMB      11              0.0000000000
      1146        11  CHL1      C24            -3.1962397221      -12.1512832335        3.8022600000  MEMB      11              0.0000000000
      1147        11  CHL1      H24A           -4.2985530471      -12.1443318298        3.6637800000  MEMB      11              0.0000000000
      1148        11  CHL1      H24B           -2.8917631616      -11.0832666657        3.7711800000  MEMB      11              0.0000000000
      1149        11  CHL1      C25            -2.5379601668      -12.7292223335        2.5364600000  MEMB      11              0.0000000000
      1150        11  CHL1      H25            -3.0614280582      -13.6850018954        2.3201400000  MEMB      11              0.0000000000
      1151        11  CHL1      C26            -2.7216979176      -11.7676489292        1.3957400000  MEMB      11              0.0000000000
      1152        11  CHL1      H26A           -2.2119948170      -12.1641957363        0.4917000000  MEMB      11              0.0000000000
      1153        11  CHL1      H26B           -3.7898094971      -11.5294064986        1.2041800000  MEMB      11              0.0000000000
      1154        11  CHL1      H26C           -2.3308991788      -10.7425336438        1.5710200000  MEMB      11              0.0000000000
      1155        11  CHL1      C27            -1.0340002850      -13.1137867056        2.7355400000  MEMB      11              0.0000000000
      1156        11  CHL1      H27A           -0.9037352411      -13.9224622665        3.4861300000  MEMB      11              0.0000000000
      1157        11  CHL1      H27B           -0.6695270941      -13.4960090634        1.7580900000  MEMB      11              0.0000000000
      1158        11  CHL1      H27C           -0.4259762339      -12.2190525101        2.9886600000  MEMB      11              0.0000000000
      1159        12  SAPE      N               0.2569808370       13.6598364717       20.2180795953  MEMB      12              0.0000000000
      1160        12  SAPE      HN1             0.8597850761       12.9314266166       20.6512612111  MEMB      12              0.0000000000
      1161        12  SAPE      HN2            -0.7546241050       13.5686979004       20.4415727614  MEMB      12              0.0000000000
      1162        12  SAPE      HN3             0.4048148085       13.5396339932       19.1956821459  MEMB      12              0.0000000000
      1163        12  SAPE      C12             0.6952069963       14.9269878376       20.7895241816  MEMB      12              0.0000000000
      1164        12  SAPE      H12A            0.2215021191       15.0710999410       21.7840876565  MEMB      12              0.0000000000
      1165        12  SAPE      H12B            0.2480814148       15.7254725839       20.1595861486  MEMB      12              0.0000000000
      1166        12  SAPE      C11             2.2227225234       14.8975778386       20.9240692483  MEMB      12              0.0000000000
      1167        12  SAPE      H11A            2.4401159363       14.2196523938       21.7769925971  MEMB      12              0.0000000000
      1168        12  SAPE      H11B            2.6862791562       15.8369416035       21.2942474710  MEMB      12              0.0000000000
      1169        12  SAPE      P               4.1455741335       13.7050594251       19.6762102865  MEMB      12              0.0000000000
      1170        12  SAPE      O13             5.1877753192       14.1709983847       20.6637044990  MEMB      12              0.0000000000
      1171        12  SAPE      O14             3.6643115585       12.3375739964       19.8782731915  MEMB      12              0.0000000000
      1172        12  SAPE      O12             2.8785307735       14.6489734694       19.6633696076  MEMB      12              0.0000000000
      1173        12  SAPE      O11             4.6592460066       13.9754445936       18.1867693906  MEMB      12              0.0000000000
      1174        12  SAPE      C1              4.2762062074       15.2240010144       17.5840183411  MEMB      12              0.0000000000
      1175        12  SAPE      HA              4.1813012349       16.0305635522       18.3421547902  MEMB      12              0.0000000000
      1176        12  SAPE      HB              5.0664790312       15.4630458863       16.8406155679  MEMB      12              0.0000000000
      1177        12  SAPE      C2              2.9439258135       15.0646148532       16.8569836171  MEMB      12              0.0000000000
      1178        12  SAPE      HS              2.1621605305       14.7077778543       17.5611367807  MEMB      12              0.0000000000
      1179        12  SAPE      O21             3.2499482881       14.1882870477       15.7675631271  MEMB      12              0.0000000000
      1180        12  SAPE      C21             2.3356145674       13.2513633495       15.5573284869  MEMB      12              0.0000000000
      1181        12  SAPE      O22             1.3928991999       12.9202506641       16.2874325024  MEMB      12              0.0000000000
      1182        12  SAPE      C22             2.6135821457       12.4415244237       14.2640603519  MEMB      12              0.0000000000
      1183        12  SAPE      H2R             1.6876343543       12.4946571811       13.6524079546  MEMB      12              0.0000000000
      1184        12  SAPE      H2S             3.4660160595       12.9117556951       13.7287477487  MEMB      12              0.0000000000
      1185        12  SAPE      C3              2.5593230661       16.3866906920       16.3805501882  MEMB      12              0.0000000000
      1186        12  SAPE      HX              3.4987957640       16.6991309810       15.8764736538  MEMB      12              0.0000000000
      1187        12  SAPE      HY              2.3560365714       17.1365226270       17.1747464251  MEMB      12              0.0000000000
      1188        12  SAPE      O31             1.4594244799       16.3137600729       15.4476336586  MEMB      12              0.0000000000
      1189        12  SAPE      C31             1.4635291878       17.2343517959       14.4990157674  MEMB      12              0.0000000000
      1190        12  SAPE      O32             1.8300793237       18.3591770042       14.5774986911  MEMB      12              0.0000000000
      1191        12  SAPE      C32             0.7283924151       16.5702862054       13.3190728401  MEMB      12              0.0000000000
      1192        12  SAPE      H2X            -0.1663458904       17.1723750979       13.0521389469  MEMB      12              0.0000000000
      1193        12  SAPE      H2Y             0.3439619049       15.5920710737       13.6791134573  MEMB      12              0.0000000000
      1194        12  SAPE      C23             3.0792235997       11.0690707303       14.7090484293  MEMB      12              0.0000000000
      1195        12  SAPE      H3R             2.3098267963       10.6247754176       15.3760950912  MEMB      12              0.0000000000
      1196        12  SAPE      H3S             3.9825535736       11.1545012439       15.3501552239  MEMB      12              0.0000000000
      1197        12  SAPE      C24             3.4557090756       10.1597969981       13.5433478747  MEMB      12              0.0000000000
      1198        12  SAPE      H4R             2.5595916992       10.0767536695       12.8918893833  MEMB      12              0.0000000000
      1199        12  SAPE      H4S             3.6480535612        9.1710785676       14.0121341135  MEMB      12              0.0000000000
      1200        12  SAPE      C25             4.6859474360       10.6340656955       12.7494821587  MEMB      12              0.0000000000
      1201        12  SAPE      H5R             5.6073178946       10.6496702476       13.3501759424  MEMB      12              0.0000000000
      1202        12  SAPE      C26             4.8080294119       11.1082282384       11.4806996446  MEMB      12              0.0000000000
      1203        12  SAPE      H6R             5.7989028167       11.5206268011       11.2396655591  MEMB      12              0.0000000000
      1204        12  SAPE      C27             3.7405477818       11.3356152980       10.3925951413  MEMB      12              0.0000000000
      1205        12  SAPE      H7R             3.3380401850       12.3664616377       10.2942871842  MEMB      12              0.0000000000
      1206        12  SAPE      H7S             2.8667044167       10.7215762859       10.6986575879  MEMB      12              0.0000000000
      1207        12  SAPE      C28             4.2029586700       10.9419510552        8.9958870664  MEMB      12              0.0000000000
      1208        12  SAPE      H8R             5.1606606703       10.4010543546        8.9804637828  MEMB      12              0.0000000000
      1209        12  SAPE      C29             3.4868440694       11.0891370719        7.8878706908  MEMB      12              0.0000000000
      1210        12  SAPE      H9R             4.0622301126       10.8539104397        6.9803463746  MEMB      12              0.0000000000
      1211        12  SAPE      C210            2.1447963096       11.6949870533        7.8134036615  MEMB      12              0.0000000000
      1212        12  SAPE      H10R            2.1864175630       12.8009716948        7.9102868612  MEMB      12              0.0000000000
      1213        12  SAPE      H10S            1.4687004564       11.3586218724        8.6283108640  MEMB      12              0.0000000000
      1214        12  SAPE      C211            1.5016407053       11.4701991159        6.4303549367  MEMB      12              0.0000000000
      1215        12  SAPE      H11R            1.9403192641       10.6551843593        5.8359542976  MEMB      12              0.0000000000
      1216        12  SAPE      C212            0.3846288169       12.0777573223        5.9224393252  MEMB      12              0.0000000000
      1217        12  SAPE      H12R            0.0105647205       11.6706026274        4.9714920543  MEMB      12              0.0000000000
      1218        12  SAPE      C213           -0.4162662486       13.1672758436        6.6287311957  MEMB      12              0.0000000000
      1219        12  SAPE      H13R           -0.7591151357       12.8318430860        7.6308589056  MEMB      12              0.0000000000
      1220        12  SAPE      H13S           -1.3737166808       13.4307735713        6.1305560237  MEMB      12              0.0000000000
      1221        12  SAPE      C214            0.2628691642       14.4747269746        7.0260965504  MEMB      12              0.0000000000
      1222        12  SAPE      H14R            0.6850295184       14.5238194706        8.0406753439  MEMB      12              0.0000000000
      1223        12  SAPE      C215            0.1557898163       15.5476310238        6.2877103339  MEMB      12              0.0000000000
      1224        12  SAPE      H15R            0.6083869922       16.4639815281        6.6944750148  MEMB      12              0.0000000000
      1225        12  SAPE      C216           -0.5806373427       15.8585243761        4.9856279711  MEMB      12              0.0000000000
      1226        12  SAPE      H16R           -1.3208763099       16.6783383796        5.1050944758  MEMB      12              0.0000000000
      1227        12  SAPE      H16S           -1.1647837788       14.9620804729        4.6864919521  MEMB      12              0.0000000000
      1228        12  SAPE      C217            0.3181197380       16.2390616990        3.7622404797  MEMB      12              0.0000000000
      1229        12  SAPE      H17R           -0.4148094176       16.4635697729        2.9580434247  MEMB      12              0.0000000000
      1230        12  SAPE      H17S            0.9529654044       15.3685872439        3.4910096200  MEMB      12              0.0000000000
      1231        12  SAPE      C218            1.1964343037       17.4319550278        4.1582282196  MEMB      12              0.0000000000
      1232        12  SAPE      H18R            1.8381259668       17.1559267181        5.0221502317  MEMB      12              0.0000000000
      1233        12  SAPE      H18S            0.4926604214       18.1764085342        4.5881262857  MEMB      12              0.0000000000
      1234        12  SAPE      C219            1.7883370993       18.2781354627        2.9897425883  MEMB      12              0.0000000000
      1235        12  SAPE      H19R            2.3646167614       19.1472842205        3.3728921163  MEMB      12              0.0000000000
      1236        12  SAPE      H19S            1.0910348876       18.5970651805        2.1857686355  MEMB      12              0.0000000000
      1237        12  SAPE      C220            2.8215396330       17.3556675057        2.2469280470  MEMB      12              0.0000000000
      1238        12  SAPE      H20R            3.5099545780       16.8322934837        2.9444125182  MEMB      12              0.0000000000
      1239        12  SAPE      H20S            3.5100729968       17.8815310766        1.5514347940  MEMB      12              0.0000000000
      1240        12  SAPE      H20T            2.2501249889       16.5727474155        1.7039347590  MEMB      12              0.0000000000
      1241        12  SAPE      C33             1.6761791008       16.4483936551       12.0148149292  MEMB      12              0.0000000000
      1242        12  SAPE      H3X             1.9241789718       17.4381897724       11.5753595428  MEMB      12              0.0000000000
      1243        12  SAPE      H3Y             1.0422359619       16.0135598763       11.2127193695  MEMB      12              0.0000000000
      1244        12  SAPE      C34             2.9803747261       15.7148623924       12.3761064817  MEMB      12              0.0000000000
      1245        12  SAPE      H4X             2.7146043471       14.8023556679       12.9514491170  MEMB      12              0.0000000000
      1246        12  SAPE      H4Y             3.4264432710       16.3534414984       13.1682938932  MEMB      12              0.0000000000
      1247        12  SAPE      C35             3.9328717734       15.4006159039       11.2093899397  MEMB      12              0.0000000000
      1248        12  SAPE      H5X             3.4114455829       14.8108759525       10.4253987151  MEMB      12              0.0000000000
      1249        12  SAPE      H5Y             4.7526457426       14.8274282841       11.6928654569  MEMB      12              0.0000000000
      1250        12  SAPE      C36             4.5472364668       16.6366216462       10.6334347315  MEMB      12              0.0000000000
      1251        12  SAPE      H6X             4.6363052042       17.4576156584       11.3766416650  MEMB      12              0.0000000000
      1252        12  SAPE      H6Y             3.8457332379       17.0974232092        9.9055093088  MEMB      12              0.0000000000
      1253        12  SAPE      C37             5.9419985405       16.4808115176        9.9062311507  MEMB      12              0.0000000000
      1254        12  SAPE      H7X             6.4970439256       15.6406777336       10.3757211124  MEMB      12              0.0000000000
      1255        12  SAPE      H7Y             6.3670728012       17.4630018470       10.2044501042  MEMB      12              0.0000000000
      1256        12  SAPE      C38             5.8957218482       16.3246343585        8.4483587086  MEMB      12              0.0000000000
      1257        12  SAPE      H8X             6.8910162656       16.4917937698        7.9838502256  MEMB      12              0.0000000000
      1258        12  SAPE      H8Y             5.2401171016       17.1582502168        8.1173172490  MEMB      12              0.0000000000
      1259        12  SAPE      C39             5.4070421599       15.0568755912        7.8750631557  MEMB      12              0.0000000000
      1260        12  SAPE      H9X             4.3715952074       14.8537008768        8.2227558382  MEMB      12              0.0000000000
      1261        12  SAPE      H9Y             6.1363089242       14.2430273368        8.0754183934  MEMB      12              0.0000000000
      1262        12  SAPE      C310            5.2833336447       15.1546810528        6.3063835373  MEMB      12              0.0000000000
      1263        12  SAPE      H10X            6.2559561919       15.3314817417        5.7993645292  MEMB      12              0.0000000000
      1264        12  SAPE      H10Y            4.6718497602       16.0604423932        6.1063715534  MEMB      12              0.0000000000
      1265        12  SAPE      C311            4.6143578209       13.9332667829        5.7338767609  MEMB      12              0.0000000000
      1266        12  SAPE      H11X            3.6280740080       13.7092233663        6.1936268776  MEMB      12              0.0000000000
      1267        12  SAPE      H11Y            5.2813867936       13.0621805660        5.9088115968  MEMB      12              0.0000000000
      1268        12  SAPE      C312            4.4049350740       14.2338737910        4.2217554179  MEMB      12              0.0000000000
      1269        12  SAPE      H12X            5.3978753125       14.3238134564        3.7315499730  MEMB      12              0.0000000000
      1270        12  SAPE      H12Y            3.9261788262       15.2353467511        4.2682893541  MEMB      12              0.0000000000
      1271        12  SAPE      C313            3.5550648858       13.1384862601        3.4532741815  MEMB      12              0.0000000000
      1272        12  SAPE      H13X            2.6052730628       13.1614513595        4.0291992633  MEMB      12              0.0000000000
      1273        12  SAPE      H13Y            4.0776953139       12.1613613350        3.5333097194  MEMB      12              0.0000000000
      1274        12  SAPE      C314            3.5021397073       13.4896449051        2.0112377288  MEMB      12              0.0000000000
      1275        12  SAPE      H14X            3.0342339758       14.4802750908        1.8267464514  MEMB      12              0.0000000000
      1276        12  SAPE      H14Y            2.9087500100       12.7550784329        1.4258991905  MEMB      12              0.0000000000
      1277        12  SAPE      C315            4.8413603623       13.4966381207        1.1940474358  MEMB      12              0.0000000000
      1278        12  SAPE      H15X            5.5258174764       14.1577523162        1.7674291456  MEMB      12              0.0000000000
      1279        12  SAPE      H15Y            4.7240838534       14.0989262618        0.2678641471  MEMB      12              0.0000000000
      1280        12  SAPE      C316            5.6970181711       12.2525166989        0.9931549868  MEMB      12              0.0000000000
      1281        12  SAPE      H16X            5.5599702857       11.4610767125        1.7607243741  MEMB      12              0.0000000000
      1282        12  SAPE      H16Y            6.7891642179       12.4470495373        0.9323680225  MEMB      12              0.0000000000
      1283        12  SAPE      C317            5.4081795149       11.7338815669       -0.4140009432  MEMB      12              0.0000000000
      1284        12  SAPE      H17X            4.2984895374       11.7123690826       -0.4634591337  MEMB      12              0.0000000000
      1285        12  SAPE      H17Y            5.6219168629       10.6499026340       -0.5307347739  MEMB      12              0.0000000000
      1286        12  SAPE      C318            6.0892231388       12.5227113298       -1.5940736086  MEMB      12              0.0000000000
      1287        12  SAPE      H18X            5.7933164260       13.5933763039       -1.5731709939  MEMB      12              0.0000000000
      1288        12  SAPE      H18Y            5.8051680515       12.1086606173       -2.5851313563  MEMB      12              0.0000000000
      1289        12  SAPE      H18Z            7.1900196085       12.5694788481       -1.4513108011  MEMB      12              0.0000000000
      1290        13  CHL1      C3            -14.2059860632        0.9259233906       17.2948800000  MEMB      13              0.0000000000
      1291        13  CHL1      H3            -13.4188607977        1.7022415921       17.1849400000  MEMB      13              0.0000000000
      1292        13  CHL1      O3            -14.4864127368        0.7487860694       18.7051200000  MEMB      13              0.0000000000
      1293        13  CHL1      H3'           -13.6154418376        0.4411323634       18.9665900000  MEMB      13              0.0000000000
      1294        13  CHL1      C4            -15.4470116469        1.5388076840       16.6214300000  MEMB      13              0.0000000000
      1295        13  CHL1      H4A           -16.4585561381        1.2179491801       16.9502800000  MEMB      13              0.0000000000
      1296        13  CHL1      H4B           -15.4800008282        2.6095986750       16.9157900000  MEMB      13              0.0000000000
      1297        13  CHL1      C5            -15.5174023099        1.4458058891       15.1231300000  MEMB      13              0.0000000000
      1298        13  CHL1      C6            -15.7076411872        2.5382243171       14.3596200000  MEMB      13              0.0000000000
      1299        13  CHL1      H6            -15.8979329438        3.5044648460       14.8496900000  MEMB      13              0.0000000000
      1300        13  CHL1      C7            -15.8133854307        2.4723672979       12.8237700000  MEMB      13              0.0000000000
      1301        13  CHL1      H7A           -16.7051550896        2.9507492582       12.3652600000  MEMB      13              0.0000000000
      1302        13  CHL1      H7B           -14.9441711108        3.0560508812       12.4521500000  MEMB      13              0.0000000000
      1303        13  CHL1      C8            -15.9084876340        1.0824060971       12.2838600000  MEMB      13              0.0000000000
      1304        13  CHL1      H8            -16.9260332894        0.6410717208       12.3482200000  MEMB      13              0.0000000000
      1305        13  CHL1      C14           -15.5989036986        1.3032910739       10.7713500000  MEMB      13              0.0000000000
      1306        13  CHL1      H14           -14.5591406659        1.6930057839       10.7348400000  MEMB      13              0.0000000000
      1307        13  CHL1      C15           -16.5077010780        2.2659966343        9.9403300000  MEMB      13              0.0000000000
      1308        13  CHL1      H15A          -17.5953872027        2.2367464976       10.1648400000  MEMB      13              0.0000000000
      1309        13  CHL1      H15B          -16.1733041288        3.3240999507        9.9943100000  MEMB      13              0.0000000000
      1310        13  CHL1      C16           -16.2432713143        1.7655141508        8.5485800000  MEMB      13              0.0000000000
      1311        13  CHL1      H16A          -17.2241067415        1.4116782245        8.1650800000  MEMB      13              0.0000000000
      1312        13  CHL1      H16B          -15.8176105566        2.5095592932        7.8418100000  MEMB      13              0.0000000000
      1313        13  CHL1      C17           -15.2880119078        0.5586766496        8.5918900000  MEMB      13              0.0000000000
      1314        13  CHL1      H17           -14.2583534532        0.9726402277        8.5394100000  MEMB      13              0.0000000000
      1315        13  CHL1      C13           -15.4354238375       -0.0437947455       10.0269900000  MEMB      13              0.0000000000
      1316        13  CHL1      C18           -16.7701931558       -0.8127280994       10.0042200000  MEMB      13              0.0000000000
      1317        13  CHL1      H18A          -16.6141715595       -1.7754875632        9.4721900000  MEMB      13              0.0000000000
      1318        13  CHL1      H18B          -17.0658455028       -1.0986884552       11.0362800000  MEMB      13              0.0000000000
      1319        13  CHL1      H18C          -17.6314756892       -0.1897990933        9.6809700000  MEMB      13              0.0000000000
      1320        13  CHL1      C12           -14.2700297719       -0.7721694518       10.6546800000  MEMB      13              0.0000000000
      1321        13  CHL1      H12A          -14.1786625968       -1.7651437714       10.1648100000  MEMB      13              0.0000000000
      1322        13  CHL1      H12B          -13.3084021867       -0.2350342617       10.5095500000  MEMB      13              0.0000000000
      1323        13  CHL1      C11           -14.5164247221       -1.1042132077       12.1430200000  MEMB      13              0.0000000000
      1324        13  CHL1      H11A          -15.3227238627       -1.8684448416       12.1551000000  MEMB      13              0.0000000000
      1325        13  CHL1      H11B          -13.6650097737       -1.6557162069       12.5960700000  MEMB      13              0.0000000000
      1326        13  CHL1      C9            -14.8337551131        0.1851615923       12.9339800000  MEMB      13              0.0000000000
      1327        13  CHL1      H9            -13.9085908755        0.7780730253       12.7700600000  MEMB      13              0.0000000000
      1328        13  CHL1      C10           -15.0450162750        0.0835232804       14.5108300000  MEMB      13              0.0000000000
      1329        13  CHL1      C19           -16.1578544642       -0.9968473480       14.6456500000  MEMB      13              0.0000000000
      1330        13  CHL1      H19A          -16.5609550186       -1.1195616303       15.6736400000  MEMB      13              0.0000000000
      1331        13  CHL1      H19B          -17.0700616154       -0.7257001308       14.0723500000  MEMB      13              0.0000000000
      1332        13  CHL1      H19C          -15.7246089382       -1.9923168850       14.4097200000  MEMB      13              0.0000000000
      1333        13  CHL1      C1            -13.7524967540       -0.3981410358       15.2163500000  MEMB      13              0.0000000000
      1334        13  CHL1      H1A           -13.5549586106       -1.4127205230       14.8090100000  MEMB      13              0.0000000000
      1335        13  CHL1      H1B           -12.9613417679        0.3032627008       14.8751500000  MEMB      13              0.0000000000
      1336        13  CHL1      C2            -13.8256990970       -0.4650054350       16.6967800000  MEMB      13              0.0000000000
      1337        13  CHL1      H2A           -12.8458444100       -0.7364826384       17.1445600000  MEMB      13              0.0000000000
      1338        13  CHL1      H2B           -14.5982951857       -1.1860655148       17.0395300000  MEMB      13              0.0000000000
      1339        13  CHL1      C20           -15.5284417530       -0.4435114777        7.3424000000  MEMB      13              0.0000000000
      1340        13  CHL1      H20           -16.4922496177       -0.9919269595        7.4105600000  MEMB      13              0.0000000000
      1341        13  CHL1      C21           -14.3607032701       -1.4349710192        7.2829900000  MEMB      13              0.0000000000
      1342        13  CHL1      H21A          -14.3805249979       -2.1137687746        6.4036900000  MEMB      13              0.0000000000
      1343        13  CHL1      H21B          -14.3302344315       -2.1251550398        8.1530800000  MEMB      13              0.0000000000
      1344        13  CHL1      H21C          -13.3507560018       -0.9720350199        7.2877700000  MEMB      13              0.0000000000
      1345        13  CHL1      C22           -15.5992478559        0.2893078512        5.9206000000  MEMB      13              0.0000000000
      1346        13  CHL1      H22A          -16.3813515711        1.0779787982        5.8955000000  MEMB      13              0.0000000000
      1347        13  CHL1      H22B          -14.6557113603        0.8635148160        5.8008000000  MEMB      13              0.0000000000
      1348        13  CHL1      C23           -15.7279813657       -0.5982261966        4.6062500000  MEMB      13              0.0000000000
      1349        13  CHL1      H23A          -15.7792591601        0.0553702722        3.7093100000  MEMB      13              0.0000000000
      1350        13  CHL1      H23B          -14.8766204722       -1.2834889942        4.4064200000  MEMB      13              0.0000000000
      1351        13  CHL1      C24           -17.0263448703       -1.4236298323        4.5405100000  MEMB      13              0.0000000000
      1352        13  CHL1      H24A          -16.9506741205       -2.3556248871        5.1404900000  MEMB      13              0.0000000000
      1353        13  CHL1      H24B          -17.7688038044       -0.7410022605        5.0064400000  MEMB      13              0.0000000000
      1354        13  CHL1      C25           -17.4741569456       -1.8165664336        3.0924900000  MEMB      13              0.0000000000
      1355        13  CHL1      H25           -16.5737886708       -2.3648398919        2.7416900000  MEMB      13              0.0000000000
      1356        13  CHL1      C26           -18.6896546460       -2.7057780131        3.0632500000  MEMB      13              0.0000000000
      1357        13  CHL1      H26A          -19.6431830781       -2.1872489891        3.3003900000  MEMB      13              0.0000000000
      1358        13  CHL1      H26B          -18.8411973744       -3.1858368561        2.0728400000  MEMB      13              0.0000000000
      1359        13  CHL1      H26C          -18.5074251085       -3.5525270230        3.7590400000  MEMB      13              0.0000000000
      1360        13  CHL1      C27           -18.0607337350       -0.6924864530        2.2020500000  MEMB      13              0.0000000000
      1361        13  CHL1      H27A          -18.3915853833       -1.0340485255        1.1979600000  MEMB      13              0.0000000000
      1362        13  CHL1      H27B          -18.9140194621       -0.1861167618        2.7018500000  MEMB      13              0.0000000000
      1363        13  CHL1      H27C          -17.4164789572        0.2020202261        2.0638000000  MEMB      13              0.0000000000
      1364        14  SLPC      N              -4.8799343702       15.5986305172       17.5891927304  MEMB      14              0.0000000000
      1365        14  SLPC      C13            -4.4687570491       17.0193353185       17.6960538750  MEMB      14              0.0000000000
      1366        14  SLPC      H13A           -4.2948002075       17.4123694215       16.7052646937  MEMB      14              0.0000000000
      1367        14  SLPC      H13B           -5.3027850071       17.5912647153       18.0751233300  MEMB      14              0.0000000000
      1368        14  SLPC      H13C           -3.5181824414       17.0375832742       18.2083769047  MEMB      14              0.0000000000
      1369        14  SLPC      C14            -5.3939933992       15.1232668391       18.9397326888  MEMB      14              0.0000000000
      1370        14  SLPC      H14A           -5.6124317859       14.0660023384       18.9101258254  MEMB      14              0.0000000000
      1371        14  SLPC      H14B           -4.5925348415       15.1800634539       19.6614240475  MEMB      14              0.0000000000
      1372        14  SLPC      H14C           -6.2432033437       15.7782798728       19.0670138189  MEMB      14              0.0000000000
      1373        14  SLPC      C15            -3.6804444612       14.8802928901       17.0999377613  MEMB      14              0.0000000000
      1374        14  SLPC      H15A           -3.8982202115       13.8251586598       17.1752067283  MEMB      14              0.0000000000
      1375        14  SLPC      H15B           -3.5469846080       15.1780755986       16.0704165386  MEMB      14              0.0000000000
      1376        14  SLPC      H15C           -2.7823206701       15.1786264836       17.6202942871  MEMB      14              0.0000000000
      1377        14  SLPC      C12            -5.9653383031       15.6992330599       16.5148984214  MEMB      14              0.0000000000
      1378        14  SLPC      H12A           -5.5487824559       16.2882070710       15.7111628257  MEMB      14              0.0000000000
      1379        14  SLPC      H12B           -6.7225998458       16.2155559353       17.0861825189  MEMB      14              0.0000000000
      1380        14  SLPC      C11            -6.5326658956       14.4111184943       15.8664307349  MEMB      14              0.0000000000
      1381        14  SLPC      H11A           -5.9210822365       14.0825137772       14.9990753864  MEMB      14              0.0000000000
      1382        14  SLPC      H11B           -7.4849586218       14.6071342890       15.3288088198  MEMB      14              0.0000000000
      1383        14  SLPC      P              -6.0750075087       11.9115671461       16.7226019897  MEMB      14              0.0000000000
      1384        14  SLPC      O13            -4.7797919849       11.9353799415       17.5122464037  MEMB      14              0.0000000000
      1385        14  SLPC      O14            -7.1163248823       10.9812495552       17.0960454648  MEMB      14              0.0000000000
      1386        14  SLPC      O12            -6.6790612397       13.3585506367       16.7976135045  MEMB      14              0.0000000000
      1387        14  SLPC      O11            -5.7630557749       11.8089957021       15.1652464745  MEMB      14              0.0000000000
      1388        14  SLPC      C1             -4.9045623967       10.7474461112       14.6560520382  MEMB      14              0.0000000000
      1389        14  SLPC      HA             -4.5742224814       10.0309519446       15.4382494184  MEMB      14              0.0000000000
      1390        14  SLPC      HB             -5.4809284793       10.2587108931       13.8416437057  MEMB      14              0.0000000000
      1391        14  SLPC      C2             -3.5910468234       11.2907162119       14.0300600230  MEMB      14              0.0000000000
      1392        14  SLPC      HS             -2.9073592637       11.5779747928       14.8573292308  MEMB      14              0.0000000000
      1393        14  SLPC      O21            -3.9779259072       12.3689117739       13.2172862282  MEMB      14              0.0000000000
      1394        14  SLPC      C21            -3.1087686043       13.2698390918       12.8076094325  MEMB      14              0.0000000000
      1395        14  SLPC      O22            -1.8971698263       13.2733857782       12.7916297417  MEMB      14              0.0000000000
      1396        14  SLPC      C22            -3.9595178486       14.3120655636       12.0053041573  MEMB      14              0.0000000000
      1397        14  SLPC      H2R            -4.9298460234       13.7852138756       11.8819688669  MEMB      14              0.0000000000
      1398        14  SLPC      H2S            -4.0620010995       15.2010857042       12.6636820451  MEMB      14              0.0000000000
      1399        14  SLPC      C3             -2.8621730523       10.1247977330       13.2580027323  MEMB      14              0.0000000000
      1400        14  SLPC      HX             -2.4768417759        9.3945365064       14.0013463421  MEMB      14              0.0000000000
      1401        14  SLPC      HY             -1.9477178182       10.5559643896       12.7973640049  MEMB      14              0.0000000000
      1402        14  SLPC      O31            -3.7519300341        9.3722154152       12.3965054390  MEMB      14              0.0000000000
      1403        14  SLPC      C31            -3.6310170971        9.6703974925       11.0784520655  MEMB      14              0.0000000000
      1404        14  SLPC      O32            -2.8130839809       10.4290051891       10.6599737670  MEMB      14              0.0000000000
      1405        14  SLPC      C32            -4.8225784091        9.0822977707       10.3574215376  MEMB      14              0.0000000000
      1406        14  SLPC      H2X            -5.1277778941        8.1126233647       10.8056462333  MEMB      14              0.0000000000
      1407        14  SLPC      H2Y            -4.4022785854        8.7624748155        9.3799848966  MEMB      14              0.0000000000
      1408        14  SLPC      C23            -3.4498476244       14.8346220458       10.6906739877  MEMB      14              0.0000000000
      1409        14  SLPC      H3R            -3.1919425279       13.9037243708       10.1418250091  MEMB      14              0.0000000000
      1410        14  SLPC      H3S            -2.4816594268       15.3452645913       10.8808752356  MEMB      14              0.0000000000
      1411        14  SLPC      C24            -4.5013605308       15.6633812028        9.9772940646  MEMB      14              0.0000000000
      1412        14  SLPC      H4R            -4.6650974368       16.6129581097       10.5302994064  MEMB      14              0.0000000000
      1413        14  SLPC      H4S            -5.4758397505       15.1431317139       10.0958331448  MEMB      14              0.0000000000
      1414        14  SLPC      C25            -4.2237745216       15.8529755080        8.5107787025  MEMB      14              0.0000000000
      1415        14  SLPC      H5R            -4.2953861502       14.8800220839        7.9792202373  MEMB      14              0.0000000000
      1416        14  SLPC      H5S            -3.1697240955       16.2030161328        8.5385340168  MEMB      14              0.0000000000
      1417        14  SLPC      C26            -5.2249163117       16.9011756303        7.9180712618  MEMB      14              0.0000000000
      1418        14  SLPC      H6R            -5.0306833018       17.8641572733        8.4369747343  MEMB      14              0.0000000000
      1419        14  SLPC      H6S            -6.2695369615       16.5743880862        8.1085929815  MEMB      14              0.0000000000
      1420        14  SLPC      C27            -5.1737276591       16.9823635302        6.4218972896  MEMB      14              0.0000000000
      1421        14  SLPC      H7R            -4.1025217331       16.8725537365        6.1484364462  MEMB      14              0.0000000000
      1422        14  SLPC      H7S            -5.4220045873       18.0345420685        6.1657726892  MEMB      14              0.0000000000
      1423        14  SLPC      C28            -5.9596400821       15.9270679867        5.5805616617  MEMB      14              0.0000000000
      1424        14  SLPC      H8R            -6.9527608388       15.8345512771        6.0699211415  MEMB      14              0.0000000000
      1425        14  SLPC      H8S            -5.4194065725       14.9582689977        5.6429913599  MEMB      14              0.0000000000
      1426        14  SLPC      C29            -5.9663717855       16.1908828935        4.1065225250  MEMB      14              0.0000000000
      1427        14  SLPC      H9R            -4.9810163719       16.4016445891        3.6653259698  MEMB      14              0.0000000000
      1428        14  SLPC      C210           -7.0507060163       16.0071483238        3.3234459228  MEMB      14              0.0000000000
      1429        14  SLPC      H10R           -6.8739751169       16.1420881308        2.2461545171  MEMB      14              0.0000000000
      1430        14  SLPC      C211           -8.4439365271       15.5216567142        3.7412498557  MEMB      14              0.0000000000
      1431        14  SLPC      H11R           -9.1079574605       16.3652015145        3.4551923824  MEMB      14              0.0000000000
      1432        14  SLPC      H11S           -8.6908595650       15.4601869356        4.8227176843  MEMB      14              0.0000000000
      1433        14  SLPC      C212           -8.7573178521       14.2364200537        3.1021786988  MEMB      14              0.0000000000
      1434        14  SLPC      H12R           -8.5920850364       13.3392662869        3.7168441619  MEMB      14              0.0000000000
      1435        14  SLPC      C213           -9.1509365650       14.1441527819        1.7919223605  MEMB      14              0.0000000000
      1436        14  SLPC      H13R           -9.3997243921       13.1600735988        1.3680209299  MEMB      14              0.0000000000
      1437        14  SLPC      C214           -9.4009708135       15.2196094799        0.6663559416  MEMB      14              0.0000000000
      1438        14  SLPC      H14R           -8.9755279842       16.1930726256        0.9914548848  MEMB      14              0.0000000000
      1439        14  SLPC      H14S          -10.4876460680       15.3007847016        0.4498638594  MEMB      14              0.0000000000
      1440        14  SLPC      C215           -8.7564565109       14.5853346276       -0.5794908074  MEMB      14              0.0000000000
      1441        14  SLPC      H15R           -9.0152738633       15.2568640069       -1.4258861159  MEMB      14              0.0000000000
      1442        14  SLPC      H15S           -9.1565614985       13.5983205800       -0.8957828789  MEMB      14              0.0000000000
      1443        14  SLPC      C216           -7.2183758073       14.4945614773       -0.4089880774  MEMB      14              0.0000000000
      1444        14  SLPC      H16R           -7.0007323946       14.0350812908       -1.3968290763  MEMB      14              0.0000000000
      1445        14  SLPC      H16S           -6.9225030658       13.8216667736        0.4240744368  MEMB      14              0.0000000000
      1446        14  SLPC      C217           -6.3672772707       15.8074192066       -0.3078714123  MEMB      14              0.0000000000
      1447        14  SLPC      H17R           -5.5925444099       15.7285482099        0.4845249647  MEMB      14              0.0000000000
      1448        14  SLPC      H17S           -7.0537094582       16.5781901014        0.1032787106  MEMB      14              0.0000000000
      1449        14  SLPC      C218           -5.7242403563       16.3586618921       -1.5820292818  MEMB      14              0.0000000000
      1450        14  SLPC      H18R           -4.9442452497       15.6779241337       -1.9851723075  MEMB      14              0.0000000000
      1451        14  SLPC      H18S           -5.2339737339       17.3432545552       -1.4253860604  MEMB      14              0.0000000000
      1452        14  SLPC      H18T           -6.4785499254       16.4315728188       -2.3944460328  MEMB      14              0.0000000000
      1453        14  SLPC      C33            -5.9634510869       10.0514899735       10.2549057508  MEMB      14              0.0000000000
      1454        14  SLPC      H3X            -6.2410903607       10.5840264586       11.1895941496  MEMB      14              0.0000000000
      1455        14  SLPC      H3Y            -6.8577148927        9.4127096430       10.0918932261  MEMB      14              0.0000000000
      1456        14  SLPC      C34            -5.8929242170       11.0909200663        9.0858137948  MEMB      14              0.0000000000
      1457        14  SLPC      H4X            -5.1710805884       11.8820823474        9.3813216513  MEMB      14              0.0000000000
      1458        14  SLPC      H4Y            -6.9196695165       11.5079399992        9.0070144304  MEMB      14              0.0000000000
      1459        14  SLPC      C35            -5.4165410234       10.5426427509        7.6949481668  MEMB      14              0.0000000000
      1460        14  SLPC      H5X            -6.2646265381        9.9642689142        7.2700295074  MEMB      14              0.0000000000
      1461        14  SLPC      H5Y            -4.4610696058        9.9906101414        7.8240028088  MEMB      14              0.0000000000
      1462        14  SLPC      C36            -5.0293958369       11.6524742068        6.7338030537  MEMB      14              0.0000000000
      1463        14  SLPC      H6X            -4.2365941479       12.2879776319        7.1831604858  MEMB      14              0.0000000000
      1464        14  SLPC      H6Y            -5.9353650742       12.2599555902        6.5228373257  MEMB      14              0.0000000000
      1465        14  SLPC      C37            -4.6289025459       11.1439420273        5.4105765327  MEMB      14              0.0000000000
      1466        14  SLPC      H7X            -5.2851024886       10.3422912119        5.0092298346  MEMB      14              0.0000000000
      1467        14  SLPC      H7Y            -3.6211888996       10.7068654158        5.5773036796  MEMB      14              0.0000000000
      1468        14  SLPC      C38            -4.3732698228       12.2859228265        4.3754575957  MEMB      14              0.0000000000
      1469        14  SLPC      H8X            -5.1531793815       13.0707435944        4.2748658054  MEMB      14              0.0000000000
      1470        14  SLPC      H8Y            -4.2091428715       11.6703508480        3.4652622463  MEMB      14              0.0000000000
      1471        14  SLPC      C39            -2.9865560253       13.0164043392        4.5397343076  MEMB      14              0.0000000000
      1472        14  SLPC      H9X            -2.1566807322       12.2993494933        4.7171050286  MEMB      14              0.0000000000
      1473        14  SLPC      H9Y            -3.1928684534       13.7090387208        5.3835435434  MEMB      14              0.0000000000
      1474        14  SLPC      C310           -2.5741497686       13.8422287929        3.2989161760  MEMB      14              0.0000000000
      1475        14  SLPC      H10X           -1.5370905072       14.2158771907        3.4375385601  MEMB      14              0.0000000000
      1476        14  SLPC      H10Y           -3.1830919770       14.7714772688        3.3016402894  MEMB      14              0.0000000000
      1477        14  SLPC      C311           -2.7717726521       13.1274545988        1.9772650670  MEMB      14              0.0000000000
      1478        14  SLPC      H11X           -3.8498308198       13.1608800649        1.7108159811  MEMB      14              0.0000000000
      1479        14  SLPC      H11Y           -2.4312593267       12.0751093839        1.8726651628  MEMB      14              0.0000000000
      1480        14  SLPC      C312           -2.2242464198       14.0128773001        0.7937236082  MEMB      14              0.0000000000
      1481        14  SLPC      H12X           -1.1511820456       13.7503193889        0.6757513385  MEMB      14              0.0000000000
      1482        14  SLPC      H12Y           -2.3397545107       15.0664638722        1.1267918185  MEMB      14              0.0000000000
      1483        14  SLPC      C313           -2.9987421929       13.9106172463       -0.4966824223  MEMB      14              0.0000000000
      1484        14  SLPC      H13X           -2.5489951578       14.6247834416       -1.2191888508  MEMB      14              0.0000000000
      1485        14  SLPC      H13Y           -3.9924474927       14.3568519661       -0.2781758505  MEMB      14              0.0000000000
      1486        14  SLPC      C314           -3.0925375894       12.5029132167       -1.1742617462  MEMB      14              0.0000000000
      1487        14  SLPC      H14X           -2.4504111493       11.8095144288       -0.5901460919  MEMB      14              0.0000000000
      1488        14  SLPC      H14Y           -2.9364705919       12.5646954283       -2.2725099327  MEMB      14              0.0000000000
      1489        14  SLPC      C315           -4.5470456368       11.9268916446       -1.2036182212  MEMB      14              0.0000000000
      1490        14  SLPC      H15X           -5.0133833054       12.3885425512       -2.1001281776  MEMB      14              0.0000000000
      1491        14  SLPC      H15Y           -5.1343651861       12.1394922758       -0.2848279457  MEMB      14              0.0000000000
      1492        14  SLPC      C316           -4.6123587972       10.4307495195       -1.5684736524  MEMB      14              0.0000000000
      1493        14  SLPC      H16X           -3.7986757393        9.8358338949       -1.1012288935  MEMB      14              0.0000000000
      1494        14  SLPC      H16Y           -4.3806510886       10.3771365132       -2.6537191612  MEMB      14              0.0000000000
      1495        14  SLPC      C317           -6.0272186867        9.8323903967       -1.3016139002  MEMB      14              0.0000000000
      1496        14  SLPC      H17X           -6.1649419049        9.9994436817       -0.2119139351  MEMB      14              0.0000000000
      1497        14  SLPC      H17Y           -5.9805576756        8.7424092747       -1.5115792514  MEMB      14              0.0000000000
      1498        14  SLPC      C318           -7.1133394715       10.5831042180       -2.0051043352  MEMB      14              0.0000000000
      1499        14  SLPC      H18X           -7.9662965641        9.9346202727       -2.2987954123  MEMB      14              0.0000000000
      1500        14  SLPC      H18Y           -6.7151847689       11.0522119377       -2.9301629898  MEMB      14              0.0000000000
      1501        14  SLPC      H18Z           -7.4857354330       11.4266644471       -1.3853877530  MEMB      14              0.0000000000
      1502        15  SAPC      N               9.9651809804      -12.3327907441       18.6036304585  MEMB      15              0.0000000000
      1503        15  SAPC      C12            10.8772540700      -13.4446884730       18.9887051226  MEMB      15              0.0000000000
      1504        15  SAPC      H12A           11.0953049892      -14.0270843678       18.1057165978  MEMB      15              0.0000000000
      1505        15  SAPC      H12B           10.3938266831      -14.0043334351       19.7757854472  MEMB      15              0.0000000000
      1506        15  SAPC      C13            10.7396892005      -11.5010261777       17.5521935119  MEMB      15              0.0000000000
      1507        15  SAPC      H13A           11.7057538454      -11.1467024391       17.8801781636  MEMB      15              0.0000000000
      1508        15  SAPC      H13B           10.8505977184      -12.0905633876       16.6541149933  MEMB      15              0.0000000000
      1509        15  SAPC      H13C           10.1582248225      -10.6055791357       17.3894858567  MEMB      15              0.0000000000
      1510        15  SAPC      C14             8.5829679981      -12.7909177405       18.0882256175  MEMB      15              0.0000000000
      1511        15  SAPC      H14A            7.9584033683      -13.3531411751       18.7666237216  MEMB      15              0.0000000000
      1512        15  SAPC      H14B            8.1730828302      -11.9262680191       17.5874513250  MEMB      15              0.0000000000
      1513        15  SAPC      H14C            8.8391769329      -13.4810996978       17.2980321477  MEMB      15              0.0000000000
      1514        15  SAPC      C15             9.7532367048      -11.3343691468       19.7289215107  MEMB      15              0.0000000000
      1515        15  SAPC      H15A            9.3116518339      -10.4853024150       19.2284331297  MEMB      15              0.0000000000
      1516        15  SAPC      H15B            9.0142808674      -11.6882968089       20.4325405126  MEMB      15              0.0000000000
      1517        15  SAPC      H15C           10.6843979843      -11.0559441766       20.1998971037  MEMB      15              0.0000000000
      1518        15  SAPC      C11            12.2195132078      -12.9989862952       19.5846965690  MEMB      15              0.0000000000
      1519        15  SAPC      H11A           12.8048066434      -12.3781658524       18.8731245929  MEMB      15              0.0000000000
      1520        15  SAPC      H11B           12.7273403210      -13.9612631117       19.8093208210  MEMB      15              0.0000000000
      1521        15  SAPC      P              13.2483684537      -11.6807094840       21.5818773986  MEMB      15              0.0000000000
      1522        15  SAPC      O13            12.7901842968      -10.8075404543       22.6785859262  MEMB      15              0.0000000000
      1523        15  SAPC      O14            14.3389677593      -12.6272006146       21.9038662050  MEMB      15              0.0000000000
      1524        15  SAPC      O12            12.0305685734      -12.4204078323       20.8508807224  MEMB      15              0.0000000000
      1525        15  SAPC      O11            13.7482127304      -10.8344936736       20.4384169472  MEMB      15              0.0000000000
      1526        15  SAPC      C1             14.6831182701       -9.7667642044       20.5521491765  MEMB      15              0.0000000000
      1527        15  SAPC      HA             14.1095461073       -8.8487887517       20.8024629358  MEMB      15              0.0000000000
      1528        15  SAPC      HB             15.4573494017      -10.0190540425       21.3079515523  MEMB      15              0.0000000000
      1529        15  SAPC      C2             15.4397486982       -9.4891933577       19.2630541924  MEMB      15              0.0000000000
      1530        15  SAPC      HS             16.1155664426       -8.6074820348       19.2763338729  MEMB      15              0.0000000000
      1531        15  SAPC      O21            14.6234227858       -9.3835725339       18.1355309242  MEMB      15              0.0000000000
      1532        15  SAPC      C21            13.7545272890       -8.3581615276       18.1917992232  MEMB      15              0.0000000000
      1533        15  SAPC      O22            13.8938075100       -7.4210600186       18.9040789483  MEMB      15              0.0000000000
      1534        15  SAPC      C22            12.6136263145       -8.5531248689       17.1472573869  MEMB      15              0.0000000000
      1535        15  SAPC      H2R            11.7982405725       -8.8632915216       17.8351988866  MEMB      15              0.0000000000
      1536        15  SAPC      H2S            12.3246094774       -7.5329693934       16.8154845669  MEMB      15              0.0000000000
      1537        15  SAPC      C3             16.4302284540      -10.7570935513       19.0801120181  MEMB      15              0.0000000000
      1538        15  SAPC      HX             16.9369358340      -10.8761620033       20.0616369537  MEMB      15              0.0000000000
      1539        15  SAPC      HY             17.2830087025      -10.4382599677       18.4433763279  MEMB      15              0.0000000000
      1540        15  SAPC      O31            15.8048680707      -11.9273063666       18.4944952631  MEMB      15              0.0000000000
      1541        15  SAPC      C31            16.0720809924      -12.1785073015       17.2459488894  MEMB      15              0.0000000000
      1542        15  SAPC      O32            16.7064452618      -11.5342227736       16.4040652206  MEMB      15              0.0000000000
      1543        15  SAPC      C32            15.4621400345      -13.4997264743       16.9681370366  MEMB      15              0.0000000000
      1544        15  SAPC      H2X            14.5501535381      -13.7657914747       17.5441673425  MEMB      15              0.0000000000
      1545        15  SAPC      H2Y            16.2680005196      -14.2479513412       17.1264684567  MEMB      15              0.0000000000
      1546        15  SAPC      C23            12.9340696833       -9.3428586232       15.8494065379  MEMB      15              0.0000000000
      1547        15  SAPC      H3R            12.9817480908      -10.4286598072       16.0798058047  MEMB      15              0.0000000000
      1548        15  SAPC      H3S            13.9065731625       -9.2543108036       15.3195794436  MEMB      15              0.0000000000
      1549        15  SAPC      C24            11.9181330251       -9.1023781391       14.7889835415  MEMB      15              0.0000000000
      1550        15  SAPC      H4R            10.9505880683       -9.1045937350       15.3350356171  MEMB      15              0.0000000000
      1551        15  SAPC      H4S            11.9196678192       -9.8540578143       13.9708782994  MEMB      15              0.0000000000
      1552        15  SAPC      C25            12.0436937128       -7.7584210211       14.1522569958  MEMB      15              0.0000000000
      1553        15  SAPC      H5R            11.2522385734       -7.0976249793       14.5355944081  MEMB      15              0.0000000000
      1554        15  SAPC      C26            13.0587011346       -7.3859111694       13.2758307627  MEMB      15              0.0000000000
      1555        15  SAPC      H6R            13.0313120408       -6.4326729175       12.7275730448  MEMB      15              0.0000000000
      1556        15  SAPC      C27            14.2892284081       -8.0931440507       12.7282854685  MEMB      15              0.0000000000
      1557        15  SAPC      H7R            15.1497298740       -8.0749579998       13.4308003268  MEMB      15              0.0000000000
      1558        15  SAPC      H7S            14.7027712875       -7.4370310400       11.9327858970  MEMB      15              0.0000000000
      1559        15  SAPC      C28            14.2584550513       -9.5765893308       12.2302044307  MEMB      15              0.0000000000
      1560        15  SAPC      H8R            14.7270653787      -10.1940904173       13.0106510881  MEMB      15              0.0000000000
      1561        15  SAPC      C29            13.7263850058      -10.0603348617       11.1164150924  MEMB      15              0.0000000000
      1562        15  SAPC      H9R            13.7846190075      -11.1306861095       10.8695204034  MEMB      15              0.0000000000
      1563        15  SAPC      C210           12.9810547414       -9.1430707428       10.1004732156  MEMB      15              0.0000000000
      1564        15  SAPC      H10R           13.6364115819       -8.3406710101        9.6992459568  MEMB      15              0.0000000000
      1565        15  SAPC      H10S           12.2183558722       -8.6376372432       10.7306704218  MEMB      15              0.0000000000
      1566        15  SAPC      C211           12.4275585139       -9.8857291877        8.9357297641  MEMB      15              0.0000000000
      1567        15  SAPC      H11R           11.6836068021      -10.6732481202        9.1263869086  MEMB      15              0.0000000000
      1568        15  SAPC      C212           12.7619888697       -9.8108395288        7.6477334153  MEMB      15              0.0000000000
      1569        15  SAPC      H12R           12.2509253747      -10.5026090459        6.9619721918  MEMB      15              0.0000000000
      1570        15  SAPC      C213           13.7499868131       -8.9692454892        6.9347840967  MEMB      15              0.0000000000
      1571        15  SAPC      H13R           14.3829498274       -9.6296410686        6.3042641169  MEMB      15              0.0000000000
      1572        15  SAPC      H13S           14.3673270397       -8.3069858641        7.5786974742  MEMB      15              0.0000000000
      1573        15  SAPC      C214           13.0521999150       -8.0990862631        5.9302901364  MEMB      15              0.0000000000
      1574        15  SAPC      H14R           12.3264450819       -7.3762956767        6.3313551483  MEMB      15              0.0000000000
      1575        15  SAPC      C215           13.2807784345       -8.0231868760        4.6091814051  MEMB      15              0.0000000000
      1576        15  SAPC      H15R           12.7633068082       -7.2002947444        4.0943312559  MEMB      15              0.0000000000
      1577        15  SAPC      C216           14.2864369262       -8.7451194635        3.7622196958  MEMB      15              0.0000000000
      1578        15  SAPC      H16R           13.9608617241       -8.4853428255        2.7322493666  MEMB      15              0.0000000000
      1579        15  SAPC      H16S           14.1388336738       -9.8428745201        3.8486393085  MEMB      15              0.0000000000
      1580        15  SAPC      C217           15.7542127902       -8.3581209502        4.0262773648  MEMB      15              0.0000000000
      1581        15  SAPC      H17R           16.1708089711       -9.0388493416        4.7991799105  MEMB      15              0.0000000000
      1582        15  SAPC      H17S           15.7710808872       -7.3002242476        4.3652328037  MEMB      15              0.0000000000
      1583        15  SAPC      C218           16.6660530883       -8.4683920632        2.7936659467  MEMB      15              0.0000000000
      1584        15  SAPC      H18R           16.0259366915       -7.9429317788        2.0530817749  MEMB      15              0.0000000000
      1585        15  SAPC      H18S           16.9230676615       -9.5249998086        2.5659713183  MEMB      15              0.0000000000
      1586        15  SAPC      C219           17.9758865433       -7.6830829473        2.9025452700  MEMB      15              0.0000000000
      1587        15  SAPC      H19R           18.5348700499       -8.0089435302        3.8056924900  MEMB      15              0.0000000000
      1588        15  SAPC      H19S           17.7137809942       -6.6314923857        3.1470421957  MEMB      15              0.0000000000
      1589        15  SAPC      C220           18.8009367369       -7.5127946326        1.6176255880  MEMB      15              0.0000000000
      1590        15  SAPC      H20R           19.7987167762       -7.0247303244        1.6410541325  MEMB      15              0.0000000000
      1591        15  SAPC      H20S           18.2435329445       -6.9238004800        0.8582119126  MEMB      15              0.0000000000
      1592        15  SAPC      H20T           18.9937077416       -8.5113352288        1.1703257032  MEMB      15              0.0000000000
      1593        15  SAPC      C33            15.0551259941      -13.6679182122       15.4760493604  MEMB      15              0.0000000000
      1594        15  SAPC      H3X            15.9593169400      -13.9630884260       14.9019111938  MEMB      15              0.0000000000
      1595        15  SAPC      H3Y            14.5590711287      -12.7371068971       15.1269921451  MEMB      15              0.0000000000
      1596        15  SAPC      C34            14.0001969137      -14.7562326770       15.3389092123  MEMB      15              0.0000000000
      1597        15  SAPC      H4X            13.3749842527      -14.5734817036       16.2389271177  MEMB      15              0.0000000000
      1598        15  SAPC      H4Y            14.5277185960      -15.7230579582       15.4848232777  MEMB      15              0.0000000000
      1599        15  SAPC      C35            13.0344804142      -14.7850333868       14.0766545281  MEMB      15              0.0000000000
      1600        15  SAPC      H5X            12.2218366718      -15.5399619208       14.1400078691  MEMB      15              0.0000000000
      1601        15  SAPC      H5Y            13.6294676462      -14.9454340801       13.1522178287  MEMB      15              0.0000000000
      1602        15  SAPC      C36            12.4325350176      -13.3716758045       13.7300474519  MEMB      15              0.0000000000
      1603        15  SAPC      H6X            13.1477306360      -12.7762042674       13.1232278863  MEMB      15              0.0000000000
      1604        15  SAPC      H6Y            12.3122324838      -12.7810467754       14.6633246264  MEMB      15              0.0000000000
      1605        15  SAPC      C37            10.9931037373      -13.4395170004       13.1020982258  MEMB      15              0.0000000000
      1606        15  SAPC      H7X            10.6107862217      -12.4508977987       12.7692523343  MEMB      15              0.0000000000
      1607        15  SAPC      H7Y            10.3022785318      -13.8304740321       13.8794232009  MEMB      15              0.0000000000
      1608        15  SAPC      C38            10.9286021455      -14.3620715405       11.8954844975  MEMB      15              0.0000000000
      1609        15  SAPC      H8X            11.1766915169      -15.4309127038       12.0697002078  MEMB      15              0.0000000000
      1610        15  SAPC      H8Y            11.7069050047      -14.0023865952       11.1889485076  MEMB      15              0.0000000000
      1611        15  SAPC      C39             9.6551629239      -14.3720326074       11.0205402922  MEMB      15              0.0000000000
      1612        15  SAPC      H9X             8.8863385795      -13.7839948626       11.5659222267  MEMB      15              0.0000000000
      1613        15  SAPC      H9Y             9.2456165205      -15.3954608059       10.8820214740  MEMB      15              0.0000000000
      1614        15  SAPC      C310            9.8243319273      -13.5408361256        9.6874629872  MEMB      15              0.0000000000
      1615        15  SAPC      H10X           10.1780341082      -12.5309797289        9.9864710196  MEMB      15              0.0000000000
      1616        15  SAPC      H10Y            8.8512774453      -13.2898760824        9.2136434547  MEMB      15              0.0000000000
      1617        15  SAPC      C311           10.8550112609      -14.1132854800        8.6189732391  MEMB      15              0.0000000000
      1618        15  SAPC      H11X           10.4307980529      -15.1014189112        8.3397668091  MEMB      15              0.0000000000
      1619        15  SAPC      H11Y           11.8513636709      -14.3756219039        9.0346443519  MEMB      15              0.0000000000
      1620        15  SAPC      C312           11.0357481256      -13.1932112460        7.3969518875  MEMB      15              0.0000000000
      1621        15  SAPC      H12X           11.7071199318      -12.3352271209        7.6147683322  MEMB      15              0.0000000000
      1622        15  SAPC      H12Y           10.0863859960      -12.6167312614        7.3704318001  MEMB      15              0.0000000000
      1623        15  SAPC      C313           11.2966578101      -13.9355090589        6.0616326306  MEMB      15              0.0000000000
      1624        15  SAPC      H13X           10.5479914378      -14.6571864412        5.6704789750  MEMB      15              0.0000000000
      1625        15  SAPC      H13Y           12.2038888337      -14.5092327192        6.3481535632  MEMB      15              0.0000000000
      1626        15  SAPC      C314           11.9174312976      -13.0539652921        4.9672079565  MEMB      15              0.0000000000
      1627        15  SAPC      H14X           12.4867477538      -13.7778439724        4.3457587756  MEMB      15              0.0000000000
      1628        15  SAPC      H14Y           12.6763272859      -12.4307188248        5.4867860392  MEMB      15              0.0000000000
      1629        15  SAPC      C315           10.8762402186      -12.3721719921        4.0758699093  MEMB      15              0.0000000000
      1630        15  SAPC      H15X           10.3656166576      -11.7894022568        4.8720887951  MEMB      15              0.0000000000
      1631        15  SAPC      H15Y           10.1040067639      -13.0385839423        3.6355613648  MEMB      15              0.0000000000
      1632        15  SAPC      C316           11.5301201905      -11.6139246743        2.8966917162  MEMB      15              0.0000000000
      1633        15  SAPC      H16X           12.3893176369      -10.9530559053        3.1403173949  MEMB      15              0.0000000000
      1634        15  SAPC      H16Y           10.7385030380      -10.9511834283        2.4862800302  MEMB      15              0.0000000000
      1635        15  SAPC      C317           12.0009426172      -12.5442891794        1.7256582636  MEMB      15              0.0000000000
      1636        15  SAPC      H17X           11.1677453243      -13.0174215651        1.1632973017  MEMB      15              0.0000000000
      1637        15  SAPC      H17Y           12.7411860748      -13.2913052995        2.0838854489  MEMB      15              0.0000000000
      1638        15  SAPC      C318           12.8038558254      -11.7529968282        0.7272558065  MEMB      15              0.0000000000
      1639        15  SAPC      H18X           13.0198040430      -12.4183660399       -0.1358604672  MEMB      15              0.0000000000
      1640        15  SAPC      H18Y           13.8037711073      -11.4838194589        1.1297900505  MEMB      15              0.0000000000
      1641        15  SAPC      H18Z           12.1919358313      -10.9334731832        0.2933720743  MEMB      15              0.0000000000
      1642        16  SAPC      N              16.0560887013       -5.9171808634       21.8155573438  MEMB      16              0.0000000000
      1643        16  SAPC      C12            16.4999994730       -4.7710569591       20.8959547068  MEMB      16              0.0000000000
      1644        16  SAPC      H12A           17.0277624959       -5.3158711953       20.1271610066  MEMB      16              0.0000000000
      1645        16  SAPC      H12B           17.0215217900       -4.0627442026       21.5226184067  MEMB      16              0.0000000000
      1646        16  SAPC      C13            15.1728833455       -5.4646962535       22.9002109990  MEMB      16              0.0000000000
      1647        16  SAPC      H13A           14.1681363879       -5.4030884342       22.5089466100  MEMB      16              0.0000000000
      1648        16  SAPC      H13B           15.1717111551       -6.3252573545       23.5527701264  MEMB      16              0.0000000000
      1649        16  SAPC      H13C           15.6374751004       -4.6462797908       23.4300684991  MEMB      16              0.0000000000
      1650        16  SAPC      C14            15.1963678244       -6.8904727058       21.2014694919  MEMB      16              0.0000000000
      1651        16  SAPC      H14A           15.0047112638       -7.7412852381       21.8384828584  MEMB      16              0.0000000000
      1652        16  SAPC      H14B           14.2910366674       -6.4679307467       20.7913064067  MEMB      16              0.0000000000
      1653        16  SAPC      H14C           15.7253232956       -7.2118245125       20.3164050232  MEMB      16              0.0000000000
      1654        16  SAPC      C15            17.2853868737       -6.5928943469       22.3130831557  MEMB      16              0.0000000000
      1655        16  SAPC      H15A           17.1139591480       -7.3762720587       23.0365001500  MEMB      16              0.0000000000
      1656        16  SAPC      H15B           17.8382965833       -6.9652085307       21.4633342568  MEMB      16              0.0000000000
      1657        16  SAPC      H15C           17.8981427747       -5.9102646555       22.8831242678  MEMB      16              0.0000000000
      1658        16  SAPC      C11            15.3952495596       -3.7910929292       20.3492217734  MEMB      16              0.0000000000
      1659        16  SAPC      H11A           15.8838062333       -2.9778805880       19.7710184981  MEMB      16              0.0000000000
      1660        16  SAPC      H11B           14.7924092056       -3.3078420058       21.1475782897  MEMB      16              0.0000000000
      1661        16  SAPC      P              14.7558110225       -4.7559906113       18.0382267212  MEMB      16              0.0000000000
      1662        16  SAPC      O13            16.1845332749       -5.0429260798       17.8639074523  MEMB      16              0.0000000000
      1663        16  SAPC      O14            13.7462974517       -5.7572708455       17.5864352644  MEMB      16              0.0000000000
      1664        16  SAPC      O12            14.5003827146       -4.5013733583       19.5721557683  MEMB      16              0.0000000000
      1665        16  SAPC      O11            14.4246447778       -3.3265817648       17.4637773256  MEMB      16              0.0000000000
      1666        16  SAPC      C1             13.4374261866       -2.4734069664       18.1278767098  MEMB      16              0.0000000000
      1667        16  SAPC      HA             12.6802659206       -3.0825179940       18.6664053450  MEMB      16              0.0000000000
      1668        16  SAPC      HB             13.9766907540       -1.8240914922       18.8503060771  MEMB      16              0.0000000000
      1669        16  SAPC      C2             12.7021779859       -1.5573270751       17.1027181994  MEMB      16              0.0000000000
      1670        16  SAPC      HS             11.7539743488       -1.2483551042       17.5923782827  MEMB      16              0.0000000000
      1671        16  SAPC      O21            12.4366260238       -2.2989033621       15.8981008597  MEMB      16              0.0000000000
      1672        16  SAPC      C21            11.4627301418       -3.1778861371       15.9256760868  MEMB      16              0.0000000000
      1673        16  SAPC      O22            10.9361436952       -3.5657987711       17.0015452644  MEMB      16              0.0000000000
      1674        16  SAPC      C22            11.3601492838       -3.7999279442       14.5351476581  MEMB      16              0.0000000000
      1675        16  SAPC      H2R            11.1628587507       -3.0892933190       13.7042467256  MEMB      16              0.0000000000
      1676        16  SAPC      H2S            12.2874782514       -4.3662996100       14.3036198226  MEMB      16              0.0000000000
      1677        16  SAPC      C3             13.4785371171       -0.3442756130       16.5887706595  MEMB      16              0.0000000000
      1678        16  SAPC      HX             13.4842370921        0.3176398399       17.4810468244  MEMB      16              0.0000000000
      1679        16  SAPC      HY             12.8500244723        0.1504676774       15.8177181886  MEMB      16              0.0000000000
      1680        16  SAPC      O31            14.7755273786       -0.6853520819       16.0299505708  MEMB      16              0.0000000000
      1681        16  SAPC      C31            14.8401785998       -1.0462840960       14.7109420677  MEMB      16              0.0000000000
      1682        16  SAPC      O32            13.8809947940       -1.1367239235       13.9876118722  MEMB      16              0.0000000000
      1683        16  SAPC      C32            16.3371088240       -1.4320478621       14.3348925547  MEMB      16              0.0000000000
      1684        16  SAPC      H2X            16.9345037146       -1.4832689541       15.2702090852  MEMB      16              0.0000000000
      1685        16  SAPC      H2Y            16.7571651826       -0.5421032087       13.8192643603  MEMB      16              0.0000000000
      1686        16  SAPC      C23            10.1231186906       -4.6900571236       14.6696371085  MEMB      16              0.0000000000
      1687        16  SAPC      H3R             9.3264671242       -4.0889319092       15.1578127535  MEMB      16              0.0000000000
      1688        16  SAPC      H3S            10.3617708656       -5.4328866426       15.4605672928  MEMB      16              0.0000000000
      1689        16  SAPC      C24             9.7236741535       -5.4585479889       13.3437260506  MEMB      16              0.0000000000
      1690        16  SAPC      H4R             9.5174567653       -4.6283009854       12.6348635678  MEMB      16              0.0000000000
      1691        16  SAPC      H4S             8.8581486250       -6.1005311171       13.6139925803  MEMB      16              0.0000000000
      1692        16  SAPC      C25            10.8221579694       -6.3190137553       12.7587229122  MEMB      16              0.0000000000
      1693        16  SAPC      H5R            10.9531863564       -7.3168638222       13.2027124223  MEMB      16              0.0000000000
      1694        16  SAPC      C26            11.5914885029       -6.0714082474       11.6672011987  MEMB      16              0.0000000000
      1695        16  SAPC      H6R            12.2519725884       -6.8969318768       11.3634386305  MEMB      16              0.0000000000
      1696        16  SAPC      C27            11.6101943970       -4.9168177999       10.6921303609  MEMB      16              0.0000000000
      1697        16  SAPC      H7R            10.5644229198       -4.5576384555       10.5840858221  MEMB      16              0.0000000000
      1698        16  SAPC      H7S            11.9791053133       -5.2393279367        9.6950282105  MEMB      16              0.0000000000
      1699        16  SAPC      C28            12.5080269536       -3.7979956668       11.1382016419  MEMB      16              0.0000000000
      1700        16  SAPC      H8R            13.1266159388       -4.1158477581       11.9904449714  MEMB      16              0.0000000000
      1701        16  SAPC      C29            12.5892212541       -2.5615339184       10.6218183829  MEMB      16              0.0000000000
      1702        16  SAPC      H9R            13.4028515585       -1.8714185370       10.8896740661  MEMB      16              0.0000000000
      1703        16  SAPC      C210           11.7983739653       -1.9942670702        9.5200011510  MEMB      16              0.0000000000
      1704        16  SAPC      H10R           11.0453209226       -1.3088532585        9.9643432698  MEMB      16              0.0000000000
      1705        16  SAPC      H10S           11.1456179984       -2.8125815068        9.1477212986  MEMB      16              0.0000000000
      1706        16  SAPC      C211           12.3738074702       -1.3119238407        8.3106462349  MEMB      16              0.0000000000
      1707        16  SAPC      H11R           13.2433372782       -0.6995571121        8.5915819757  MEMB      16              0.0000000000
      1708        16  SAPC      C212           11.8955794118       -1.2919879104        7.0609869116  MEMB      16              0.0000000000
      1709        16  SAPC      H12R           12.4613678469       -0.7533363862        6.2865595419  MEMB      16              0.0000000000
      1710        16  SAPC      C213           10.6038200402       -1.9102350840        6.5035590204  MEMB      16              0.0000000000
      1711        16  SAPC      H13R            9.8315328868       -1.8875376363        7.3019187998  MEMB      16              0.0000000000
      1712        16  SAPC      H13S           10.6711532576       -2.9975885531        6.2857290921  MEMB      16              0.0000000000
      1713        16  SAPC      C214           10.1033975680       -1.2484812880        5.2702594799  MEMB      16              0.0000000000
      1714        16  SAPC      H14R            9.5925267564       -0.2754378140        5.3171353206  MEMB      16              0.0000000000
      1715        16  SAPC      C215           10.1423614976       -1.6487587657        3.9974765332  MEMB      16              0.0000000000
      1716        16  SAPC      H15R            9.7330466095       -0.9741881120        3.2310445987  MEMB      16              0.0000000000
      1717        16  SAPC      C216           10.8104473006       -2.9864285508        3.4178095663  MEMB      16              0.0000000000
      1718        16  SAPC      H16R           10.0736843366       -3.5713873685        2.8267729196  MEMB      16              0.0000000000
      1719        16  SAPC      H16S           11.0749401201       -3.5199028793        4.3557704592  MEMB      16              0.0000000000
      1720        16  SAPC      C217           12.1584559072       -2.7309729354        2.7094404904  MEMB      16              0.0000000000
      1721        16  SAPC      H17R           12.6572353065       -3.6697021566        2.3864428367  MEMB      16              0.0000000000
      1722        16  SAPC      H17S           12.8797187755       -2.2768790871        3.4221114241  MEMB      16              0.0000000000
      1723        16  SAPC      C218           12.0437291440       -1.8781263038        1.4429486275  MEMB      16              0.0000000000
      1724        16  SAPC      H18R           13.0408318485       -1.8284817550        0.9554630151  MEMB      16              0.0000000000
      1725        16  SAPC      H18S           11.6659930169       -0.8750713080        1.7353817798  MEMB      16              0.0000000000
      1726        16  SAPC      C219           11.2739447861       -2.4892495217        0.3311124744  MEMB      16              0.0000000000
      1727        16  SAPC      H19R           11.2181050691       -1.7871829737       -0.5281340335  MEMB      16              0.0000000000
      1728        16  SAPC      H19S           10.2570627448       -2.6155477859        0.7604385163  MEMB      16              0.0000000000
      1729        16  SAPC      C220           11.7149996098       -3.8931595043       -0.1499422065  MEMB      16              0.0000000000
      1730        16  SAPC      H20R           12.7871852437       -4.0256687651       -0.4091334514  MEMB      16              0.0000000000
      1731        16  SAPC      H20S           11.2858248213       -4.1085090367       -1.1518175682  MEMB      16              0.0000000000
      1732        16  SAPC      H20T           11.4337450674       -4.7320657051        0.5219625043  MEMB      16              0.0000000000
      1733        16  SAPC      C33            16.2836081976       -2.7068968957       13.4576857890  MEMB      16              0.0000000000
      1734        16  SAPC      H3X            17.1839603679       -2.6720684490       12.8077058688  MEMB      16              0.0000000000
      1735        16  SAPC      H3Y            15.3972360797       -2.6174464495       12.7938601307  MEMB      16              0.0000000000
      1736        16  SAPC      C34            16.3398777798       -4.0531285372       14.2361329154  MEMB      16              0.0000000000
      1737        16  SAPC      H4X            15.4360104587       -4.2464327742       14.8525564999  MEMB      16              0.0000000000
      1738        16  SAPC      H4Y            17.0804750155       -3.8455059879       15.0378370034  MEMB      16              0.0000000000
      1739        16  SAPC      C35            16.8797592203       -5.1079401377       13.3629250588  MEMB      16              0.0000000000
      1740        16  SAPC      H5X            17.0399228786       -6.0715116993       13.8922624756  MEMB      16              0.0000000000
      1741        16  SAPC      H5Y            17.9125624085       -4.9029266842       13.0085132034  MEMB      16              0.0000000000
      1742        16  SAPC      C36            15.9155015157       -5.2962952868       12.0557735002  MEMB      16              0.0000000000
      1743        16  SAPC      H6X            15.7593467699       -4.3520054173       11.4916347298  MEMB      16              0.0000000000
      1744        16  SAPC      H6Y            14.9273423271       -5.6469087463       12.4231051850  MEMB      16              0.0000000000
      1745        16  SAPC      C37            16.5831352782       -6.2639163783       11.0857177844  MEMB      16              0.0000000000
      1746        16  SAPC      H7X            16.7173295248       -7.1248407357       11.7750089827  MEMB      16              0.0000000000
      1747        16  SAPC      H7Y            17.5078662479       -5.7562371611       10.7372129645  MEMB      16              0.0000000000
      1748        16  SAPC      C38            15.6779306037       -6.5304468001        9.9266322550  MEMB      16              0.0000000000
      1749        16  SAPC      H8X            14.6915551672       -6.7541184291       10.3863667363  MEMB      16              0.0000000000
      1750        16  SAPC      H8Y            16.0000305603       -7.4721057921        9.4328201990  MEMB      16              0.0000000000
      1751        16  SAPC      C39            15.6185596499       -5.4193524713        8.8435246168  MEMB      16              0.0000000000
      1752        16  SAPC      H9X            16.6703843763       -5.4595721498        8.4880422633  MEMB      16              0.0000000000
      1753        16  SAPC      H9Y            15.3488394418       -4.4263636556        9.2625060699  MEMB      16              0.0000000000
      1754        16  SAPC      C310           14.7382373579       -5.8040047746        7.7345535772  MEMB      16              0.0000000000
      1755        16  SAPC      H10X           13.6952744794       -5.7387390954        8.1117668246  MEMB      16              0.0000000000
      1756        16  SAPC      H10Y           14.9101441217       -6.8572109814        7.4254805312  MEMB      16              0.0000000000
      1757        16  SAPC      C311           15.0451054589       -4.9653006020        6.4247448046  MEMB      16              0.0000000000
      1758        16  SAPC      H11X           15.3769030898       -3.9450876282        6.7135300176  MEMB      16              0.0000000000
      1759        16  SAPC      H11Y           14.1868465786       -4.6498035117        5.7937344825  MEMB      16              0.0000000000
      1760        16  SAPC      C312           16.0990724909       -5.5179633705        5.5314895291  MEMB      16              0.0000000000
      1761        16  SAPC      H12X           15.8135142135       -6.5540929314        5.2500408070  MEMB      16              0.0000000000
      1762        16  SAPC      H12Y           17.0496836177       -5.6501415702        6.0911219717  MEMB      16              0.0000000000
      1763        16  SAPC      C313           16.3813814450       -4.7747087346        4.2085377947  MEMB      16              0.0000000000
      1764        16  SAPC      H13X           17.2403462380       -5.2831962168        3.7207452808  MEMB      16              0.0000000000
      1765        16  SAPC      H13Y           16.8748997290       -3.7921046049        4.3674396795  MEMB      16              0.0000000000
      1766        16  SAPC      C314           15.2842939365       -4.6041871092        3.2227648436  MEMB      16              0.0000000000
      1767        16  SAPC      H14X           14.4968554227       -3.9231298624        3.6106081829  MEMB      16              0.0000000000
      1768        16  SAPC      H14Y           14.7883217907       -5.5964957176        3.1622977498  MEMB      16              0.0000000000
      1769        16  SAPC      C315           15.8376742190       -4.2015052333        1.8610869720  MEMB      16              0.0000000000
      1770        16  SAPC      H15X           15.1701904817       -4.6912767825        1.1202026590  MEMB      16              0.0000000000
      1771        16  SAPC      H15Y           16.8929090311       -4.5482578579        1.8373611016  MEMB      16              0.0000000000
      1772        16  SAPC      C316           15.8549563451       -2.6487663616        1.6333331919  MEMB      16              0.0000000000
      1773        16  SAPC      H16X           16.3613020021       -2.1808339762        2.5045255551  MEMB      16              0.0000000000
      1774        16  SAPC      H16Y           14.8225188219       -2.2651446674        1.7790325169  MEMB      16              0.0000000000
      1775        16  SAPC      C317           16.4937215189       -2.0818564664        0.3604007567  MEMB      16              0.0000000000
      1776        16  SAPC      H17X           16.0692427734       -2.4670484858       -0.5913165812  MEMB      16              0.0000000000
      1777        16  SAPC      H17Y           17.5549342507       -2.3786146730        0.5021121056  MEMB      16              0.0000000000
      1778        16  SAPC      C318           16.3493569171       -0.5890888208        0.3327707196  MEMB      16              0.0000000000
      1779        16  SAPC      H18X           16.9844839760       -0.2622352344       -0.5181707116  MEMB      16              0.0000000000
      1780        16  SAPC      H18Y           16.7896326746       -0.2491162835        1.2944865576  MEMB      16              0.0000000000
      1781        16  SAPC      H18Z           15.3191793994       -0.2387430659        0.1084646967  MEMB      16              0.0000000000
      1782        17  SLPC      N              15.2220237315        7.6435067761       19.1481555781  MEMB      17              0.0000000000
      1783        17  SLPC      C13            14.7388353219        6.2915559709       18.7374636739  MEMB      17              0.0000000000
      1784        17  SLPC      H13A           14.9530435385        5.5797938435       19.5209872768  MEMB      17              0.0000000000
      1785        17  SLPC      H13B           13.6708821852        6.2171031135       18.5948697672  MEMB      17              0.0000000000
      1786        17  SLPC      H13C           15.1379196388        6.0316487849       17.7681444080  MEMB      17              0.0000000000
      1787        17  SLPC      C14            16.6672144178        7.3717800429       19.5853839440  MEMB      17              0.0000000000
      1788        17  SLPC      H14A           17.2563052269        8.2767924583       19.5673678577  MEMB      17              0.0000000000
      1789        17  SLPC      H14B           16.6302673934        7.0081325895       20.6016494687  MEMB      17              0.0000000000
      1790        17  SLPC      H14C           17.0919175721        6.6666133225       18.8862651953  MEMB      17              0.0000000000
      1791        17  SLPC      C15            14.3860253228        8.0297099610       20.3586221205  MEMB      17              0.0000000000
      1792        17  SLPC      H15A           14.4208848189        7.1663017933       21.0064730950  MEMB      17              0.0000000000
      1793        17  SLPC      H15B           14.7299149874        8.8815479718       20.9265231709  MEMB      17              0.0000000000
      1794        17  SLPC      H15C           13.3537654620        8.2794518950       20.1624882964  MEMB      17              0.0000000000
      1795        17  SLPC      C12            15.0472638887        8.7083817728       18.1365349299  MEMB      17              0.0000000000
      1796        17  SLPC      H12A           15.1821854952        9.6595761940       18.6299163666  MEMB      17              0.0000000000
      1797        17  SLPC      H12B           14.0066234060        8.7705353547       17.8543924362  MEMB      17              0.0000000000
      1798        17  SLPC      C11            16.0282807835        8.6161447554       16.8903658493  MEMB      17              0.0000000000
      1799        17  SLPC      H11A           17.0671300102        8.5916616858       17.2834483241  MEMB      17              0.0000000000
      1800        17  SLPC      H11B           15.8204029886        9.4141266881       16.1458306430  MEMB      17              0.0000000000
      1801        17  SLPC      P              16.5519445211        7.1017255257       14.7782154156  MEMB      17              0.0000000000
      1802        17  SLPC      O13            15.6323396010        7.7118024861       13.7619107043  MEMB      17              0.0000000000
      1803        17  SLPC      O14            18.0127538872        7.5193811477       14.6923759700  MEMB      17              0.0000000000
      1804        17  SLPC      O12            15.9354286330        7.3905914122       16.2487863286  MEMB      17              0.0000000000
      1805        17  SLPC      O11            16.4096153086        5.5731454846       14.6621854673  MEMB      17              0.0000000000
      1806        17  SLPC      C1             16.5268585988        4.7018101166       15.8309798983  MEMB      17              0.0000000000
      1807        17  SLPC      HA             17.6112758282        4.6089081460       16.0539811146  MEMB      17              0.0000000000
      1808        17  SLPC      HB             16.0379966939        5.0263160796       16.7743943789  MEMB      17              0.0000000000
      1809        17  SLPC      C2             16.1276535255        3.2973994546       15.5462310822  MEMB      17              0.0000000000
      1810        17  SLPC      HS             16.6592050291        2.5671416993       16.1931448487  MEMB      17              0.0000000000
      1811        17  SLPC      O21            16.4594950773        2.8597446536       14.1868096124  MEMB      17              0.0000000000
      1812        17  SLPC      C21            17.6878753583        2.8828878183       13.6009609989  MEMB      17              0.0000000000
      1813        17  SLPC      O22            18.7366729228        2.9748001400       14.2556101006  MEMB      17              0.0000000000
      1814        17  SLPC      C22            17.5873590516        2.7515440193       12.0699033234  MEMB      17              0.0000000000
      1815        17  SLPC      H2R            18.3250514321        1.9687075184       11.7918775635  MEMB      17              0.0000000000
      1816        17  SLPC      H2S            16.5445383043        2.5163333789       11.7673778067  MEMB      17              0.0000000000
      1817        17  SLPC      C3             14.5166313965        3.0617154468       15.7835466080  MEMB      17              0.0000000000
      1818        17  SLPC      HX             14.3283242966        3.3327649325       16.8443923683  MEMB      17              0.0000000000
      1819        17  SLPC      HY             14.2539062764        2.0105231625       15.5380038049  MEMB      17              0.0000000000
      1820        17  SLPC      O31            13.5959773932        3.8481652621       15.0775891536  MEMB      17              0.0000000000
      1821        17  SLPC      C31            13.3725585710        3.5277677553       13.8348466283  MEMB      17              0.0000000000
      1822        17  SLPC      O32            13.8756341784        2.6067486855       13.2138470048  MEMB      17              0.0000000000
      1823        17  SLPC      C32            12.3343667445        4.4691329579       13.2210423429  MEMB      17              0.0000000000
      1824        17  SLPC      H2X            11.7944714486        4.9314971716       14.0748883542  MEMB      17              0.0000000000
      1825        17  SLPC      H2Y            11.6487950818        3.8533383533       12.6004702984  MEMB      17              0.0000000000
      1826        17  SLPC      C23            18.0411263278        3.9584905250       11.2571180312  MEMB      17              0.0000000000
      1827        17  SLPC      H3R            18.3317119701        3.7823307681       10.1993615482  MEMB      17              0.0000000000
      1828        17  SLPC      H3S            18.9708005130        4.3359080691       11.7341742004  MEMB      17              0.0000000000
      1829        17  SLPC      C24            17.0083610513        5.1019629045       11.1712031003  MEMB      17              0.0000000000
      1830        17  SLPC      H4R            16.9972722174        5.3178945701       12.2609606806  MEMB      17              0.0000000000
      1831        17  SLPC      H4S            16.0363234903        4.7229484108       10.7893496679  MEMB      17              0.0000000000
      1832        17  SLPC      C25            17.5156941701        6.4761894451       10.6411072166  MEMB      17              0.0000000000
      1833        17  SLPC      H5R            18.4645961549        6.6908467417       11.1776036600  MEMB      17              0.0000000000
      1834        17  SLPC      H5S            16.9637534714        7.4297174703       10.7841704952  MEMB      17              0.0000000000
      1835        17  SLPC      C26            17.8539220075        6.4063990901        9.0823186318  MEMB      17              0.0000000000
      1836        17  SLPC      H6R            16.8958793776        6.2682924377        8.5369727490  MEMB      17              0.0000000000
      1837        17  SLPC      H6S            18.5433859657        5.5446698932        8.9543214588  MEMB      17              0.0000000000
      1838        17  SLPC      C27            18.7085798962        7.5866975528        8.4633824989  MEMB      17              0.0000000000
      1839        17  SLPC      H7R            19.6024198109        7.7992111618        9.0880500022  MEMB      17              0.0000000000
      1840        17  SLPC      H7S            18.0895333521        8.5078719215        8.5137867803  MEMB      17              0.0000000000
      1841        17  SLPC      C28            19.2583573167        7.1767085237        7.0612372590  MEMB      17              0.0000000000
      1842        17  SLPC      H8R            19.6653124254        8.0475086537        6.5040884785  MEMB      17              0.0000000000
      1843        17  SLPC      H8S            18.4386933349        6.7718763603        6.4299035092  MEMB      17              0.0000000000
      1844        17  SLPC      C29            20.4108279547        6.1312693707        7.1594973657  MEMB      17              0.0000000000
      1845        17  SLPC      H9R            21.2834992468        6.4815865751        7.7302186461  MEMB      17              0.0000000000
      1846        17  SLPC      C210           20.4043563419        4.8867325313        6.5443291870  MEMB      17              0.0000000000
      1847        17  SLPC      H10R           21.2620674058        4.2053244650        6.6444017726  MEMB      17              0.0000000000
      1848        17  SLPC      C211           19.3764950858        4.3370863961        5.7285564209  MEMB      17              0.0000000000
      1849        17  SLPC      H11R           19.8794018852        3.7360753494        4.9410332038  MEMB      17              0.0000000000
      1850        17  SLPC      H11S           18.7557790048        5.1359284159        5.2693350352  MEMB      17              0.0000000000
      1851        17  SLPC      C212           18.4771861253        3.4701564876        6.5198343249  MEMB      17              0.0000000000
      1852        17  SLPC      H12R           18.8735916517        2.9194376944        7.3856118549  MEMB      17              0.0000000000
      1853        17  SLPC      C213           17.2052371831        3.1380661084        6.1725804352  MEMB      17              0.0000000000
      1854        17  SLPC      H13R           16.6018819036        2.4663557329        6.8008864828  MEMB      17              0.0000000000
      1855        17  SLPC      C214           16.4559116553        3.5682088140        4.9505634231  MEMB      17              0.0000000000
      1856        17  SLPC      H14R           16.9251751796        4.4603400162        4.4834295041  MEMB      17              0.0000000000
      1857        17  SLPC      H14S           15.4077858878        3.6944878645        5.2966951342  MEMB      17              0.0000000000
      1858        17  SLPC      C215           16.5800904066        2.4472624869        3.8910069252  MEMB      17              0.0000000000
      1859        17  SLPC      H15R           16.0389448999        1.5506233116        4.2618446313  MEMB      17              0.0000000000
      1860        17  SLPC      H15S           17.5948089095        2.0472331366        3.6797159601  MEMB      17              0.0000000000
      1861        17  SLPC      C216           15.8154202910        2.8053006328        2.5976057258  MEMB      17              0.0000000000
      1862        17  SLPC      H16R           15.7676198834        1.9832103822        1.8518153000  MEMB      17              0.0000000000
      1863        17  SLPC      H16S           16.4587023391        3.5946028479        2.1531839767  MEMB      17              0.0000000000
      1864        17  SLPC      C217           14.3686840536        3.3139654885        2.7354872270  MEMB      17              0.0000000000
      1865        17  SLPC      H17R           14.3962536838        4.2860843403        3.2726514787  MEMB      17              0.0000000000
      1866        17  SLPC      H17S           13.8114433393        2.5986294758        3.3774360635  MEMB      17              0.0000000000
      1867        17  SLPC      C218           13.6884723707        3.3677590681        1.3743706715  MEMB      17              0.0000000000
      1868        17  SLPC      H18R           13.5891501884        2.3625064025        0.9118524143  MEMB      17              0.0000000000
      1869        17  SLPC      H18S           14.3905274135        3.9347666271        0.7263415117  MEMB      17              0.0000000000
      1870        17  SLPC      H18T           12.6797816628        3.8277147257        1.4472065358  MEMB      17              0.0000000000
      1871        17  SLPC      C33            12.8512206455        5.7821186992       12.5196558591  MEMB      17              0.0000000000
      1872        17  SLPC      H3X            13.6058120593        5.4659883645       11.7680082135  MEMB      17              0.0000000000
      1873        17  SLPC      H3Y            13.4102276797        6.2843632391       13.3379360345  MEMB      17              0.0000000000
      1874        17  SLPC      C34            11.6972419488        6.7934494633       12.0861257268  MEMB      17              0.0000000000
      1875        17  SLPC      H4X            11.0017164734        6.6967998697       12.9470694732  MEMB      17              0.0000000000
      1876        17  SLPC      H4Y            11.1122789150        6.3604171375       11.2467075567  MEMB      17              0.0000000000
      1877        17  SLPC      C35            12.1319459870        8.2741838508       11.9927599348  MEMB      17              0.0000000000
      1878        17  SLPC      H5X            12.8319653976        8.5590141924       12.8071097410  MEMB      17              0.0000000000
      1879        17  SLPC      H5Y            11.2460784073        8.9419719450       12.0529140278  MEMB      17              0.0000000000
      1880        17  SLPC      C36            12.8099291271        8.7703449780       10.6714076764  MEMB      17              0.0000000000
      1881        17  SLPC      H6X            13.2759048819        9.7291001490       10.9844190808  MEMB      17              0.0000000000
      1882        17  SLPC      H6Y            12.0376193546        8.9705622172        9.8982507715  MEMB      17              0.0000000000
      1883        17  SLPC      C37            13.9040702403        7.8144816685       10.1014496622  MEMB      17              0.0000000000
      1884        17  SLPC      H7X            13.3874909382        6.9128346335        9.7083857813  MEMB      17              0.0000000000
      1885        17  SLPC      H7Y            14.5182086493        7.5258526117       10.9811360936  MEMB      17              0.0000000000
      1886        17  SLPC      C38            14.6920445327        8.5011521713        8.9615662878  MEMB      17              0.0000000000
      1887        17  SLPC      H8X            15.3423364851        7.7286930957        8.4981565529  MEMB      17              0.0000000000
      1888        17  SLPC      H8Y            15.2566858280        9.2981882899        9.4909383046  MEMB      17              0.0000000000
      1889        17  SLPC      C39            13.9810012789        9.0735632037        7.7527161285  MEMB      17              0.0000000000
      1890        17  SLPC      H9X            13.4881433413       10.0182137931        8.0674349252  MEMB      17              0.0000000000
      1891        17  SLPC      H9Y            13.2259071849        8.3624410176        7.3546475663  MEMB      17              0.0000000000
      1892        17  SLPC      C310           14.8318471481        9.2329491140        6.4017095778  MEMB      17              0.0000000000
      1893        17  SLPC      H10X           15.5822715776       10.0445459441        6.5134906113  MEMB      17              0.0000000000
      1894        17  SLPC      H10Y           14.1684097517        9.5695577556        5.5765633571  MEMB      17              0.0000000000
      1895        17  SLPC      C311           15.5310991344        8.0299497177        5.8324282037  MEMB      17              0.0000000000
      1896        17  SLPC      H11X           14.7308809408        7.3006723437        5.5831766325  MEMB      17              0.0000000000
      1897        17  SLPC      H11Y           16.3034130193        7.6076505154        6.5103041671  MEMB      17              0.0000000000
      1898        17  SLPC      C312           16.3084507656        8.5063498622        4.5886537487  MEMB      17              0.0000000000
      1899        17  SLPC      H12X           17.3054894667        8.9309408021        4.8335160213  MEMB      17              0.0000000000
      1900        17  SLPC      H12Y           15.7443369624        9.1625685155        3.8918944501  MEMB      17              0.0000000000
      1901        17  SLPC      C313           16.7286303500        7.2736026478        3.6741564630  MEMB      17              0.0000000000
      1902        17  SLPC      H13X           15.8734597485        6.5710185741        3.7710067800  MEMB      17              0.0000000000
      1903        17  SLPC      H13Y           17.6205325274        6.7583137337        4.0904605932  MEMB      17              0.0000000000
      1904        17  SLPC      C314           17.0249159449        7.7376499581        2.2202567146  MEMB      17              0.0000000000
      1905        17  SLPC      H14X           17.9820048290        8.3008930926        2.2528000361  MEMB      17              0.0000000000
      1906        17  SLPC      H14Y           16.2985259033        8.5521106787        2.0120926091  MEMB      17              0.0000000000
      1907        17  SLPC      C315           16.9762190566        6.5577321576        1.2840441346  MEMB      17              0.0000000000
      1908        17  SLPC      H15X           17.1236801084        7.0172509208        0.2833345827  MEMB      17              0.0000000000
      1909        17  SLPC      H15Y           16.0102225503        6.0293695052        1.4323824785  MEMB      17              0.0000000000
      1910        17  SLPC      C316           18.2067515960        5.6609526280        1.6124001705  MEMB      17              0.0000000000
      1911        17  SLPC      H16X           18.0862959112        4.6820907061        1.1008914462  MEMB      17              0.0000000000
      1912        17  SLPC      H16Y           18.2319282277        5.5508694343        2.7176460083  MEMB      17              0.0000000000
      1913        17  SLPC      C317           19.5959949858        6.1706234211        1.2479572039  MEMB      17              0.0000000000
      1914        17  SLPC      H17X           19.8594226293        7.0365156759        1.8922850999  MEMB      17              0.0000000000
      1915        17  SLPC      H17Y           19.7076348880        6.2443061295        0.1450389379  MEMB      17              0.0000000000
      1916        17  SLPC      C318           20.5340206108        5.0090265267        1.6005893295  MEMB      17              0.0000000000
      1917        17  SLPC      H18X           20.2633609507        4.7262615948        2.6403528124  MEMB      17              0.0000000000
      1918        17  SLPC      H18Y           21.5485078054        5.4450749548        1.7230565964  MEMB      17              0.0000000000
      1919        17  SLPC      H18Z           20.5260397463        4.0738937476        1.0007693438  MEMB      17              0.0000000000
      1920        18  SAPE      N              10.6514388859       16.8330390705       19.6037613993  MEMB      18              0.0000000000
      1921        18  SAPE      HN1            11.4727204284       16.3695955606       20.0423005482  MEMB      18              0.0000000000
      1922        18  SAPE      HN2            10.9764002148       17.1395075022       18.6645717368  MEMB      18              0.0000000000
      1923        18  SAPE      HN3            10.3299758461       17.6183865860       20.2050022887  MEMB      18              0.0000000000
      1924        18  SAPE      C12             9.6758798966       15.7102999190       19.4791530589  MEMB      18              0.0000000000
      1925        18  SAPE      H12A            9.2238934223       15.8252995195       18.4707859476  MEMB      18              0.0000000000
      1926        18  SAPE      H12B            8.7544971757       15.8915274029       20.0728967611  MEMB      18              0.0000000000
      1927        18  SAPE      C11            10.2513809830       14.2639214632       19.7694695107  MEMB      18              0.0000000000
      1928        18  SAPE      H11A            9.7334626104       13.6374720223       19.0120775994  MEMB      18              0.0000000000
      1929        18  SAPE      H11B            9.9388458765       14.1339832672       20.8276560942  MEMB      18              0.0000000000
      1930        18  SAPE      P              12.3347421345       12.9334836836       20.3060524491  MEMB      18              0.0000000000
      1931        18  SAPE      O13            12.8530798120       13.3727775748       21.6416550220  MEMB      18              0.0000000000
      1932        18  SAPE      O14            11.4426182608       11.7596680082       20.2135334057  MEMB      18              0.0000000000
      1933        18  SAPE      O12            11.6124953349       14.2572399599       19.6419122280  MEMB      18              0.0000000000
      1934        18  SAPE      O11            13.5343535313       12.6907343261       19.3444629661  MEMB      18              0.0000000000
      1935        18  SAPE      C1             14.5469336998       11.6685347426       19.4399704718  MEMB      18              0.0000000000
      1936        18  SAPE      HA             15.5300696658       12.1820680705       19.5035943929  MEMB      18              0.0000000000
      1937        18  SAPE      HB             14.4269100463       11.0210793465       20.3347983863  MEMB      18              0.0000000000
      1938        18  SAPE      C2             14.5253734552       10.6323224354       18.2809500558  MEMB      18              0.0000000000
      1939        18  SAPE      HS             15.4890584750       10.0849782724       18.2031883831  MEMB      18              0.0000000000
      1940        18  SAPE      O21            14.2231183379       11.2717970635       17.0578192274  MEMB      18              0.0000000000
      1941        18  SAPE      C21            15.1477827612       12.1330240911       16.6404966784  MEMB      18              0.0000000000
      1942        18  SAPE      O22            16.2385981424       12.1914560461       17.1649390105  MEMB      18              0.0000000000
      1943        18  SAPE      C22            14.6659206342       12.8456694696       15.3904150713  MEMB      18              0.0000000000
      1944        18  SAPE      H2R            15.5412457156       13.4284428661       15.0319435464  MEMB      18              0.0000000000
      1945        18  SAPE      H2S            14.2861287717       12.1009861866       14.6586184850  MEMB      18              0.0000000000
      1946        18  SAPE      C3             13.3647509153        9.6868096163       18.5964035266  MEMB      18              0.0000000000
      1947        18  SAPE      HX             12.4321878221       10.2818216724       18.6993973596  MEMB      18              0.0000000000
      1948        18  SAPE      HY             13.5462747919        9.3335227430       19.6339769971  MEMB      18              0.0000000000
      1949        18  SAPE      O31            13.2749294573        8.5808849235       17.7297748218  MEMB      18              0.0000000000
      1950        18  SAPE      C31            12.3598176331        8.7936265008       16.7493068815  MEMB      18              0.0000000000
      1951        18  SAPE      O32            11.5509617729        9.6635201051       16.6219051952  MEMB      18              0.0000000000
      1952        18  SAPE      C32            12.6506708047        7.5880350968       15.7673866872  MEMB      18              0.0000000000
      1953        18  SAPE      H2X            12.0644535841        6.7559158251       16.2126372238  MEMB      18              0.0000000000
      1954        18  SAPE      H2Y            13.7104330805        7.2647131000       15.6856082902  MEMB      18              0.0000000000
      1955        18  SAPE      C23            13.4069217905       13.7909890207       15.6343435443  MEMB      18              0.0000000000
      1956        18  SAPE      H3R            13.1824885053       14.4418152452       14.7623483397  MEMB      18              0.0000000000
      1957        18  SAPE      H3S            13.5765191604       14.4453194210       16.5160518290  MEMB      18              0.0000000000
      1958        18  SAPE      C24            12.0545806864       13.1892415305       15.9958234661  MEMB      18              0.0000000000
      1959        18  SAPE      H4R            11.4332642537       14.0670825169       16.2745383365  MEMB      18              0.0000000000
      1960        18  SAPE      H4S            12.2246137727       12.5469337244       16.8862449739  MEMB      18              0.0000000000
      1961        18  SAPE      C25            11.3967039697       12.4161890103       14.8469447047  MEMB      18              0.0000000000
      1962        18  SAPE      H5R            11.9334201256       11.4686426321       14.6917302294  MEMB      18              0.0000000000
      1963        18  SAPE      C26            10.2596701581       12.7196843610       14.1940917619  MEMB      18              0.0000000000
      1964        18  SAPE      H6R             9.8821801852       12.0291945279       13.4255052792  MEMB      18              0.0000000000
      1965        18  SAPE      C27             9.3610300537       13.8814773759       14.4525022510  MEMB      18              0.0000000000
      1966        18  SAPE      H7R             9.0403176256       13.8569462843       15.5159222962  MEMB      18              0.0000000000
      1967        18  SAPE      H7S             8.5267981971       13.9107287615       13.7193427408  MEMB      18              0.0000000000
      1968        18  SAPE      C28            10.1200391279       15.1934889995       14.2761856370  MEMB      18              0.0000000000
      1969        18  SAPE      H8R            10.1656217603       15.8461746141       15.1604503726  MEMB      18              0.0000000000
      1970        18  SAPE      C29            10.5784084971       15.6988684611       13.0589594155  MEMB      18              0.0000000000
      1971        18  SAPE      H9R            11.1845316067       16.6122384643       12.9674737067  MEMB      18              0.0000000000
      1972        18  SAPE      C210           10.4915928840       15.1416453232       11.7246639859  MEMB      18              0.0000000000
      1973        18  SAPE      H10R           10.4741204191       14.0396906476       11.8650619134  MEMB      18              0.0000000000
      1974        18  SAPE      H10S           11.4715790505       15.2956957155       11.2244469201  MEMB      18              0.0000000000
      1975        18  SAPE      C211            9.4393386139       15.7098142634       10.9429758016  MEMB      18              0.0000000000
      1976        18  SAPE      H11R            9.0757455793       16.6740145493       11.3278363390  MEMB      18              0.0000000000
      1977        18  SAPE      C212            8.8335397151       15.0301381633        9.9277292358  MEMB      18              0.0000000000
      1978        18  SAPE      H12R            8.0960407061       15.6613343885        9.4103445988  MEMB      18              0.0000000000
      1979        18  SAPE      C213            9.0917389679       13.6664860192        9.4045766289  MEMB      18              0.0000000000
      1980        18  SAPE      H13R            8.2419559705       13.4150472008        8.7345258879  MEMB      18              0.0000000000
      1981        18  SAPE      H13S            8.9573095857       13.0347904840       10.3085740461  MEMB      18              0.0000000000
      1982        18  SAPE      C214           10.4299264413       13.3952999272        8.7956365707  MEMB      18              0.0000000000
      1983        18  SAPE      H14R           11.0427408653       12.9067347998        9.5674933696  MEMB      18              0.0000000000
      1984        18  SAPE      C215           10.8001708179       13.6211120222        7.5189303700  MEMB      18              0.0000000000
      1985        18  SAPE      H15R           11.8003157688       13.3029332264        7.1895777211  MEMB      18              0.0000000000
      1986        18  SAPE      C216            9.9304620388       14.1836291362        6.4721330807  MEMB      18              0.0000000000
      1987        18  SAPE      H16R            9.6505011534       15.2129154615        6.7827967748  MEMB      18              0.0000000000
      1988        18  SAPE      H16S            8.9799312731       13.6086471074        6.4577077352  MEMB      18              0.0000000000
      1989        18  SAPE      C217           10.4963539000       14.1306148493        5.0398106385  MEMB      18              0.0000000000
      1990        18  SAPE      H17R            9.6936493633       14.3213582191        4.2957653089  MEMB      18              0.0000000000
      1991        18  SAPE      H17S           10.7953555667       13.0657269028        4.9352488692  MEMB      18              0.0000000000
      1992        18  SAPE      C218           11.7031538877       15.0570497603        4.9201263774  MEMB      18              0.0000000000
      1993        18  SAPE      H18R           12.6392180309       14.5999607104        5.3063576681  MEMB      18              0.0000000000
      1994        18  SAPE      H18S           11.5232552408       15.9758004153        5.5183366002  MEMB      18              0.0000000000
      1995        18  SAPE      C219           12.0576499414       15.5618094089        3.5052291276  MEMB      18              0.0000000000
      1996        18  SAPE      H19R           13.0697446989       16.0200129045        3.4993431646  MEMB      18              0.0000000000
      1997        18  SAPE      H19S           11.3974459686       16.4179735028        3.2494265370  MEMB      18              0.0000000000
      1998        18  SAPE      C220           12.1140515501       14.4862896856        2.3828636049  MEMB      18              0.0000000000
      1999        18  SAPE      H20R           11.1745945150       13.8990729398        2.2996905128  MEMB      18              0.0000000000
      2000        18  SAPE      H20S           12.8672379574       13.7006272185        2.6059471080  MEMB      18              0.0000000000
      2001        18  SAPE      H20T           12.3620088322       14.9467028736        1.4026309908  MEMB      18              0.0000000000
      2002        18  SAPE      C33            12.0652696691        7.8545958755       14.2763681026  MEMB      18              0.0000000000
      2003        18  SAPE      H3X            10.9673807545        8.0198271911       14.3171020430  MEMB      18              0.0000000000
      2004        18  SAPE      H3Y            12.2288869254        6.9272280366       13.6868430345  MEMB      18              0.0000000000
      2005        18  SAPE      C34            12.8764621398        8.9745324139       13.5422448229  MEMB      18              0.0000000000
      2006        18  SAPE      H4X            13.9118290788        8.6393453112       13.3186692438  MEMB      18              0.0000000000
      2007        18  SAPE      H4Y            12.9106469582        9.9002126312       14.1556519481  MEMB      18              0.0000000000
      2008        18  SAPE      C35            12.2537429164        9.3207168041       12.1834049452  MEMB      18              0.0000000000
      2009        18  SAPE      H5X            11.2624626332        9.8061604362       12.3100127430  MEMB      18              0.0000000000
      2010        18  SAPE      H5Y            12.3128793843        8.4175893872       11.5390572705  MEMB      18              0.0000000000
      2011        18  SAPE      C36            13.2672461401       10.1638276790       11.4804926883  MEMB      18              0.0000000000
      2012        18  SAPE      H6X            14.2037790263        9.6616572279       11.1563764891  MEMB      18              0.0000000000
      2013        18  SAPE      H6Y            13.4286142100       11.1042854901       12.0495458980  MEMB      18              0.0000000000
      2014        18  SAPE      C37            12.8492292984       10.6211655767       10.0766337302  MEMB      18              0.0000000000
      2015        18  SAPE      H7X            12.0442995552       11.3780823337       10.1927633645  MEMB      18              0.0000000000
      2016        18  SAPE      H7Y            12.5044967544        9.7683904139        9.4535318847  MEMB      18              0.0000000000
      2017        18  SAPE      C38            13.9281591089       11.3424994756        9.3509097684  MEMB      18              0.0000000000
      2018        18  SAPE      H8X            14.9370530935       11.1608865515        9.7792448448  MEMB      18              0.0000000000
      2019        18  SAPE      H8Y            13.8390975887       12.4402339218        9.4970891309  MEMB      18              0.0000000000
      2020        18  SAPE      C39            13.9639169292       11.0161472096        7.8171218583  MEMB      18              0.0000000000
      2021        18  SAPE      H9X            12.9124020220       11.1691537296        7.4927355891  MEMB      18              0.0000000000
      2022        18  SAPE      H9Y            14.2007930665        9.9332276727        7.7429883316  MEMB      18              0.0000000000
      2023        18  SAPE      C310           15.0010829465       11.8145011491        6.9638944150  MEMB      18              0.0000000000
      2024        18  SAPE      H10X           16.0673468764       11.5452806931        7.1217634783  MEMB      18              0.0000000000
      2025        18  SAPE      H10Y           14.8792555296       12.8508490652        7.3452882466  MEMB      18              0.0000000000
      2026        18  SAPE      C311           14.9034141532       11.7442087955        5.4095092931  MEMB      18              0.0000000000
      2027        18  SAPE      H11X           15.7401698498       12.3570937729        5.0113479430  MEMB      18              0.0000000000
      2028        18  SAPE      H11Y           13.9542111424       12.2221267801        5.0855819593  MEMB      18              0.0000000000
      2029        18  SAPE      C312           14.9773736315       10.3637187439        4.8775629017  MEMB      18              0.0000000000
      2030        18  SAPE      H12X           14.1149850557        9.7706731069        5.2502613615  MEMB      18              0.0000000000
      2031        18  SAPE      H12Y           15.8145143417        9.7225965594        5.2275327639  MEMB      18              0.0000000000
      2032        18  SAPE      C313           15.0865418009       10.3919767970        3.3800660587  MEMB      18              0.0000000000
      2033        18  SAPE      H13X           15.9520837880       10.9106304229        2.9151414827  MEMB      18              0.0000000000
      2034        18  SAPE      H13Y           14.1738587768       10.8093385725        2.9034745517  MEMB      18              0.0000000000
      2035        18  SAPE      C314           15.2071373630        8.8562605339        2.7904575472  MEMB      18              0.0000000000
      2036        18  SAPE      H14X           14.1743125997        8.4756365895        2.9411867834  MEMB      18              0.0000000000
      2037        18  SAPE      H14Y           15.8761436521        8.1745985601        3.3579858501  MEMB      18              0.0000000000
      2038        18  SAPE      C315           15.4509006780        8.8563669251        1.2425360742  MEMB      18              0.0000000000
      2039        18  SAPE      H15X           16.3938137188        9.4402468428        1.1768093729  MEMB      18              0.0000000000
      2040        18  SAPE      H15Y           14.7335273660        9.5081915905        0.6995623868  MEMB      18              0.0000000000
      2041        18  SAPE      C316           15.5327826192        7.5619251614        0.5295525783  MEMB      18              0.0000000000
      2042        18  SAPE      H16X           16.0556779004        6.8860724596        1.2395707874  MEMB      18              0.0000000000
      2043        18  SAPE      H16Y           16.1505154925        7.7237588595       -0.3795874363  MEMB      18              0.0000000000
      2044        18  SAPE      C317           14.1696626793        6.9250640589        0.2546900433  MEMB      18              0.0000000000
      2045        18  SAPE      H17X           13.5875116751        6.5785084275        1.1352117613  MEMB      18              0.0000000000
      2046        18  SAPE      H17Y           14.3566878835        5.9801446136       -0.2989081432  MEMB      18              0.0000000000
      2047        18  SAPE      C318           13.1957989977        7.7767061101       -0.5461723052  MEMB      18              0.0000000000
      2048        18  SAPE      H18X           12.2053929834        7.2824330137       -0.4507196516  MEMB      18              0.0000000000
      2049        18  SAPE      H18Y           13.5206416096        8.1058593065       -1.5563488164  MEMB      18              0.0000000000
      2050        18  SAPE      H18Z           13.0912384615        8.7298302803        0.0150247768  MEMB      18              0.0000000000
      2051        19  CHL1      C3             -1.4979730283      -18.3305870655       17.3358400000  MEMB      19              0.0000000000
      2052        19  CHL1      H3             -0.8755427063      -17.4124823603       17.2727400000  MEMB      19              0.0000000000
      2053        19  CHL1      O3             -1.2584752517      -18.6951057345       18.6641600000  MEMB      19              0.0000000000
      2054        19  CHL1      H3'            -1.3442387549      -17.8446304775       19.1011200000  MEMB      19              0.0000000000
      2055        19  CHL1      C4             -2.9753569237      -18.2143949590       17.0536600000  MEMB      19              0.0000000000
      2056        19  CHL1      H4A            -3.3994228505      -19.2271314646       17.2235000000  MEMB      19              0.0000000000
      2057        19  CHL1      H4B            -3.5433765321      -17.5564282904       17.7455800000  MEMB      19              0.0000000000
      2058        19  CHL1      C5             -3.2883111384      -17.8395220745       15.6147800000  MEMB      19              0.0000000000
      2059        19  CHL1      C6             -3.7817361859      -16.6313726867       15.3087200000  MEMB      19              0.0000000000
      2060        19  CHL1      H6             -4.0730129926      -15.8743296546       16.0517200000  MEMB      19              0.0000000000
      2061        19  CHL1      C7             -4.1354405926      -16.3096796748       13.9151800000  MEMB      19              0.0000000000
      2062        19  CHL1      H7A            -5.2147072534      -16.0492110992       13.9559100000  MEMB      19              0.0000000000
      2063        19  CHL1      H7B            -3.5735773462      -15.3932513828       13.6344900000  MEMB      19              0.0000000000
      2064        19  CHL1      C8             -3.9557454749      -17.4093831563       12.8739900000  MEMB      19              0.0000000000
      2065        19  CHL1      H8             -4.8096568770      -18.1192963161       12.9080300000  MEMB      19              0.0000000000
      2066        19  CHL1      C14            -3.8843689344      -16.6237119668       11.5753900000  MEMB      19              0.0000000000
      2067        19  CHL1      H14            -3.1360784936      -15.8044744280       11.6321700000  MEMB      19              0.0000000000
      2068        19  CHL1      C15            -5.0979798899      -15.8344380665       11.0609100000  MEMB      19              0.0000000000
      2069        19  CHL1      H15A           -6.0059901896      -16.4247735956       11.3085500000  MEMB      19              0.0000000000
      2070        19  CHL1      H15B           -5.2743733199      -14.7887185091       11.3920900000  MEMB      19              0.0000000000
      2071        19  CHL1      C16            -4.9654350218      -15.7680614958        9.5483000000  MEMB      19              0.0000000000
      2072        19  CHL1      H16A           -5.9026613599      -15.9816028715        8.9912300000  MEMB      19              0.0000000000
      2073        19  CHL1      H16B           -4.5970522995      -14.7272791844        9.4242400000  MEMB      19              0.0000000000
      2074        19  CHL1      C17            -3.7689602817      -16.6437755079        9.1967100000  MEMB      19              0.0000000000
      2075        19  CHL1      H17            -2.8598888623      -16.0117265850        9.2884700000  MEMB      19              0.0000000000
      2076        19  CHL1      C13            -3.6535078010      -17.5898450618       10.3363900000  MEMB      19              0.0000000000
      2077        19  CHL1      C18            -4.7799550450      -18.6031391911       10.2416100000  MEMB      19              0.0000000000
      2078        19  CHL1      H18A           -5.7903367412      -18.1412661303       10.2303700000  MEMB      19              0.0000000000
      2079        19  CHL1      H18B           -4.6726874287      -19.2689578557        9.3587200000  MEMB      19              0.0000000000
      2080        19  CHL1      H18C           -4.7723785280      -19.2745710651       11.1267300000  MEMB      19              0.0000000000
      2081        19  CHL1      C12            -2.2626598068      -18.2433312649       10.6052100000  MEMB      19              0.0000000000
      2082        19  CHL1      H12A           -2.0041308145      -19.0029522136        9.8367900000  MEMB      19              0.0000000000
      2083        19  CHL1      H12B           -1.5331010153      -17.4056947311       10.5845100000  MEMB      19              0.0000000000
      2084        19  CHL1      C11            -2.1953677041      -19.0729470452       11.9185400000  MEMB      19              0.0000000000
      2085        19  CHL1      H11A           -2.7920084113      -19.9905722993       11.7280100000  MEMB      19              0.0000000000
      2086        19  CHL1      H11B           -1.1780967905      -19.4183589343       12.2017000000  MEMB      19              0.0000000000
      2087        19  CHL1      C9             -2.6972801795      -18.1431905993       13.1060000000  MEMB      19              0.0000000000
      2088        19  CHL1      H9             -1.9540944425      -17.3394867689       13.2958700000  MEMB      19              0.0000000000
      2089        19  CHL1      C10            -2.7338048901      -18.8460184399       14.5889600000  MEMB      19              0.0000000000
      2090        19  CHL1      C19            -3.6147030735      -20.1670779787       14.6167700000  MEMB      19              0.0000000000
      2091        19  CHL1      H19A           -4.6579914618      -19.9688079972       14.2903300000  MEMB      19              0.0000000000
      2092        19  CHL1      H19B           -3.0946796466      -20.8873635589       13.9496200000  MEMB      19              0.0000000000
      2093        19  CHL1      H19C           -3.7082523704      -20.5666859384       15.6491900000  MEMB      19              0.0000000000
      2094        19  CHL1      C1             -1.2413591033      -19.1251518236       15.0159600000  MEMB      19              0.0000000000
      2095        19  CHL1      H1A            -0.9368817775      -19.9811461361       14.3765000000  MEMB      19              0.0000000000
      2096        19  CHL1      H1B            -0.6290779107      -18.2474286411       14.7175800000  MEMB      19              0.0000000000
      2097        19  CHL1      C2             -1.0092209064      -19.4703302059       16.4650200000  MEMB      19              0.0000000000
      2098        19  CHL1      H2A             0.0338079921      -19.7303732395       16.7457000000  MEMB      19              0.0000000000
      2099        19  CHL1      H2B            -1.5414278685      -20.4036894163       16.7477300000  MEMB      19              0.0000000000
      2100        19  CHL1      C20            -3.6184549546      -17.2305014372        7.7124800000  MEMB      19              0.0000000000
      2101        19  CHL1      H20            -3.2723269049      -18.2561508401        7.9626100000  MEMB      19              0.0000000000
      2102        19  CHL1      C21            -2.4335196723      -16.5927506519        6.9764100000  MEMB      19              0.0000000000
      2103        19  CHL1      H21A           -2.2215910699      -16.8947278503        5.9284500000  MEMB      19              0.0000000000
      2104        19  CHL1      H21B           -1.5011985685      -16.8615395809        7.5175600000  MEMB      19              0.0000000000
      2105        19  CHL1      H21C           -2.4923671879      -15.4838274547        7.0101700000  MEMB      19              0.0000000000
      2106        19  CHL1      C22            -4.8960854781      -17.1708508588        6.8823200000  MEMB      19              0.0000000000
      2107        19  CHL1      H22A           -5.6955687956      -17.6091236593        7.5172000000  MEMB      19              0.0000000000
      2108        19  CHL1      H22B           -5.0731248014      -16.0749605199        6.8375800000  MEMB      19              0.0000000000
      2109        19  CHL1      C23            -4.9518567146      -17.8897295855        5.4958800000  MEMB      19              0.0000000000
      2110        19  CHL1      H23A           -5.9701976371      -17.7200757280        5.0853800000  MEMB      19              0.0000000000
      2111        19  CHL1      H23B           -4.1813131704      -17.4203111590        4.8476300000  MEMB      19              0.0000000000
      2112        19  CHL1      C24            -4.6395310552      -19.3465937127        5.5268000000  MEMB      19              0.0000000000
      2113        19  CHL1      H24A           -3.5370487438      -19.4836455018        5.5357400000  MEMB      19              0.0000000000
      2114        19  CHL1      H24B           -5.0219286984      -19.7598308857        6.4845700000  MEMB      19              0.0000000000
      2115        19  CHL1      C25            -5.1766923142      -20.1888134747        4.3938700000  MEMB      19              0.0000000000
      2116        19  CHL1      H25            -4.6927667706      -21.1825183810        4.5066000000  MEMB      19              0.0000000000
      2117        19  CHL1      C26            -6.6419513731      -20.3625874580        4.3337800000  MEMB      19              0.0000000000
      2118        19  CHL1      H26A           -7.1911379723      -20.4079191016        5.2984900000  MEMB      19              0.0000000000
      2119        19  CHL1      H26B           -7.0592962487      -19.5236058879        3.7369200000  MEMB      19              0.0000000000
      2120        19  CHL1      H26C           -6.8379653251      -21.2080240361        3.6401400000  MEMB      19              0.0000000000
      2121        19  CHL1      C27            -4.7534742892      -19.9039779689        2.9123700000  MEMB      19              0.0000000000
      2122        19  CHL1      H27A           -3.6626437009      -19.9095004968        2.7017300000  MEMB      19              0.0000000000
      2123        19  CHL1      H27B           -5.2150159951      -20.5767444557        2.1582600000  MEMB      19              0.0000000000
      2124        19  CHL1      H27C           -5.1367571880      -18.9041454981        2.6161300000  MEMB      19              0.0000000000
      2125        20  CHL1      C3            -14.3194515487      -11.7371026878       17.3520900000  MEMB      20              0.0000000000
      2126        20  CHL1      H3            -14.6942601003      -10.6912602137       17.3453000000  MEMB      20              0.0000000000
      2127        20  CHL1      O3            -14.3942618513      -12.1967527122       18.6479100000  MEMB      20              0.0000000000
      2128        20  CHL1      H3'           -13.8937949771      -11.5831469421       19.1906900000  MEMB      20              0.0000000000
      2129        20  CHL1      C4            -15.0696017713      -12.6466011629       16.3847500000  MEMB      20              0.0000000000
      2130        20  CHL1      H4A           -14.8814573234      -13.6341353453       16.8577100000  MEMB      20              0.0000000000
      2131        20  CHL1      H4B           -16.1244736852      -12.4121764071       16.6428400000  MEMB      20              0.0000000000
      2132        20  CHL1      C5            -14.7663739782      -12.7383840915       14.8656800000  MEMB      20              0.0000000000
      2133        20  CHL1      C6            -15.8295908400      -12.7994192219       14.0094600000  MEMB      20              0.0000000000
      2134        20  CHL1      H6            -16.8257702986      -12.6551545647       14.4531200000  MEMB      20              0.0000000000
      2135        20  CHL1      C7            -15.7252451066      -12.8452247774       12.5476500000  MEMB      20              0.0000000000
      2136        20  CHL1      H7A           -16.2674701742      -13.7223721658       12.1342300000  MEMB      20              0.0000000000
      2137        20  CHL1      H7B           -15.8965166947      -11.8073617295       12.1901000000  MEMB      20              0.0000000000
      2138        20  CHL1      C8            -14.2164387158      -13.1157279031       12.1091000000  MEMB      20              0.0000000000
      2139        20  CHL1      H8            -13.9382183145      -14.1902490382       12.1572800000  MEMB      20              0.0000000000
      2140        20  CHL1      C14           -14.0736424915      -12.7695920494       10.6297300000  MEMB      20              0.0000000000
      2141        20  CHL1      H14           -14.3087436253      -11.6837528857       10.6287600000  MEMB      20              0.0000000000
      2142        20  CHL1      C15           -14.9781085078      -13.3792209284        9.5043500000  MEMB      20              0.0000000000
      2143        20  CHL1      H15A          -14.8454663171      -14.4806339641        9.5644900000  MEMB      20              0.0000000000
      2144        20  CHL1      H15B          -16.0400298516      -13.0527252844        9.5116700000  MEMB      20              0.0000000000
      2145        20  CHL1      C16           -14.2246786090      -12.9788940862        8.1494800000  MEMB      20              0.0000000000
      2146        20  CHL1      H16A          -14.1398203588      -13.9188824016        7.5633500000  MEMB      20              0.0000000000
      2147        20  CHL1      H16B          -14.8151352485      -12.2501667683        7.5539500000  MEMB      20              0.0000000000
      2148        20  CHL1      C17           -12.8828112017      -12.3876416911        8.6605700000  MEMB      20              0.0000000000
      2149        20  CHL1      H17           -12.9040806465      -11.2855608465        8.7994600000  MEMB      20              0.0000000000
      2150        20  CHL1      C13           -12.6629146575      -12.7963049440       10.0595100000  MEMB      20              0.0000000000
      2151        20  CHL1      C18           -12.1951996757      -14.2608903240       10.1067400000  MEMB      20              0.0000000000
      2152        20  CHL1      H18A          -12.8190958329      -14.9473079818        9.4952600000  MEMB      20              0.0000000000
      2153        20  CHL1      H18B          -11.1377414950      -14.3822594222        9.7883700000  MEMB      20              0.0000000000
      2154        20  CHL1      H18C          -12.1169655702      -14.6889190089       11.1289900000  MEMB      20              0.0000000000
      2155        20  CHL1      C12           -11.7936976680      -11.8697930171       10.9076600000  MEMB      20              0.0000000000
      2156        20  CHL1      H12A          -10.7585257043      -12.1565128937       10.6238800000  MEMB      20              0.0000000000
      2157        20  CHL1      H12B          -12.1177521872      -10.8227145064       10.7261800000  MEMB      20              0.0000000000
      2158        20  CHL1      C11           -11.8113004016      -12.2026969736       12.3983300000  MEMB      20              0.0000000000
      2159        20  CHL1      H11A          -11.4410089551      -13.2358994491       12.5706700000  MEMB      20              0.0000000000
      2160        20  CHL1      H11B          -11.3102413172      -11.4161055989       13.0020900000  MEMB      20              0.0000000000
      2161        20  CHL1      C9            -13.2537037967      -12.3132474453       12.9903900000  MEMB      20              0.0000000000
      2162        20  CHL1      H9            -13.5792807396      -11.2667285113       12.8084100000  MEMB      20              0.0000000000
      2163        20  CHL1      C10           -13.3244779034      -12.5723095798       14.5182800000  MEMB      20              0.0000000000
      2164        20  CHL1      C19           -12.7480860786      -13.9561530332       14.8114600000  MEMB      20              0.0000000000
      2165        20  CHL1      H19A          -12.8536741001      -14.3414478661       15.8481500000  MEMB      20              0.0000000000
      2166        20  CHL1      H19B          -13.3236696421      -14.6503945318       14.1625800000  MEMB      20              0.0000000000
      2167        20  CHL1      H19C          -11.6784374864      -13.9514528463       14.5112000000  MEMB      20              0.0000000000
      2168        20  CHL1      C1            -12.6651802349      -11.4721909579       15.4418200000  MEMB      20              0.0000000000
      2169        20  CHL1      H1A           -11.6579128333      -11.1604686606       15.0917300000  MEMB      20              0.0000000000
      2170        20  CHL1      H1B           -13.2398039109      -10.5859286161       15.0973300000  MEMB      20              0.0000000000
      2171        20  CHL1      C2            -12.8131589708      -11.7100358768       16.9276300000  MEMB      20              0.0000000000
      2172        20  CHL1      H2A           -12.2775178635      -10.9362959884       17.5181600000  MEMB      20              0.0000000000
      2173        20  CHL1      H2B           -12.4256554582      -12.7041621283       17.2372700000  MEMB      20              0.0000000000
      2174        20  CHL1      C20           -11.8103170226      -12.8024250349        7.6081300000  MEMB      20              0.0000000000
      2175        20  CHL1      H20           -11.8043835552      -13.8881820107        7.3727200000  MEMB      20              0.0000000000
      2176        20  CHL1      C21           -10.3842051418      -12.3504754222        7.9349600000  MEMB      20              0.0000000000
      2177        20  CHL1      H21A           -9.7720935997      -12.4809117598        7.0170200000  MEMB      20              0.0000000000
      2178        20  CHL1      H21B           -9.9228821079      -12.9531019395        8.7463500000  MEMB      20              0.0000000000
      2179        20  CHL1      H21C          -10.3272673602      -11.2789125351        8.2227700000  MEMB      20              0.0000000000
      2180        20  CHL1      C22           -12.3019734164      -12.1900975652        6.2611600000  MEMB      20              0.0000000000
      2181        20  CHL1      H22A          -13.1977499564      -12.7459021198        5.9104700000  MEMB      20              0.0000000000
      2182        20  CHL1      H22B          -12.4342617418      -11.0931815596        6.3777500000  MEMB      20              0.0000000000
      2183        20  CHL1      C23           -11.4058723177      -12.3088839103        5.0296600000  MEMB      20              0.0000000000
      2184        20  CHL1      H23A          -10.4724838173      -11.7104041307        5.0997700000  MEMB      20              0.0000000000
      2185        20  CHL1      H23B          -11.0796262952      -13.3411428186        4.7800200000  MEMB      20              0.0000000000
      2186        20  CHL1      C24           -12.1998710913      -11.8094421204        3.7765900000  MEMB      20              0.0000000000
      2187        20  CHL1      H24A          -13.0275666690      -12.5489446035        3.7277000000  MEMB      20              0.0000000000
      2188        20  CHL1      H24B          -12.7033891395      -10.8488112254        4.0173800000  MEMB      20              0.0000000000
      2189        20  CHL1      C25           -11.5869897396      -11.7554808001        2.3287600000  MEMB      20              0.0000000000
      2190        20  CHL1      H25           -10.6348584889      -11.1829956855        2.3243000000  MEMB      20              0.0000000000
      2191        20  CHL1      C26           -11.3211536285      -13.1391273478        1.7544600000  MEMB      20              0.0000000000
      2192        20  CHL1      H26A          -11.1182793700      -13.0000788059        0.6710300000  MEMB      20              0.0000000000
      2193        20  CHL1      H26B          -10.5075723128      -13.6854374740        2.2778800000  MEMB      20              0.0000000000
      2194        20  CHL1      H26C          -12.2671675994      -13.6825615573        1.9643500000  MEMB      20              0.0000000000
      2195        20  CHL1      C27           -12.6296604334      -11.1175705289        1.3912500000  MEMB      20              0.0000000000
      2196        20  CHL1      H27A          -13.4639474840      -11.7921467601        1.1027100000  MEMB      20              0.0000000000
      2197        20  CHL1      H27B          -13.0528926056      -10.2420818956        1.9285700000  MEMB      20              0.0000000000
      2198        20  CHL1      H27C          -12.1840531514      -10.7811604844        0.4307400000  MEMB      20              0.0000000000
      2199        21  OSM       N             -19.7076836259       -7.3439745119       21.9859180148  MEMB      21              0.0000000000
      2200        21  OSM       C15           -20.8180954695       -8.2387637818       22.3933621860  MEMB      21              0.0000000000
      2201        21  OSM       H15A          -20.5733260426       -9.0175214990       23.1004860787  MEMB      21              0.0000000000
      2202        21  OSM       H15B          -21.2739634513       -8.7844095384       21.5804322840  MEMB      21              0.0000000000
      2203        21  OSM       H15C          -21.6144975768       -7.6966481507       22.8814752527  MEMB      21              0.0000000000
      2204        21  OSM       C14           -19.4543495981       -6.2923948283       23.0543259814  MEMB      21              0.0000000000
      2205        21  OSM       H14A          -19.2953957710       -6.7717935910       24.0089519016  MEMB      21              0.0000000000
      2206        21  OSM       H14B          -20.3606569370       -5.7138569651       23.1558194199  MEMB      21              0.0000000000
      2207        21  OSM       H14C          -18.6539881621       -5.6117287914       22.8042954661  MEMB      21              0.0000000000
      2208        21  OSM       C13           -18.4003653006       -8.1698617502       21.9970774030  MEMB      21              0.0000000000
      2209        21  OSM       H13A          -18.1348168415       -8.4037522021       23.0174592860  MEMB      21              0.0000000000
      2210        21  OSM       H13B          -17.5522751110       -7.7042926549       21.5170895335  MEMB      21              0.0000000000
      2211        21  OSM       H13C          -18.6042689975       -9.1248359975       21.5357231624  MEMB      21              0.0000000000
      2212        21  OSM       C12           -19.9025225305       -6.7882723444       20.5429725751  MEMB      21              0.0000000000
      2213        21  OSM       H12A          -20.7741209467       -6.1567053540       20.4544337240  MEMB      21              0.0000000000
      2214        21  OSM       H12B          -19.8939007093       -7.6074421100       19.8392063659  MEMB      21              0.0000000000
      2215        21  OSM       C11           -18.7954683982       -5.9657306266       19.9374352808  MEMB      21              0.0000000000
      2216        21  OSM       H11A          -19.0575273401       -5.5873694153       18.9262533300  MEMB      21              0.0000000000
      2217        21  OSM       H11B          -17.8609531422       -6.5587945844       19.8411161964  MEMB      21              0.0000000000
      2218        21  OSM       P             -17.6389190611       -3.6401400713       20.2571691865  MEMB      21              0.0000000000
      2219        21  OSM       O13           -18.3916791167       -2.7405996401       19.2819049901  MEMB      21              0.0000000000
      2220        21  OSM       O14           -16.9631070147       -3.0139165066       21.4140057646  MEMB      21              0.0000000000
      2221        21  OSM       O11           -16.5466202694       -4.3731187056       19.3503067019  MEMB      21              0.0000000000
      2222        21  OSM       O12           -18.4014259143       -4.9137178487       20.7855219151  MEMB      21              0.0000000000
      2223        21  OSM       C1S           -15.7198022257       -3.7528134359       18.3812586235  MEMB      21              0.0000000000
      2224        21  OSM       H1S           -14.7042504584       -4.1025765894       18.6652327009  MEMB      21              0.0000000000
      2225        21  OSM       H1T           -15.8348352859       -2.6478793940       18.3957183526  MEMB      21              0.0000000000
      2226        21  OSM       NF            -17.2610230352       -4.0756762014       16.4556223052  MEMB      21              0.0000000000
      2227        21  OSM       HNF           -17.6506488698       -4.8093490373       15.9043285562  MEMB      21              0.0000000000
      2228        21  OSM       C2S           -15.9268805569       -4.3012176593       16.9217745211  MEMB      21              0.0000000000
      2229        21  OSM       H2S           -15.2933905272       -3.6252934617       16.3084736567  MEMB      21              0.0000000000
      2230        21  OSM       C3S           -15.6259310032       -5.7915988250       16.8435338858  MEMB      21              0.0000000000
      2231        21  OSM       H3S           -16.0199096682       -6.2477571251       17.7768188640  MEMB      21              0.0000000000
      2232        21  OSM       O3            -14.2506680646       -6.0114516006       16.9967848651  MEMB      21              0.0000000000
      2233        21  OSM       HO3           -13.9627996210       -5.1688196213       17.3555368855  MEMB      21              0.0000000000
      2234        21  OSM       C4S           -16.1083440095       -6.3851614398       15.5365649067  MEMB      21              0.0000000000
      2235        21  OSM       H4S           -15.3175176078       -6.3438202917       14.7730962280  MEMB      21              0.0000000000
      2236        21  OSM       C5S           -17.2102681965       -7.0617400381       15.2432721198  MEMB      21              0.0000000000
      2237        21  OSM       H5S           -18.0397851454       -7.0433405105       15.9654652320  MEMB      21              0.0000000000
      2238        21  OSM       C6S           -17.5456886279       -7.5899559918       13.9211564111  MEMB      21              0.0000000000
      2239        21  OSM       H6S           -18.6532495722       -7.6032612383       13.8348266429  MEMB      21              0.0000000000
      2240        21  OSM       H6T           -17.2289322109       -8.6511866101       13.8329769726  MEMB      21              0.0000000000
      2241        21  OSM       C7S           -17.0821540715       -6.7689236693       12.6847733754  MEMB      21              0.0000000000
      2242        21  OSM       H7S           -16.0323251664       -6.4065608710       12.6552198322  MEMB      21              0.0000000000
      2243        21  OSM       H7T           -17.6507496393       -5.8341931629       12.4916440805  MEMB      21              0.0000000000
      2244        21  OSM       C8S           -17.2085859976       -7.5777351554       11.3973615437  MEMB      21              0.0000000000
      2245        21  OSM       H8S           -18.1952609599       -8.0880779009       11.4159032796  MEMB      21              0.0000000000
      2246        21  OSM       H8T           -16.4373334224       -8.3755507161       11.4519589955  MEMB      21              0.0000000000
      2247        21  OSM       C9S           -17.2143979837       -6.7517976474       10.1411530669  MEMB      21              0.0000000000
      2248        21  OSM       H9S           -16.2225150120       -6.2924812378        9.9423624990  MEMB      21              0.0000000000
      2249        21  OSM       H9T           -18.0497692800       -6.0228503867       10.2126502480  MEMB      21              0.0000000000
      2250        21  OSM       C10S          -17.4145977275       -7.7584341810        8.9602377525  MEMB      21              0.0000000000
      2251        21  OSM       H10S          -18.5017730360       -7.9775915911        9.0261236130  MEMB      21              0.0000000000
      2252        21  OSM       H10T          -16.7733365782       -8.6427787465        9.1628200635  MEMB      21              0.0000000000
      2253        21  OSM       C11S          -17.1509308619       -7.1247244108        7.6248774773  MEMB      21              0.0000000000
      2254        21  OSM       H11S          -16.1560409056       -6.6344525413        7.5604709086  MEMB      21              0.0000000000
      2255        21  OSM       H11T          -17.9505059195       -6.4036226150        7.3509922352  MEMB      21              0.0000000000
      2256        21  OSM       C12S          -17.2992486673       -8.0319022383        6.3991992736  MEMB      21              0.0000000000
      2257        21  OSM       H12S          -16.8333849978       -9.0166788780        6.6171602970  MEMB      21              0.0000000000
      2258        21  OSM       H12T          -16.8779130599       -7.5455910464        5.4934954292  MEMB      21              0.0000000000
      2259        21  OSM       C13S          -18.7836098401       -8.2858058589        6.0537719167  MEMB      21              0.0000000000
      2260        21  OSM       H13S          -19.3824271474       -7.3665659908        5.8784525951  MEMB      21              0.0000000000
      2261        21  OSM       H13T          -19.2187069822       -8.8190621794        6.9259242015  MEMB      21              0.0000000000
      2262        21  OSM       C14S          -19.0686437423       -9.1543372531        4.8317474889  MEMB      21              0.0000000000
      2263        21  OSM       H14S          -20.0687885083       -9.6195620518        4.9644021600  MEMB      21              0.0000000000
      2264        21  OSM       H14T          -18.4381863799      -10.0668488887        4.7671920121  MEMB      21              0.0000000000
      2265        21  OSM       C15S          -19.2772112381       -8.5407806058        3.4183790678  MEMB      21              0.0000000000
      2266        21  OSM       H15S          -20.1911640353       -7.9147431996        3.5025723126  MEMB      21              0.0000000000
      2267        21  OSM       H15T          -19.5422576348       -9.4649246451        2.8615770953  MEMB      21              0.0000000000
      2268        21  OSM       C16S          -18.2151868061       -7.6604451992        2.8750184065  MEMB      21              0.0000000000
      2269        21  OSM       H16S          -17.2997215849       -8.2286359004        3.1459496149  MEMB      21              0.0000000000
      2270        21  OSM       H16T          -18.2151674895       -6.6355200924        3.3037958131  MEMB      21              0.0000000000
      2271        21  OSM       C17S          -18.2495746700       -7.5640087637        1.3438481931  MEMB      21              0.0000000000
      2272        21  OSM       H17S          -18.4695285298       -6.5157624050        1.0486851831  MEMB      21              0.0000000000
      2273        21  OSM       H17T          -19.1383112702       -8.1708304944        1.0677392631  MEMB      21              0.0000000000
      2274        21  OSM       C18S          -16.9615817014       -8.0332869735        0.6658492933  MEMB      21              0.0000000000
      2275        21  OSM       H18S          -17.0488910242       -7.6847050310       -0.3854308309  MEMB      21              0.0000000000
      2276        21  OSM       H18T          -16.7416285241       -9.1215435369        0.6253613369  MEMB      21              0.0000000000
      2277        21  OSM       H18U          -16.0350996791       -7.4876036604        0.9454591154  MEMB      21              0.0000000000
      2278        21  OSM       C1F           -17.8800171536       -2.8648435132       16.2537334200  MEMB      21              0.0000000000
      2279        21  OSM       OF            -17.3751687857       -1.7126765634       16.4299520637  MEMB      21              0.0000000000
      2280        21  OSM       C2F           -19.3112104091       -3.0533283727       15.8550001238  MEMB      21              0.0000000000
      2281        21  OSM       H2F           -19.5942769970       -2.2217097976       15.1748496651  MEMB      21              0.0000000000
      2282        21  OSM       H2G           -20.0506987899       -3.0667067908       16.6840354473  MEMB      21              0.0000000000
      2283        21  OSM       C3F           -19.5822827958       -4.4096524178       15.0689151170  MEMB      21              0.0000000000
      2284        21  OSM       H3F           -19.4790024563       -5.1732013774       15.8693192898  MEMB      21              0.0000000000
      2285        21  OSM       H3G           -18.7399832906       -4.5371680635       14.3557586184  MEMB      21              0.0000000000
      2286        21  OSM       C4F           -20.9765077098       -4.5842586847       14.3590754506  MEMB      21              0.0000000000
      2287        21  OSM       H4F           -21.4417465705       -3.5877533784       14.2014337671  MEMB      21              0.0000000000
      2288        21  OSM       H4G           -21.7160584317       -5.1403513670       14.9740119153  MEMB      21              0.0000000000
      2289        21  OSM       C5F           -20.8532385928       -5.2357666000       12.9851658822  MEMB      21              0.0000000000
      2290        21  OSM       H5F           -20.9516671306       -6.3331066236       13.1282665504  MEMB      21              0.0000000000
      2291        21  OSM       H5G           -19.8308634881       -5.0911787733       12.5750872909  MEMB      21              0.0000000000
      2292        21  OSM       C6F           -21.9523560475       -4.7144816780       12.0143115506  MEMB      21              0.0000000000
      2293        21  OSM       H6F           -21.8324741309       -3.6192543054       11.8713902930  MEMB      21              0.0000000000
      2294        21  OSM       H6G           -22.8329014977       -4.7264159130       12.6916736254  MEMB      21              0.0000000000
      2295        21  OSM       C7F           -22.0667033969       -5.5511343893       10.7354137691  MEMB      21              0.0000000000
      2296        21  OSM       H7F           -22.3462615185       -6.5713773497       11.0749318905  MEMB      21              0.0000000000
      2297        21  OSM       H7G           -21.0942537300       -5.4751273229       10.2035433931  MEMB      21              0.0000000000
      2298        21  OSM       C8F           -23.2646077786       -5.2057112137        9.7954326240  MEMB      21              0.0000000000
      2299        21  OSM       H8F           -24.2373863825       -5.2555416010       10.3297920796  MEMB      21              0.0000000000
      2300        21  OSM       H8G           -23.3173362561       -5.9648388068        8.9859483318  MEMB      21              0.0000000000
      2301        21  OSM       C9F           -23.0590189359       -3.8311466407        9.0763978053  MEMB      21              0.0000000000
      2302        21  OSM       H9F           -22.8271716009       -3.0624744237        9.8283226878  MEMB      21              0.0000000000
      2303        21  OSM       C10F          -22.9849582010       -3.6332554608        7.7399176095  MEMB      21              0.0000000000
      2304        21  OSM       H10F          -23.1991250126       -2.5948868098        7.4467906252  MEMB      21              0.0000000000
      2305        21  OSM       C11F          -23.1697413349       -4.6860727148        6.7079355352  MEMB      21              0.0000000000
      2306        21  OSM       H11F          -24.2561166450       -4.7996266363        6.5049206648  MEMB      21              0.0000000000
      2307        21  OSM       H11G          -22.7828034769       -5.6681264224        7.0545926067  MEMB      21              0.0000000000
      2308        21  OSM       C12F          -22.4434099941       -4.2848065397        5.3945764008  MEMB      21              0.0000000000
      2309        21  OSM       H12F          -22.8854845774       -3.3906663922        4.9052870446  MEMB      21              0.0000000000
      2310        21  OSM       H12G          -22.6624297725       -5.1225100753        4.6984417881  MEMB      21              0.0000000000
      2311        21  OSM       C13F          -20.9227076092       -4.2483242167        5.5726338866  MEMB      21              0.0000000000
      2312        21  OSM       H13F          -20.4967915524       -5.2741352213        5.5475669310  MEMB      21              0.0000000000
      2313        21  OSM       H13G          -20.6846676844       -3.8540617039        6.5836801470  MEMB      21              0.0000000000
      2314        21  OSM       C14F          -20.1819916412       -3.4179863367        4.5872058355  MEMB      21              0.0000000000
      2315        21  OSM       H14F          -20.6664950745       -2.4272385537        4.4530536628  MEMB      21              0.0000000000
      2316        21  OSM       H14G          -20.3161128633       -3.8559750075        3.5750300715  MEMB      21              0.0000000000
      2317        21  OSM       C15F          -18.6665064859       -3.3818310770        4.8576096451  MEMB      21              0.0000000000
      2318        21  OSM       H15F          -18.1570262507       -4.3687366740        4.8298925882  MEMB      21              0.0000000000
      2319        21  OSM       H15G          -18.6960529430       -3.1489414966        5.9435246541  MEMB      21              0.0000000000
      2320        21  OSM       C16F          -17.8889560404       -2.2467686299        4.1662998720  MEMB      21              0.0000000000
      2321        21  OSM       H16F          -16.9025295466       -2.1259825089        4.6629829960  MEMB      21              0.0000000000
      2322        21  OSM       H16G          -18.4403359593       -1.2846304339        4.2340578631  MEMB      21              0.0000000000
      2323        21  OSM       C17F          -17.4549264931       -2.6040061820        2.6713832036  MEMB      21              0.0000000000
      2324        21  OSM       H17F          -16.9071463414       -1.7218973346        2.2762354233  MEMB      21              0.0000000000
      2325        21  OSM       H17G          -18.4005388941       -2.7413315864        2.1045677255  MEMB      21              0.0000000000
      2326        21  OSM       C18F          -16.4882728236       -3.7582547155        2.4948482001  MEMB      21              0.0000000000
      2327        21  OSM       H18F          -15.6015239806       -3.7469849587        3.1640792226  MEMB      21              0.0000000000
      2328        21  OSM       H18G          -16.2848904248       -3.7538423293        1.4026313543  MEMB      21              0.0000000000
      2329        21  OSM       H18H          -17.0114099820       -4.7333413084        2.5941171106  MEMB      21              0.0000000000
      2330        22  POPC      N             -16.0909904182        7.7851605612       19.3898369605  MEMB      22              0.0000000000
      2331        22  POPC      C12           -16.9976759176        7.8848939027       18.1306073469  MEMB      22              0.0000000000
      2332        22  POPC      H12A          -16.4185178501        7.8614159559       17.2193310678  MEMB      22              0.0000000000
      2333        22  POPC      H12B          -17.5293399451        8.8242057180       18.1683752553  MEMB      22              0.0000000000
      2334        22  POPC      C13           -15.6651984142        6.3885724758       19.5943266001  MEMB      22              0.0000000000
      2335        22  POPC      H13A          -15.3456922274        6.1540460911       20.5989723509  MEMB      22              0.0000000000
      2336        22  POPC      H13B          -16.5557226710        5.8173252615       19.3774324005  MEMB      22              0.0000000000
      2337        22  POPC      H13C          -14.9526243619        6.1621853607       18.8149761535  MEMB      22              0.0000000000
      2338        22  POPC      C14           -14.9225964839        8.7110257130       19.1957094634  MEMB      22              0.0000000000
      2339        22  POPC      H14A          -15.2121003312        9.7093982077       18.9027249621  MEMB      22              0.0000000000
      2340        22  POPC      H14B          -14.1830804336        8.6942676057       19.9826242503  MEMB      22              0.0000000000
      2341        22  POPC      H14C          -14.4917732264        8.3758992915       18.2637858551  MEMB      22              0.0000000000
      2342        22  POPC      C15           -16.7149686531        8.3231456137       20.5564179731  MEMB      22              0.0000000000
      2343        22  POPC      H15A          -17.6061070995        7.7726880689       20.8196076920  MEMB      22              0.0000000000
      2344        22  POPC      H15B          -17.0129444505        9.3578307494       20.4725306022  MEMB      22              0.0000000000
      2345        22  POPC      H15C          -16.1064539519        8.3606810261       21.4478779141  MEMB      22              0.0000000000
      2346        22  POPC      C11           -18.0137643706        6.8358223620       17.8290405245  MEMB      22              0.0000000000
      2347        22  POPC      H11A          -17.5183480636        5.9174071834       17.4477306084  MEMB      22              0.0000000000
      2348        22  POPC      H11B          -18.6360271522        7.1953822737       16.9817939556  MEMB      22              0.0000000000
      2349        22  POPC      P             -20.0550043417        5.4470252914       18.8696316879  MEMB      22              0.0000000000
      2350        22  POPC      O13           -21.0674418820        6.0535587498       17.9706923516  MEMB      22              0.0000000000
      2351        22  POPC      O14           -20.5086759527        5.0295341175       20.1971565748  MEMB      22              0.0000000000
      2352        22  POPC      O12           -18.8196556139        6.5074296479       19.0202803843  MEMB      22              0.0000000000
      2353        22  POPC      O11           -19.3818380541        4.1381493667       18.2463001320  MEMB      22              0.0000000000
      2354        22  POPC      C1            -18.2070548549        3.6082047419       18.7220927774  MEMB      22              0.0000000000
      2355        22  POPC      HA            -18.5253333133        2.9804770581       19.5817309017  MEMB      22              0.0000000000
      2356        22  POPC      HB            -17.5779328425        4.4152066799       19.1548447728  MEMB      22              0.0000000000
      2357        22  POPC      C2            -17.4656179480        2.7927542985       17.6288534483  MEMB      22              0.0000000000
      2358        22  POPC      HS            -16.6538312864        2.2324420252       18.1401005333  MEMB      22              0.0000000000
      2359        22  POPC      O21           -16.9233680303        3.6176390489       16.6102011504  MEMB      22              0.0000000000
      2360        22  POPC      C21           -15.7864876726        3.3715597816       15.9466730362  MEMB      22              0.0000000000
      2361        22  POPC      O22           -14.9081911028        2.5986610451       16.3341296386  MEMB      22              0.0000000000
      2362        22  POPC      C22           -15.8307074220        4.0624006012       14.5953424116  MEMB      22              0.0000000000
      2363        22  POPC      H2R           -15.8126517901        5.1483508603       14.8292376546  MEMB      22              0.0000000000
      2364        22  POPC      H2S           -16.7618999494        3.7796028288       14.0594067314  MEMB      22              0.0000000000
      2365        22  POPC      C3            -18.4089050686        1.7286626908       16.9626545199  MEMB      22              0.0000000000
      2366        22  POPC      HX            -18.8344068229        0.9352962098       17.6136834484  MEMB      22              0.0000000000
      2367        22  POPC      HY            -17.7526151823        1.1277726098       16.2974212548  MEMB      22              0.0000000000
      2368        22  POPC      O31           -19.4108042019        2.5057597665       16.2672783906  MEMB      22              0.0000000000
      2369        22  POPC      C31           -19.8107419684        1.8921045460       15.1873041040  MEMB      22              0.0000000000
      2370        22  POPC      O32           -19.5045885482        0.7779029474       14.7786974454  MEMB      22              0.0000000000
      2371        22  POPC      C32           -20.4029041511        3.0020834873       14.2745159704  MEMB      22              0.0000000000
      2372        22  POPC      H2X           -19.6394850182        3.7868169036       14.0855552337  MEMB      22              0.0000000000
      2373        22  POPC      H2Y           -21.2478555652        3.5745576375       14.7134363941  MEMB      22              0.0000000000
      2374        22  POPC      C23           -14.6457865231        3.6022601189       13.7605133919  MEMB      22              0.0000000000
      2375        22  POPC      H3R           -14.6100207409        2.5031858300       13.6021538215  MEMB      22              0.0000000000
      2376        22  POPC      H3S           -13.7475824196        4.0083376795       14.2730089680  MEMB      22              0.0000000000
      2377        22  POPC      C24           -14.6462929625        4.2408374204       12.3298726463  MEMB      22              0.0000000000
      2378        22  POPC      H4R           -13.5601860394        4.2547921241       12.0964243908  MEMB      22              0.0000000000
      2379        22  POPC      H4S           -14.9699737260        5.2875429441       12.5141533265  MEMB      22              0.0000000000
      2380        22  POPC      C25           -15.4635402350        3.4456659972       11.2741150547  MEMB      22              0.0000000000
      2381        22  POPC      H5R           -16.5636220195        3.4637248069       11.4284369446  MEMB      22              0.0000000000
      2382        22  POPC      H5S           -15.3049766539        2.3461630065       11.2905986054  MEMB      22              0.0000000000
      2383        22  POPC      C26           -15.2313607170        4.1102199336        9.8682612418  MEMB      22              0.0000000000
      2384        22  POPC      H6R           -15.9161246163        3.7104128642        9.0900748615  MEMB      22              0.0000000000
      2385        22  POPC      H6S           -14.1315890775        4.0999478240        9.7110418925  MEMB      22              0.0000000000
      2386        22  POPC      C27           -15.5752910005        5.6093908202        9.8401636307  MEMB      22              0.0000000000
      2387        22  POPC      H7R           -14.9664642150        6.1511764265       10.5952265566  MEMB      22              0.0000000000
      2388        22  POPC      H7S           -16.6333173708        5.7961263092       10.1230614248  MEMB      22              0.0000000000
      2389        22  POPC      C28           -15.3817760841        6.3518131851        8.4411112877  MEMB      22              0.0000000000
      2390        22  POPC      H8R           -15.9365453131        7.3139935484        8.4687074341  MEMB      22              0.0000000000
      2391        22  POPC      H8S           -15.8586853929        5.6326910228        7.7412965782  MEMB      22              0.0000000000
      2392        22  POPC      C29           -13.9497853698        6.5175900349        7.9400811002  MEMB      22              0.0000000000
      2393        22  POPC      H91           -13.3355262019        7.2106367872        8.5336895679  MEMB      22              0.0000000000
      2394        22  POPC      C210          -13.3864090163        6.0085985617        6.8487725042  MEMB      22              0.0000000000
      2395        22  POPC      H101          -12.3290180353        6.2357869465        6.6479984067  MEMB      22              0.0000000000
      2396        22  POPC      C211          -14.0369811958        5.1614625237        5.8819409664  MEMB      22              0.0000000000
      2397        22  POPC      H11R          -14.8966724844        4.5274792348        6.1874188508  MEMB      22              0.0000000000
      2398        22  POPC      H11S          -13.2946942561        4.4594917489        5.4454000593  MEMB      22              0.0000000000
      2399        22  POPC      C212          -14.6892571484        6.0059425045        4.7795929218  MEMB      22              0.0000000000
      2400        22  POPC      H12R          -15.1388764731        6.9316520946        5.1981922057  MEMB      22              0.0000000000
      2401        22  POPC      H12S          -15.6142676019        5.5016161627        4.4269859102  MEMB      22              0.0000000000
      2402        22  POPC      C213          -13.7632557362        6.2350574735        3.6475034430  MEMB      22              0.0000000000
      2403        22  POPC      H13R          -13.3853371332        5.2324773106        3.3536810471  MEMB      22              0.0000000000
      2404        22  POPC      H13S          -12.8245906713        6.7670804196        3.9124191263  MEMB      22              0.0000000000
      2405        22  POPC      C214          -14.5643881067        6.8428097600        2.3741808984  MEMB      22              0.0000000000
      2406        22  POPC      H14R          -14.8148608827        7.9095506160        2.5576136213  MEMB      22              0.0000000000
      2407        22  POPC      H14S          -15.5143295706        6.2668502226        2.3884121047  MEMB      22              0.0000000000
      2408        22  POPC      C215          -13.7389624565        6.7022676296        1.0756744121  MEMB      22              0.0000000000
      2409        22  POPC      H15R          -12.6807429695        6.8453762693        1.3822892277  MEMB      22              0.0000000000
      2410        22  POPC      H15S          -13.9027764963        7.4706089481        0.2900929862  MEMB      22              0.0000000000
      2411        22  POPC      C216          -13.7367185600        5.3714668663        0.2970340896  MEMB      22              0.0000000000
      2412        22  POPC      H16R          -14.7750709049        5.0029771618        0.1543431166  MEMB      22              0.0000000000
      2413        22  POPC      H16S          -13.1405686918        4.5560196825        0.7596057206  MEMB      22              0.0000000000
      2414        22  POPC      C217          -13.0119930512        5.4522861952       -1.0548627396  MEMB      22              0.0000000000
      2415        22  POPC      H17R          -13.6383878118        5.9736233345       -1.8099511878  MEMB      22              0.0000000000
      2416        22  POPC      H17S          -12.8253705812        4.4255172916       -1.4359661032  MEMB      22              0.0000000000
      2417        22  POPC      C218          -11.6678964280        6.1662231114       -0.9711753214  MEMB      22              0.0000000000
      2418        22  POPC      H18R          -11.1486397741        5.9336105578       -0.0169305498  MEMB      22              0.0000000000
      2419        22  POPC      H18S          -11.7695391919        7.2305242637       -1.2732564437  MEMB      22              0.0000000000
      2420        22  POPC      H18T          -11.0603748366        5.7310872157       -1.7933051468  MEMB      22              0.0000000000
      2421        22  POPC      C33           -20.9952101725        2.4191943318       13.0162091690  MEMB      22              0.0000000000
      2422        22  POPC      H3X           -21.4714526032        1.4635294618       13.3231604642  MEMB      22              0.0000000000
      2423        22  POPC      H3Y           -20.2502464235        2.1298050059       12.2444553618  MEMB      22              0.0000000000
      2424        22  POPC      C34           -21.9801280857        3.3274785452       12.4106603898  MEMB      22              0.0000000000
      2425        22  POPC      H4X           -22.7275271979        3.5136996265       13.2113084243  MEMB      22              0.0000000000
      2426        22  POPC      H4Y           -22.5711162023        2.6785544134       11.7295203687  MEMB      22              0.0000000000
      2427        22  POPC      C35           -21.4144477463        4.5704880927       11.7865191749  MEMB      22              0.0000000000
      2428        22  POPC      H5X           -20.6266431814        4.9738433677       12.4580767477  MEMB      22              0.0000000000
      2429        22  POPC      H5Y           -22.1794784559        5.3612460050       11.6324065344  MEMB      22              0.0000000000
      2430        22  POPC      C36           -20.7118095439        4.3748407362       10.3226627857  MEMB      22              0.0000000000
      2431        22  POPC      H6X           -21.5118178533        4.4419709879        9.5546768495  MEMB      22              0.0000000000
      2432        22  POPC      H6Y           -20.2871526623        3.3533210299       10.2202660642  MEMB      22              0.0000000000
      2433        22  POPC      C37           -19.5463088582        5.3110410256       10.1200435895  MEMB      22              0.0000000000
      2434        22  POPC      H7X           -18.8968261370        4.9037375648        9.3159313710  MEMB      22              0.0000000000
      2435        22  POPC      H7Y           -18.9513005302        5.3286333878       11.0581142857  MEMB      22              0.0000000000
      2436        22  POPC      C38           -19.9197955596        6.6730533080        9.6551620948  MEMB      22              0.0000000000
      2437        22  POPC      H8X           -18.9502386624        7.1250089345        9.3551348502  MEMB      22              0.0000000000
      2438        22  POPC      H8Y           -20.4169324764        7.3265187544       10.4035998832  MEMB      22              0.0000000000
      2439        22  POPC      C39           -20.7839191926        6.8048528941        8.4234353628  MEMB      22              0.0000000000
      2440        22  POPC      H9X           -20.9672640272        7.8882961819        8.2595565218  MEMB      22              0.0000000000
      2441        22  POPC      H9Y           -21.8206245826        6.4930530041        8.6731229924  MEMB      22              0.0000000000
      2442        22  POPC      C310          -20.2698949819        6.1181458934        7.1325685280  MEMB      22              0.0000000000
      2443        22  POPC      H10X          -21.0559792445        6.0630906019        6.3493945710  MEMB      22              0.0000000000
      2444        22  POPC      H10Y          -19.9828127052        5.0846043834        7.4218725617  MEMB      22              0.0000000000
      2445        22  POPC      C311          -19.0422662018        6.7836193230        6.6431046303  MEMB      22              0.0000000000
      2446        22  POPC      H11X          -18.2449141579        6.9910590093        7.3884360669  MEMB      22              0.0000000000
      2447        22  POPC      H11Y          -19.3975966341        7.8265303026        6.5002837660  MEMB      22              0.0000000000
      2448        22  POPC      C312          -18.3650006949        6.1447730047        5.4586429622  MEMB      22              0.0000000000
      2449        22  POPC      H12X          -17.8548049658        5.2234082345        5.8123495087  MEMB      22              0.0000000000
      2450        22  POPC      H12Y          -17.5609815908        6.8788167458        5.2371615486  MEMB      22              0.0000000000
      2451        22  POPC      C313          -19.2387425985        5.7743821833        4.2774120631  MEMB      22              0.0000000000
      2452        22  POPC      H13X          -19.7567130839        6.6162623472        3.7701985905  MEMB      22              0.0000000000
      2453        22  POPC      H13Y          -19.9363590316        4.9710093069        4.5971689506  MEMB      22              0.0000000000
      2454        22  POPC      C314          -18.3600643095        5.0704550863        3.2164153473  MEMB      22              0.0000000000
      2455        22  POPC      H14X          -18.1851481554        4.0070855520        3.4865460897  MEMB      22              0.0000000000
      2456        22  POPC      H14Y          -17.3851400980        5.6028908622        3.2352820830  MEMB      22              0.0000000000
      2457        22  POPC      C315          -18.7680734798        5.2938170798        1.7022765873  MEMB      22              0.0000000000
      2458        22  POPC      H15X          -18.6728793217        6.3764177098        1.4715505026  MEMB      22              0.0000000000
      2459        22  POPC      H15Y          -19.8642925433        5.2147031421        1.5398997776  MEMB      22              0.0000000000
      2460        22  POPC      C316          -17.9641254824        4.5170530590        0.6119156336  MEMB      22              0.0000000000
      2461        22  POPC      H16X          -17.7169931864        3.4994109434        0.9829287470  MEMB      22              0.0000000000
      2462        22  POPC      H16Y          -17.0711503250        5.1235480078        0.3490839709  MEMB      22              0.0000000000
      2463        22  POPC      H16Z          -18.4611134137        4.3814154909       -0.3724258077  MEMB      22              0.0000000000
      2464        23  SAPS      N               9.1710352537      -19.6195320856       20.0743979144  MEMB      23              0.0000000000
      2465        23  SAPS      HN1             9.6712775138      -20.4849666882       20.3614184324  MEMB      23              0.0000000000
      2466        23  SAPS      HN2             9.0271823193      -19.5814814221       19.0450979253  MEMB      23              0.0000000000
      2467        23  SAPS      HN3             9.6007881478      -18.7251574345       20.3858566660  MEMB      23              0.0000000000
      2468        23  SAPS      C12             7.8200351845      -19.7004123780       20.7422668776  MEMB      23              0.0000000000
      2469        23  SAPS      H12A            7.3975449536      -20.6186820146       20.3618947187  MEMB      23              0.0000000000
      2470        23  SAPS      C13             7.9989533699      -19.6764693012       22.2802812224  MEMB      23              0.0000000000
      2471        23  SAPS      O13A            9.0812367538      -19.3542493125       22.7957684176  MEMB      23              0.0000000000
      2472        23  SAPS      O13B            7.0578298986      -20.0753824762       22.9905581612  MEMB      23              0.0000000000
      2473        23  SAPS      C11             6.8461730903      -18.5798396679       20.2113418079  MEMB      23              0.0000000000
      2474        23  SAPS      H11A            7.2113276561      -17.6441529260       20.6861823456  MEMB      23              0.0000000000
      2475        23  SAPS      H11B            5.9133506149      -18.9679426723       20.6734449246  MEMB      23              0.0000000000
      2476        23  SAPS      P               6.2010167541      -17.1149127487       18.2048655411  MEMB      23              0.0000000000
      2477        23  SAPS      O13             5.3570521953      -17.4620796268       17.0252738284  MEMB      23              0.0000000000
      2478        23  SAPS      O14             5.5711998036      -16.3228522641       19.3269111132  MEMB      23              0.0000000000
      2479        23  SAPS      O12             6.8930355305      -18.4954101812       18.7533994484  MEMB      23              0.0000000000
      2480        23  SAPS      O11             7.4371713953      -16.2635188422       17.5949356759  MEMB      23              0.0000000000
      2481        23  SAPS      C1              8.7373075409      -16.7506674489       17.6200155104  MEMB      23              0.0000000000
      2482        23  SAPS      HA              9.1936802019      -16.7212948742       18.6325283578  MEMB      23              0.0000000000
      2483        23  SAPS      HB              8.6444149753      -17.7799368386       17.2122207900  MEMB      23              0.0000000000
      2484        23  SAPS      C2              9.6823754563      -15.9623974755       16.6402371001  MEMB      23              0.0000000000
      2485        23  SAPS      HS              9.9370540737      -14.9602574633       17.0466548533  MEMB      23              0.0000000000
      2486        23  SAPS      O21             9.1437330939      -15.6609565235       15.3792472938  MEMB      23              0.0000000000
      2487        23  SAPS      C21             8.1287885325      -14.7534892794       15.2393881418  MEMB      23              0.0000000000
      2488        23  SAPS      O22             7.9324186166      -13.8072676484       15.9790254258  MEMB      23              0.0000000000
      2489        23  SAPS      C22             7.3301423758      -15.0000304440       13.9569757710  MEMB      23              0.0000000000
      2490        23  SAPS      H2R             6.2760842317      -14.8250341869       14.2613746216  MEMB      23              0.0000000000
      2491        23  SAPS      H2S             7.4375194756      -14.1637533037       13.2334900079  MEMB      23              0.0000000000
      2492        23  SAPS      C3             10.9455269006      -16.7899204462       16.4819323728  MEMB      23              0.0000000000
      2493        23  SAPS      HX             11.2960497176      -17.1197232161       17.4832737831  MEMB      23              0.0000000000
      2494        23  SAPS      HY             11.6939487278      -16.1526974137       15.9641167508  MEMB      23              0.0000000000
      2495        23  SAPS      O31            10.6710616157      -17.8980342783       15.5676933809  MEMB      23              0.0000000000
      2496        23  SAPS      C31            10.6610273129      -19.1815973956       16.0073473072  MEMB      23              0.0000000000
      2497        23  SAPS      O32            11.2635402853      -19.5616343313       16.9936546013  MEMB      23              0.0000000000
      2498        23  SAPS      C32             9.7721451556      -19.9611451935       15.0682065882  MEMB      23              0.0000000000
      2499        23  SAPS      H2X            10.1135938379      -21.0155764260       15.1450752994  MEMB      23              0.0000000000
      2500        23  SAPS      H2Y             9.8930141050      -19.6878532256       13.9981490992  MEMB      23              0.0000000000
      2501        23  SAPS      C23             7.6301948391      -16.3532983838       13.2110075404  MEMB      23              0.0000000000
      2502        23  SAPS      H3R             7.8053211747      -17.1459959372       13.9694812317  MEMB      23              0.0000000000
      2503        23  SAPS      H3S             8.5181439924      -16.0617792914       12.6102713616  MEMB      23              0.0000000000
      2504        23  SAPS      C24             6.4872085358      -16.8086721830       12.3296985150  MEMB      23              0.0000000000
      2505        23  SAPS      H4R             5.9460639970      -15.9109682000       11.9614439711  MEMB      23              0.0000000000
      2506        23  SAPS      H4S             5.8097922488      -17.4698954604       12.9112585796  MEMB      23              0.0000000000
      2507        23  SAPS      C25             7.0894747827      -17.6093330194       11.1903481845  MEMB      23              0.0000000000
      2508        23  SAPS      H5R             7.5715927271      -18.5785690683       11.3856514090  MEMB      23              0.0000000000
      2509        23  SAPS      C26             7.0285477471      -17.3507154552        9.8847501325  MEMB      23              0.0000000000
      2510        23  SAPS      H6R             7.4726339495      -18.1136158756        9.2284192336  MEMB      23              0.0000000000
      2511        23  SAPS      C27             6.3987237168      -16.1178070490        9.2903341590  MEMB      23              0.0000000000
      2512        23  SAPS      H7R             5.7339798513      -15.6543843794       10.0503834082  MEMB      23              0.0000000000
      2513        23  SAPS      H7S             5.6403428836      -16.2998652904        8.4991101861  MEMB      23              0.0000000000
      2514        23  SAPS      C28             7.5311764624      -15.2461996208        8.8188853667  MEMB      23              0.0000000000
      2515        23  SAPS      H8R             8.2854324473      -15.0773273620        9.6015602977  MEMB      23              0.0000000000
      2516        23  SAPS      C29             7.7890226166      -14.7648775904        7.5484049904  MEMB      23              0.0000000000
      2517        23  SAPS      H9R             8.6724093388      -14.1438613506        7.3387233341  MEMB      23              0.0000000000
      2518        23  SAPS      C210            6.9395332630      -14.9708975133        6.3395408589  MEMB      23              0.0000000000
      2519        23  SAPS      H10R            6.1823414015      -15.7502820079        6.5709306630  MEMB      23              0.0000000000
      2520        23  SAPS      H10S            7.5774478847      -15.2726272885        5.4814350863  MEMB      23              0.0000000000
      2521        23  SAPS      C211            6.0994265407      -13.7486948525        5.9468944165  MEMB      23              0.0000000000
      2522        23  SAPS      H11R            5.4387592666      -13.2885968428        6.6964468170  MEMB      23              0.0000000000
      2523        23  SAPS      C212            6.1662408080      -13.0183258551        4.7828396338  MEMB      23              0.0000000000
      2524        23  SAPS      H12R            5.5257912009      -12.1259932545        4.8425620248  MEMB      23              0.0000000000
      2525        23  SAPS      C213            6.9942818782      -13.0231664148        3.5116531011  MEMB      23              0.0000000000
      2526        23  SAPS      H13R            6.2726359400      -12.9918322700        2.6675177043  MEMB      23              0.0000000000
      2527        23  SAPS      H13S            7.6856292295      -13.8925012322        3.5364858239  MEMB      23              0.0000000000
      2528        23  SAPS      C214            7.7975252491      -11.7066791146        3.3544620942  MEMB      23              0.0000000000
      2529        23  SAPS      H14R            7.2910493731      -10.7424590317        3.5086099554  MEMB      23              0.0000000000
      2530        23  SAPS      C215            9.0902184669      -11.5822355079        2.9538047498  MEMB      23              0.0000000000
      2531        23  SAPS      H15R            9.5200422622      -10.5738860064        3.0459063012  MEMB      23              0.0000000000
      2532        23  SAPS      C216           10.1012310749      -12.6267149610        2.5510393770  MEMB      23              0.0000000000
      2533        23  SAPS      H16R            9.8798392815      -13.4499543625        3.2634880020  MEMB      23              0.0000000000
      2534        23  SAPS      H16S           11.1171113894      -12.2787886848        2.8360933040  MEMB      23              0.0000000000
      2535        23  SAPS      C217           10.2060947267      -12.9287133534        1.0493752090  MEMB      23              0.0000000000
      2536        23  SAPS      H17R            9.2209224683      -13.2433815570        0.6434920068  MEMB      23              0.0000000000
      2537        23  SAPS      H17S           10.9129463456      -13.7858231837        1.0427116230  MEMB      23              0.0000000000
      2538        23  SAPS      C218           10.8822605278      -11.8246910646        0.2423221059  MEMB      23              0.0000000000
      2539        23  SAPS      H18R           11.7367617995      -11.3525378493        0.7726238031  MEMB      23              0.0000000000
      2540        23  SAPS      H18S           10.2237990551      -10.9400886866        0.1073111849  MEMB      23              0.0000000000
      2541        23  SAPS      C219           11.4152341917      -12.3875607043       -1.0986005138  MEMB      23              0.0000000000
      2542        23  SAPS      H19R           10.6265731315      -12.6536267978       -1.8344967485  MEMB      23              0.0000000000
      2543        23  SAPS      H19S           11.6701550125      -13.4376194251       -0.8403115011  MEMB      23              0.0000000000
      2544        23  SAPS      C220           12.5018785636      -11.4803578562       -1.7509030279  MEMB      23              0.0000000000
      2545        23  SAPS      H20R           13.3406512693      -11.2909832125       -1.0473995250  MEMB      23              0.0000000000
      2546        23  SAPS      H20S           11.9958202082      -10.5230527594       -1.9994877743  MEMB      23              0.0000000000
      2547        23  SAPS      H20T           12.8849911304      -11.9179378489       -2.6975137374  MEMB      23              0.0000000000
      2548        23  SAPS      C33             8.4092517801      -19.8937844028       15.6559926376  MEMB      23              0.0000000000
      2549        23  SAPS      H3X             8.0514476710      -18.8501676441       15.5249924268  MEMB      23              0.0000000000
      2550        23  SAPS      H3Y             8.3842236828      -19.9476678968       16.7654028327  MEMB      23              0.0000000000
      2551        23  SAPS      C34             7.3402288274      -20.7928333401       15.0617568896  MEMB      23              0.0000000000
      2552        23  SAPS      H4X             6.3959743650      -20.7953261342       15.6471612349  MEMB      23              0.0000000000
      2553        23  SAPS      H4Y             7.7379276834      -21.8125213252       15.2525252386  MEMB      23              0.0000000000
      2554        23  SAPS      C35             7.1612483654      -20.5353400417       13.5635616708  MEMB      23              0.0000000000
      2555        23  SAPS      H5X             8.0940684278      -20.4124456609       12.9727446093  MEMB      23              0.0000000000
      2556        23  SAPS      H5Y             6.6956671035      -19.5266899878       13.5769787880  MEMB      23              0.0000000000
      2557        23  SAPS      C36             6.2980142394      -21.6684377210       13.0284848660  MEMB      23              0.0000000000
      2558        23  SAPS      H6X             5.4972999735      -21.7522079381       13.7940955696  MEMB      23              0.0000000000
      2559        23  SAPS      H6Y             6.7019845267      -22.6960422032       12.9053671064  MEMB      23              0.0000000000
      2560        23  SAPS      C37             5.4196208361      -21.3708741456       11.7475681254  MEMB      23              0.0000000000
      2561        23  SAPS      H7X             4.9563118249      -20.3820005372       11.9520063789  MEMB      23              0.0000000000
      2562        23  SAPS      H7Y             4.5862257351      -22.1000615496       11.6577931637  MEMB      23              0.0000000000
      2563        23  SAPS      C38             6.1888261981      -21.3892741383       10.4154573010  MEMB      23              0.0000000000
      2564        23  SAPS      H8X             6.5641575876      -22.3980378023       10.1400610890  MEMB      23              0.0000000000
      2565        23  SAPS      H8Y             7.1321610259      -20.8146619000       10.5348767407  MEMB      23              0.0000000000
      2566        23  SAPS      C39             5.2999858296      -20.7443215181        9.3369959174  MEMB      23              0.0000000000
      2567        23  SAPS      H9X             4.8754334272      -19.7743803227        9.6735826223  MEMB      23              0.0000000000
      2568        23  SAPS      H9Y             4.4281109101      -21.3909687254        9.1003478242  MEMB      23              0.0000000000
      2569        23  SAPS      C310            5.9886002575      -20.6633333765        7.9769632726  MEMB      23              0.0000000000
      2570        23  SAPS      H10X            6.4654522047      -21.6540772471        7.8177151375  MEMB      23              0.0000000000
      2571        23  SAPS      H10Y            6.6722888189      -19.7878596091        7.9560675623  MEMB      23              0.0000000000
      2572        23  SAPS      C311            5.0545222263      -20.1911683819        6.8528484398  MEMB      23              0.0000000000
      2573        23  SAPS      H11X            4.0447264890      -20.6369057936        6.9791514071  MEMB      23              0.0000000000
      2574        23  SAPS      H11Y            5.5590298066      -20.5078808314        5.9150394882  MEMB      23              0.0000000000
      2575        23  SAPS      C312            4.9872678603      -18.6514402712        6.9308791717  MEMB      23              0.0000000000
      2576        23  SAPS      H12X            6.0407360186      -18.3514795244        6.7450044612  MEMB      23              0.0000000000
      2577        23  SAPS      H12Y            4.7948349178      -18.3580358657        7.9850154744  MEMB      23              0.0000000000
      2578        23  SAPS      C313            3.9553841984      -17.9987135155        6.0002192548  MEMB      23              0.0000000000
      2579        23  SAPS      H13X            3.6690582077      -16.9308875772        6.1101566073  MEMB      23              0.0000000000
      2580        23  SAPS      H13Y            2.9994110221      -18.5467774065        6.1418599418  MEMB      23              0.0000000000
      2581        23  SAPS      C314            4.3260846369      -18.1713149621        4.5054238978  MEMB      23              0.0000000000
      2582        23  SAPS      H14X            3.4028608958      -17.9213461514        3.9401862982  MEMB      23              0.0000000000
      2583        23  SAPS      H14Y            4.6806033016      -19.1853474743        4.2219180929  MEMB      23              0.0000000000
      2584        23  SAPS      C315            5.5414794664      -17.3073851860        4.1446685341  MEMB      23              0.0000000000
      2585        23  SAPS      H15X            6.3452770024      -17.6532590133        4.8292140348  MEMB      23              0.0000000000
      2586        23  SAPS      H15Y            5.3149192414      -16.2202463199        4.1781444684  MEMB      23              0.0000000000
      2587        23  SAPS      C316            5.8926270004      -17.5330701705        2.6577360972  MEMB      23              0.0000000000
      2588        23  SAPS      H16X            6.0825551005      -18.6212278818        2.5387360817  MEMB      23              0.0000000000
      2589        23  SAPS      H16Y            6.7620742543      -16.9136571556        2.3499865973  MEMB      23              0.0000000000
      2590        23  SAPS      C317            4.7473704963      -17.1634577063        1.6184143466  MEMB      23              0.0000000000
      2591        23  SAPS      H17X            4.0186857075      -18.0000608397        1.5598081184  MEMB      23              0.0000000000
      2592        23  SAPS      H17Y            5.1872772658      -17.1126792200        0.5994812703  MEMB      23              0.0000000000
      2593        23  SAPS      C318            4.0293796092      -15.7620514763        1.7942332623  MEMB      23              0.0000000000
      2594        23  SAPS      H18X            3.2330600326      -15.8409126796        2.5649332378  MEMB      23              0.0000000000
      2595        23  SAPS      H18Y            3.4605478327      -15.5509040385        0.8635516927  MEMB      23              0.0000000000
      2596        23  SAPS      H18Z            4.6984805146      -14.9697876059        2.1929098366  MEMB      23              0.0000000000
      2597        24  OSM       N             -13.8397031508       15.9781379547       21.8406363812  MEMB      24              0.0000000000
      2598        24  OSM       C15           -12.9535188707       16.6158013334       20.7759493177  MEMB      24              0.0000000000
      2599        24  OSM       H15A          -12.0561229963       16.9713673978       21.2603599238  MEMB      24              0.0000000000
      2600        24  OSM       H15B          -13.5635444800       17.4163140641       20.3842246058  MEMB      24              0.0000000000
      2601        24  OSM       H15C          -12.6387530437       15.8551839792       20.0768186353  MEMB      24              0.0000000000
      2602        24  OSM       C14           -13.2151852952       14.8156097917       22.4892427494  MEMB      24              0.0000000000
      2603        24  OSM       H14A          -12.1758751383       15.1084534776       22.5110861687  MEMB      24              0.0000000000
      2604        24  OSM       H14B          -13.2728705296       13.9040680514       21.9129059054  MEMB      24              0.0000000000
      2605        24  OSM       H14C          -13.7211885575       14.7304452393       23.4395625456  MEMB      24              0.0000000000
      2606        24  OSM       C13           -14.2252082645       17.0048557360       22.9025893074  MEMB      24              0.0000000000
      2607        24  OSM       H13A          -14.4583568809       17.9189788510       22.3768319272  MEMB      24              0.0000000000
      2608        24  OSM       H13B          -13.3459021514       17.2026145307       23.4976624996  MEMB      24              0.0000000000
      2609        24  OSM       H13C          -15.0326304549       16.7843421728       23.5851165123  MEMB      24              0.0000000000
      2610        24  OSM       C12           -15.0943991702       15.4399695054       21.1730203219  MEMB      24              0.0000000000
      2611        24  OSM       H12A          -15.6877070652       16.3020050405       20.9060365266  MEMB      24              0.0000000000
      2612        24  OSM       H12B          -15.6976602130       14.9734322217       21.9377550149  MEMB      24              0.0000000000
      2613        24  OSM       C11           -14.9128592425       14.5581044464       19.9069483977  MEMB      24              0.0000000000
      2614        24  OSM       H11A          -14.5731901129       15.0789234924       18.9862457926  MEMB      24              0.0000000000
      2615        24  OSM       H11B          -15.9010959274       14.2256137993       19.5233350337  MEMB      24              0.0000000000
      2616        24  OSM       P             -14.6739779138       12.0645878910       20.4652498751  MEMB      24              0.0000000000
      2617        24  OSM       O13           -13.5428035403       11.1859983863       20.8577551491  MEMB      24              0.0000000000
      2618        24  OSM       O14           -15.7355950968       12.3969305499       21.4397790874  MEMB      24              0.0000000000
      2619        24  OSM       O11           -15.2374097326       11.4675911723       19.1708132581  MEMB      24              0.0000000000
      2620        24  OSM       O12           -14.0100737228       13.4120486315       19.9780161550  MEMB      24              0.0000000000
      2621        24  OSM       C1S           -14.5074453300       11.1412058341       17.9949795938  MEMB      24              0.0000000000
      2622        24  OSM       H1S           -14.3987812086       10.0357385639       17.9736411699  MEMB      24              0.0000000000
      2623        24  OSM       H1T           -13.4517187979       11.4862362084       17.9682101359  MEMB      24              0.0000000000
      2624        24  OSM       NF            -14.9625730811       13.2993276637       16.6151000984  MEMB      24              0.0000000000
      2625        24  OSM       HNF           -15.7728145324       13.8035546046       16.3265292793  MEMB      24              0.0000000000
      2626        24  OSM       C2S           -15.2156875520       11.9330743407       16.7836132418  MEMB      24              0.0000000000
      2627        24  OSM       H2S           -14.8105283501       11.4438385528       15.8721224171  MEMB      24              0.0000000000
      2628        24  OSM       C3S           -16.7609593804       11.8066362975       16.7775676916  MEMB      24              0.0000000000
      2629        24  OSM       H3S           -17.1832541527       12.4588453789       17.5716783295  MEMB      24              0.0000000000
      2630        24  OSM       O3            -17.2480956441       10.5358057685       17.1686515855  MEMB      24              0.0000000000
      2631        24  OSM       HO3           -16.4414964018       10.0152398829       17.1716608115  MEMB      24              0.0000000000
      2632        24  OSM       C4S           -17.2876944205       12.2767406517       15.5103431098  MEMB      24              0.0000000000
      2633        24  OSM       H4S           -16.5942697467       11.9989562671       14.7028790243  MEMB      24              0.0000000000
      2634        24  OSM       C5S           -18.3534607455       13.0777961400       15.2377963496  MEMB      24              0.0000000000
      2635        24  OSM       H5S           -19.0701939063       13.3488342309       16.0269935976  MEMB      24              0.0000000000
      2636        24  OSM       C6S           -18.6677114186       13.3714060656       13.8307219858  MEMB      24              0.0000000000
      2637        24  OSM       H6S           -18.5253471729       14.4607551025       13.6652762936  MEMB      24              0.0000000000
      2638        24  OSM       H6T           -19.7173631670       13.0093624484       13.7922900667  MEMB      24              0.0000000000
      2639        24  OSM       C7S           -18.2476904615       12.5271903625       12.5316930744  MEMB      24              0.0000000000
      2640        24  OSM       H7S           -18.9615811523       12.8746373481       11.7545438134  MEMB      24              0.0000000000
      2641        24  OSM       H7T           -18.4504829844       11.4449460594       12.6798269685  MEMB      24              0.0000000000
      2642        24  OSM       C8S           -16.8297512443       12.6117595798       12.1054993997  MEMB      24              0.0000000000
      2643        24  OSM       H8S           -16.1944878587       12.1053042817       12.8633021337  MEMB      24              0.0000000000
      2644        24  OSM       H8T           -16.3982980795       13.6351612415       12.1341008737  MEMB      24              0.0000000000
      2645        24  OSM       C9S           -16.4403494066       11.9907123979       10.7580686446  MEMB      24              0.0000000000
      2646        24  OSM       H9S           -16.7131930001       10.9143794447       10.7208568900  MEMB      24              0.0000000000
      2647        24  OSM       H9T           -15.3377929639       11.9604627666       10.6247448397  MEMB      24              0.0000000000
      2648        24  OSM       C10S          -16.9587522729       12.7485944886        9.5544185267  MEMB      24              0.0000000000
      2649        24  OSM       H10S          -16.6796274207       13.8207125570        9.4709143660  MEMB      24              0.0000000000
      2650        24  OSM       H10T          -18.0557739196       12.5904516799        9.6309408584  MEMB      24              0.0000000000
      2651        24  OSM       C11S          -16.5082132565       12.1058292081        8.2037906641  MEMB      24              0.0000000000
      2652        24  OSM       H11S          -17.2800288230       12.1814076376        7.4082345943  MEMB      24              0.0000000000
      2653        24  OSM       H11T          -16.2892169845       11.0252561251        8.3406243684  MEMB      24              0.0000000000
      2654        24  OSM       C12S          -15.1920553673       12.7819648643        7.5919659730  MEMB      24              0.0000000000
      2655        24  OSM       H12S          -14.3980662023       12.3159885824        8.2138726425  MEMB      24              0.0000000000
      2656        24  OSM       H12T          -15.2269854065       13.8911398831        7.6451798148  MEMB      24              0.0000000000
      2657        24  OSM       C13S          -14.8316234688       12.4849499780        6.1044814245  MEMB      24              0.0000000000
      2658        24  OSM       H13S          -15.7160459535       12.8708742715        5.5538637117  MEMB      24              0.0000000000
      2659        24  OSM       H13T          -14.7945278423       11.3749034282        6.1317121045  MEMB      24              0.0000000000
      2660        24  OSM       C14S          -13.4910517157       13.0511790618        5.5876996772  MEMB      24              0.0000000000
      2661        24  OSM       H14S          -12.7881163369       13.1768202061        6.4388267506  MEMB      24              0.0000000000
      2662        24  OSM       H14T          -13.6512799434       14.0867169883        5.2184992103  MEMB      24              0.0000000000
      2663        24  OSM       C15S          -12.8315110827       12.1962131044        4.4561966794  MEMB      24              0.0000000000
      2664        24  OSM       H15S          -12.9943170174       11.1058502612        4.5937619016  MEMB      24              0.0000000000
      2665        24  OSM       H15T          -11.7436642694       12.4206457578        4.4794318325  MEMB      24              0.0000000000
      2666        24  OSM       C16S          -13.4706667163       12.2501041331        3.0169879759  MEMB      24              0.0000000000
      2667        24  OSM       H16S          -13.4033668993       13.3132383182        2.7014940182  MEMB      24              0.0000000000
      2668        24  OSM       H16T          -14.5767454847       12.1475636220        3.0368934553  MEMB      24              0.0000000000
      2669        24  OSM       C17S          -12.7740383362       11.5475560499        1.8376315576  MEMB      24              0.0000000000
      2670        24  OSM       H17S          -12.4275269717       10.5129833019        2.0471805823  MEMB      24              0.0000000000
      2671        24  OSM       H17T          -11.8691639071       12.1470169226        1.6006306307  MEMB      24              0.0000000000
      2672        24  OSM       C18S          -13.7102522206       11.4355942051        0.6367287110  MEMB      24              0.0000000000
      2673        24  OSM       H18S          -14.6945552104       11.1449240318        1.0621454912  MEMB      24              0.0000000000
      2674        24  OSM       H18T          -13.3533017940       10.7554457972       -0.1659582253  MEMB      24              0.0000000000
      2675        24  OSM       H18U          -13.8140523184       12.4338910773        0.1603366952  MEMB      24              0.0000000000
      2676        24  OSM       C1F           -13.7943863491       13.9071453926       16.5046912197  MEMB      24              0.0000000000
      2677        24  OSM       OF            -12.7800954732       13.3189810157       16.7440418389  MEMB      24              0.0000000000
      2678        24  OSM       C2F           -13.7638267740       15.2746086731       16.0081665133  MEMB      24              0.0000000000
      2679        24  OSM       H2F           -13.3924919125       15.9354145723       16.8204270732  MEMB      24              0.0000000000
      2680        24  OSM       H2G           -14.7615465441       15.6850428237       15.7427984974  MEMB      24              0.0000000000
      2681        24  OSM       C3F           -12.8781313517       15.4070325558       14.7115783810  MEMB      24              0.0000000000
      2682        24  OSM       H3F           -11.9472180391       14.8243933954       14.8796653566  MEMB      24              0.0000000000
      2683        24  OSM       H3G           -12.5582789044       16.4669880888       14.6193303666  MEMB      24              0.0000000000
      2684        24  OSM       C4F           -13.6084795264       14.9016189029       13.3462382925  MEMB      24              0.0000000000
      2685        24  OSM       H4F           -14.5149946279       15.5433552464       13.3192955483  MEMB      24              0.0000000000
      2686        24  OSM       H4G           -14.0306322623       13.8921345756       13.5387206154  MEMB      24              0.0000000000
      2687        24  OSM       C5F           -12.7064957175       15.0638083711       12.1308708764  MEMB      24              0.0000000000
      2688        24  OSM       H5F           -11.8357491377       14.3745103283       12.1623283184  MEMB      24              0.0000000000
      2689        24  OSM       H5G           -12.3568708669       16.1173502292       12.0846867847  MEMB      24              0.0000000000
      2690        24  OSM       C6F           -13.4958395555       14.7172747173       10.8614490392  MEMB      24              0.0000000000
      2691        24  OSM       H6F           -14.3077364363       15.4157289017       10.5659721755  MEMB      24              0.0000000000
      2692        24  OSM       H6G           -13.9348055743       13.6967173341       10.8518276221  MEMB      24              0.0000000000
      2693        24  OSM       C7F           -12.5840063480       14.8678524487        9.5727016342  MEMB      24              0.0000000000
      2694        24  OSM       H7F           -13.1309698174       14.3801707771        8.7376452181  MEMB      24              0.0000000000
      2695        24  OSM       H7G           -11.6317339152       14.3034281294        9.6671646524  MEMB      24              0.0000000000
      2696        24  OSM       C8F           -12.2958752882       16.3160389155        9.1401963291  MEMB      24              0.0000000000
      2697        24  OSM       H8F           -11.8642999552       16.8938006429        9.9853332474  MEMB      24              0.0000000000
      2698        24  OSM       H8G           -13.3192165771       16.7360086354        9.0366633959  MEMB      24              0.0000000000
      2699        24  OSM       C9F           -11.4682455859       16.5198374676        7.8946824531  MEMB      24              0.0000000000
      2700        24  OSM       H9F           -10.4589961622       16.1046167195        7.7568164385  MEMB      24              0.0000000000
      2701        24  OSM       C10F          -11.8523744187       17.2563108369        6.8360493196  MEMB      24              0.0000000000
      2702        24  OSM       H10F          -11.2898536788       17.2466098437        5.8908103895  MEMB      24              0.0000000000
      2703        24  OSM       C11F          -13.1565039006       17.9906988814        6.7659003625  MEMB      24              0.0000000000
      2704        24  OSM       H11F          -13.0553425673       18.7762016901        5.9867514811  MEMB      24              0.0000000000
      2705        24  OSM       H11G          -13.3488723230       18.4877081771        7.7407321556  MEMB      24              0.0000000000
      2706        24  OSM       C12F          -14.4235316321       17.1767127517        6.4506578360  MEMB      24              0.0000000000
      2707        24  OSM       H12F          -15.2880922319       17.8526516221        6.6237527862  MEMB      24              0.0000000000
      2708        24  OSM       H12G          -14.4395777802       16.3536037067        7.1966838942  MEMB      24              0.0000000000
      2709        24  OSM       C13F          -14.4458985949       16.9464025448        4.8829224753  MEMB      24              0.0000000000
      2710        24  OSM       H13F          -13.4556450881       16.4988116271        4.6518789864  MEMB      24              0.0000000000
      2711        24  OSM       H13G          -14.5078097425       17.9597953274        4.4317870698  MEMB      24              0.0000000000
      2712        24  OSM       C14F          -15.4886782796       16.0186985141        4.3205071819  MEMB      24              0.0000000000
      2713        24  OSM       H14F          -16.5016919530       16.3773320647        4.6024752032  MEMB      24              0.0000000000
      2714        24  OSM       H14G          -15.2676938007       15.0401919103        4.7980120574  MEMB      24              0.0000000000
      2715        24  OSM       C15F          -15.3329611507       15.7773735735        2.7317564352  MEMB      24              0.0000000000
      2716        24  OSM       H15F          -16.0673584815       15.0200903173        2.3831824544  MEMB      24              0.0000000000
      2717        24  OSM       H15G          -14.2966878413       15.3938506397        2.6161336765  MEMB      24              0.0000000000
      2718        24  OSM       C16F          -15.6081844820       17.1386526926        2.0779336264  MEMB      24              0.0000000000
      2719        24  OSM       H16F          -14.6991008097       17.7765546012        2.1090615015  MEMB      24              0.0000000000
      2720        24  OSM       H16G          -16.5579363052       17.5419168409        2.4898448397  MEMB      24              0.0000000000
      2721        24  OSM       C17F          -15.8562512324       17.1557490179        0.5558948877  MEMB      24              0.0000000000
      2722        24  OSM       H17F          -16.9492044669       17.1101427770        0.3617446374  MEMB      24              0.0000000000
      2723        24  OSM       H17G          -15.3640810453       16.2587870106        0.1228257068  MEMB      24              0.0000000000
      2724        24  OSM       C18F          -15.4954760163       18.4611009919       -0.1806766585  MEMB      24              0.0000000000
      2725        24  OSM       H18F          -15.4967898630       18.3004652836       -1.2800014337  MEMB      24              0.0000000000
      2726        24  OSM       H18G          -14.4836897717       18.8544191202        0.0557762418  MEMB      24              0.0000000000
      2727        24  OSM       H18H          -16.2229483166       19.2703272053        0.0435079429  MEMB      24              0.0000000000
      2728        25  SAPE      N              20.8399047800        3.3391517136       18.6877159906  MEMB      25              0.0000000000
      2729        25  SAPE      HN1            20.7721713356        3.0624265008       17.6874982908  MEMB      25              0.0000000000
      2730        25  SAPE      HN2            21.1584736797        4.3274601611       18.6297469539  MEMB      25              0.0000000000
      2731        25  SAPE      HN3            21.5806192800        2.7941906032       19.1734726723  MEMB      25              0.0000000000
      2732        25  SAPE      C12            19.4691834996        3.3199224124       19.3370249201  MEMB      25              0.0000000000
      2733        25  SAPE      H12A           18.8343335829        3.7835838498       18.5519743297  MEMB      25              0.0000000000
      2734        25  SAPE      H12B           19.5727196587        3.8903100577       20.2847902239  MEMB      25              0.0000000000
      2735        25  SAPE      C11            18.8794431410        1.7863458959       19.5164255478  MEMB      25              0.0000000000
      2736        25  SAPE      H11A           18.9819001555        1.3278396947       18.5096507184  MEMB      25              0.0000000000
      2737        25  SAPE      H11B           17.8138498006        1.8517419411       19.8239241652  MEMB      25              0.0000000000
      2738        25  SAPE      P              20.5280368037       -0.0184073717       20.5392014463  MEMB      25              0.0000000000
      2739        25  SAPE      O13            21.8408924339        0.6759114580       20.7401716964  MEMB      25              0.0000000000
      2740        25  SAPE      O14            20.1814236622       -1.1019210111       21.4709137057  MEMB      25              0.0000000000
      2741        25  SAPE      O12            19.4227379868        1.0822957252       20.6360951102  MEMB      25              0.0000000000
      2742        25  SAPE      O11            20.3829888913       -0.4695388991       19.0724515953  MEMB      25              0.0000000000
      2743        25  SAPE      C1             21.3075309064       -1.4677325739       18.6426699454  MEMB      25              0.0000000000
      2744        25  SAPE      HA             21.7900870470       -2.0564712010       19.4518963310  MEMB      25              0.0000000000
      2745        25  SAPE      HB             20.7875716203       -2.3458974060       18.2035913766  MEMB      25              0.0000000000
      2746        25  SAPE      C2             22.3985161206       -0.9396551228       17.6551966232  MEMB      25              0.0000000000
      2747        25  SAPE      HS             23.0630342060       -0.3141421773       18.2888134525  MEMB      25              0.0000000000
      2748        25  SAPE      O21            21.6815737246       -0.1454908282       16.7602295052  MEMB      25              0.0000000000
      2749        25  SAPE      C21            22.3723628899        0.8018529814       16.0484673882  MEMB      25              0.0000000000
      2750        25  SAPE      O22            23.5613144162        0.9855402026       16.1582686048  MEMB      25              0.0000000000
      2751        25  SAPE      C22            21.5387447074        1.4701610108       14.9399406241  MEMB      25              0.0000000000
      2752        25  SAPE      H2R            21.3538489518        0.8052172458       14.0693174206  MEMB      25              0.0000000000
      2753        25  SAPE      H2S            20.5418752341        1.7209108855       15.3614815636  MEMB      25              0.0000000000
      2754        25  SAPE      C3             23.2044252215       -2.0127440945       16.9101656430  MEMB      25              0.0000000000
      2755        25  SAPE      HX             23.9908967098       -2.4004543251       17.5924151883  MEMB      25              0.0000000000
      2756        25  SAPE      HY             23.6999674301       -1.6410846749       15.9878707857  MEMB      25              0.0000000000
      2757        25  SAPE      O31            22.3154120746       -3.1357399681       16.5604338290  MEMB      25              0.0000000000
      2758        25  SAPE      C31            21.7014868853       -3.1465922495       15.3588282850  MEMB      25              0.0000000000
      2759        25  SAPE      O32            21.9572992584       -2.4138822599       14.3960483475  MEMB      25              0.0000000000
      2760        25  SAPE      C32            20.7708438963       -4.4237421782       15.3916424405  MEMB      25              0.0000000000
      2761        25  SAPE      H2X            20.6714067917       -4.8575746794       16.4095923434  MEMB      25              0.0000000000
      2762        25  SAPE      H2Y            21.3201186519       -5.1831408457       14.7950420853  MEMB      25              0.0000000000
      2763        25  SAPE      C23            22.1941654953        2.7528613687       14.4710695746  MEMB      25              0.0000000000
      2764        25  SAPE      H3R            23.2971281270        2.6917895773       14.3524739589  MEMB      25              0.0000000000
      2765        25  SAPE      H3S            21.9204133874        3.6221866944       15.1064070920  MEMB      25              0.0000000000
      2766        25  SAPE      C24            21.7666741616        3.1328065722       13.0174355854  MEMB      25              0.0000000000
      2767        25  SAPE      H4R            20.6930133545        2.9476082746       12.8000075278  MEMB      25              0.0000000000
      2768        25  SAPE      H4S            22.2832111801        2.3817141194       12.3823206461  MEMB      25              0.0000000000
      2769        25  SAPE      C25            22.1912092679        4.5311330834       12.5794184088  MEMB      25              0.0000000000
      2770        25  SAPE      H5R            21.6963735283        5.4010883115       13.0358343335  MEMB      25              0.0000000000
      2771        25  SAPE      C26            22.9933535289        4.7233002026       11.5020586651  MEMB      25              0.0000000000
      2772        25  SAPE      H6R            23.4174476929        5.7318555992       11.3882149487  MEMB      25              0.0000000000
      2773        25  SAPE      C27            23.6775178745        3.7842468296       10.4840783457  MEMB      25              0.0000000000
      2774        25  SAPE      H7R            23.7074266644        4.4050514702        9.5631943517  MEMB      25              0.0000000000
      2775        25  SAPE      H7S            23.0872865352        2.8647219305       10.2830265834  MEMB      25              0.0000000000
      2776        25  SAPE      C28            25.0526104040        3.4746905864       11.1260946416  MEMB      25              0.0000000000
      2777        25  SAPE      H8R            25.6045982339        4.3551395203       11.4868138871  MEMB      25              0.0000000000
      2778        25  SAPE      C29            25.7113881141        2.2582427950       11.1433888574  MEMB      25              0.0000000000
      2779        25  SAPE      H9R            26.7845351756        2.2231666958       11.3823984429  MEMB      25              0.0000000000
      2780        25  SAPE      C210           25.1244844285        0.9882171231       10.5360919795  MEMB      25              0.0000000000
      2781        25  SAPE      H10R           25.9598342906        0.4011631133       10.0980509933  MEMB      25              0.0000000000
      2782        25  SAPE      H10S           24.5539776471        1.3119458349        9.6394068841  MEMB      25              0.0000000000
      2783        25  SAPE      C211           24.3525645352        0.2587338209       11.5546403421  MEMB      25              0.0000000000
      2784        25  SAPE      H11R           24.7874552297        0.0795537753       12.5490067161  MEMB      25              0.0000000000
      2785        25  SAPE      C212           23.1556578590       -0.2632405266       11.3386047706  MEMB      25              0.0000000000
      2786        25  SAPE      H12R           22.6556530353       -0.8279578570       12.1392850864  MEMB      25              0.0000000000
      2787        25  SAPE      C213           22.3703842858       -0.2317642154       10.0346306000  MEMB      25              0.0000000000
      2788        25  SAPE      H13R           23.1182316863       -0.0327550688        9.2374850179  MEMB      25              0.0000000000
      2789        25  SAPE      H13S           21.6530877374        0.6163906419       10.0556050444  MEMB      25              0.0000000000
      2790        25  SAPE      C214           21.4956039104       -1.3998297648        9.9246247448  MEMB      25              0.0000000000
      2791        25  SAPE      H14R           20.7952130331       -1.6620778173       10.7312710007  MEMB      25              0.0000000000
      2792        25  SAPE      C215           21.4837308846       -2.3313152302        8.9525297930  MEMB      25              0.0000000000
      2793        25  SAPE      H15R           20.8473775059       -3.2221045884        9.0599928131  MEMB      25              0.0000000000
      2794        25  SAPE      C216           22.3391181142       -2.4690206870        7.7686254775  MEMB      25              0.0000000000
      2795        25  SAPE      H16R           22.3263779096       -3.4988526849        7.3519663594  MEMB      25              0.0000000000
      2796        25  SAPE      H16S           23.3439459359       -2.0598706416        8.0078706732  MEMB      25              0.0000000000
      2797        25  SAPE      C217           21.8450125687       -1.5561169720        6.5734799906  MEMB      25              0.0000000000
      2798        25  SAPE      H17R           21.8547656687       -0.4878852917        6.8786145770  MEMB      25              0.0000000000
      2799        25  SAPE      H17S           20.7713610887       -1.8316851168        6.4982753106  MEMB      25              0.0000000000
      2800        25  SAPE      C218           22.6253829804       -1.7623436911        5.2675679045  MEMB      25              0.0000000000
      2801        25  SAPE      H18R           22.7198519155       -2.8559185622        5.0958396223  MEMB      25              0.0000000000
      2802        25  SAPE      H18S           23.6406820768       -1.3580749168        5.4677067338  MEMB      25              0.0000000000
      2803        25  SAPE      C219           22.1025717217       -0.9919275540        4.1183868358  MEMB      25              0.0000000000
      2804        25  SAPE      H19R           22.8125713541       -1.1280388097        3.2747660024  MEMB      25              0.0000000000
      2805        25  SAPE      H19S           22.0805420082        0.0998782957        4.3228273100  MEMB      25              0.0000000000
      2806        25  SAPE      C220           20.7333777969       -1.3995079372        3.6141771111  MEMB      25              0.0000000000
      2807        25  SAPE      H20R           20.4649066274       -2.4737756827        3.5236608179  MEMB      25              0.0000000000
      2808        25  SAPE      H20S           20.3721450631       -0.8846136326        2.6983627346  MEMB      25              0.0000000000
      2809        25  SAPE      H20T           19.8445391592       -1.1339976565        4.2255604179  MEMB      25              0.0000000000
      2810        25  SAPE      C33            19.3439770315       -4.0651033279       15.0278014753  MEMB      25              0.0000000000
      2811        25  SAPE      H3X            18.7614512497       -4.9925730344       14.8412960804  MEMB      25              0.0000000000
      2812        25  SAPE      H3Y            19.4068267640       -3.5094277438       14.0678034892  MEMB      25              0.0000000000
      2813        25  SAPE      C34            18.6754098192       -3.1272488496       16.0511665157  MEMB      25              0.0000000000
      2814        25  SAPE      H4X            19.3876576896       -2.2889825902       16.2071603749  MEMB      25              0.0000000000
      2815        25  SAPE      H4Y            18.7421367560       -3.6305543538       17.0393729774  MEMB      25              0.0000000000
      2816        25  SAPE      C35            17.2773412637       -2.3922623376       15.6724394465  MEMB      25              0.0000000000
      2817        25  SAPE      H5X            17.0426748965       -1.6379234744       16.4536086158  MEMB      25              0.0000000000
      2818        25  SAPE      H5Y            16.4833387293       -3.1468329276       15.8581932535  MEMB      25              0.0000000000
      2819        25  SAPE      C36            17.2116658756       -1.6062168375       14.2726236217  MEMB      25              0.0000000000
      2820        25  SAPE      H6X            16.2490425525       -1.0624522726       14.3821577334  MEMB      25              0.0000000000
      2821        25  SAPE      H6Y            17.1768656599       -2.2597345406       13.3748350223  MEMB      25              0.0000000000
      2822        25  SAPE      C37            18.3341770643       -0.7318046721       14.1993734102  MEMB      25              0.0000000000
      2823        25  SAPE      H7X            19.1559383268       -1.3820543427       13.8303142207  MEMB      25              0.0000000000
      2824        25  SAPE      H7Y            18.6887863802       -0.2773683006       15.1491424511  MEMB      25              0.0000000000
      2825        25  SAPE      C38            18.2038356154        0.4499032498       13.1793828886  MEMB      25              0.0000000000
      2826        25  SAPE      H8X            19.1601821891        0.9906753663       13.0141926533  MEMB      25              0.0000000000
      2827        25  SAPE      H8Y            17.4985261790        1.1910596653       13.6124494568  MEMB      25              0.0000000000
      2828        25  SAPE      C39            17.8657015882        0.0025018412       11.7456005777  MEMB      25              0.0000000000
      2829        25  SAPE      H9X            16.9177580914       -0.5668444346       11.6380402781  MEMB      25              0.0000000000
      2830        25  SAPE      H9Y            18.6946380062       -0.7122107561       11.5548878831  MEMB      25              0.0000000000
      2831        25  SAPE      C310           18.1071140143        1.1076610388       10.6620467009  MEMB      25              0.0000000000
      2832        25  SAPE      H10X           19.0711674636        1.6220321895       10.8629056864  MEMB      25              0.0000000000
      2833        25  SAPE      H10Y           17.2305462485        1.7764738125       10.7985722934  MEMB      25              0.0000000000
      2834        25  SAPE      C311           18.1539871750        0.5934589256        9.2141773966  MEMB      25              0.0000000000
      2835        25  SAPE      H11X           17.1571183776        0.1820801145        8.9470799363  MEMB      25              0.0000000000
      2836        25  SAPE      H11Y           18.9478651657       -0.1735585562        9.0886273859  MEMB      25              0.0000000000
      2837        25  SAPE      C312           18.2613930180        1.7630466757        8.2241373905  MEMB      25              0.0000000000
      2838        25  SAPE      H12X           19.0331797303        2.3507747695        8.7656556747  MEMB      25              0.0000000000
      2839        25  SAPE      H12Y           17.3503824168        2.3964751683        8.1680195846  MEMB      25              0.0000000000
      2840        25  SAPE      C313           18.7771072123        1.3213786523        6.7748316710  MEMB      25              0.0000000000
      2841        25  SAPE      H13X           17.9444053041        0.7608220580        6.2986964308  MEMB      25              0.0000000000
      2842        25  SAPE      H13Y           19.6436826652        0.6262701706        6.7887032902  MEMB      25              0.0000000000
      2843        25  SAPE      C314           19.1113352539        2.5071191464        5.8113820024  MEMB      25              0.0000000000
      2844        25  SAPE      H14X           19.8097992937        3.2022632345        6.3244548676  MEMB      25              0.0000000000
      2845        25  SAPE      H14Y           18.1411340535        2.9968779618        5.5808022074  MEMB      25              0.0000000000
      2846        25  SAPE      C315           19.7315019248        2.0660066136        4.5034038939  MEMB      25              0.0000000000
      2847        25  SAPE      H15X           19.0888461522        2.2464060228        3.6152755536  MEMB      25              0.0000000000
      2848        25  SAPE      H15Y           19.7464950724        0.9730852988        4.7024492104  MEMB      25              0.0000000000
      2849        25  SAPE      C316           21.1291288056        2.6525995428        4.1502303088  MEMB      25              0.0000000000
      2850        25  SAPE      H16X           21.8426112119        2.3273932140        4.9373162013  MEMB      25              0.0000000000
      2851        25  SAPE      H16Y           20.9987862882        3.7559218483        4.1467541628  MEMB      25              0.0000000000
      2852        25  SAPE      C317           21.5952299811        2.3397111574        2.7178336842  MEMB      25              0.0000000000
      2853        25  SAPE      H17X           20.8428594436        2.4814919752        1.9127504347  MEMB      25              0.0000000000
      2854        25  SAPE      H17Y           21.7586182758        1.2407944985        2.7150444854  MEMB      25              0.0000000000
      2855        25  SAPE      C318           22.8406238958        3.0067414947        2.3292372711  MEMB      25              0.0000000000
      2856        25  SAPE      H18X           23.1689691043        2.8809144522        1.2753516233  MEMB      25              0.0000000000
      2857        25  SAPE      H18Y           23.7768665620        2.7379639936        2.8635871609  MEMB      25              0.0000000000
      2858        25  SAPE      H18Z           22.7099982697        4.1044247089        2.4403662535  MEMB      25              0.0000000000
      2859        26  SOPE      N              -0.2891273136       19.7315449786       23.4866204030  MEMB      26              0.0000000000
      2860        26  SOPE      HN1             0.4657689185       20.4430414176       23.4124280046  MEMB      26              0.0000000000
      2861        26  SOPE      HN2            -0.1509668705       19.3109644727       24.4276962420  MEMB      26              0.0000000000
      2862        26  SOPE      HN3            -0.1287568285       19.0949513484       22.6800040112  MEMB      26              0.0000000000
      2863        26  SOPE      C12            -1.6496448022       20.3745815953       23.4076982392  MEMB      26              0.0000000000
      2864        26  SOPE      H12A           -1.5177810310       21.4741409332       23.4965926603  MEMB      26              0.0000000000
      2865        26  SOPE      H12B           -2.1818414824       20.0030806368       24.3094047954  MEMB      26              0.0000000000
      2866        26  SOPE      C11            -2.3660172578       20.0273389891       22.1326730585  MEMB      26              0.0000000000
      2867        26  SOPE      H11A           -3.4175544348       20.3859316971       22.1313160541  MEMB      26              0.0000000000
      2868        26  SOPE      H11B           -2.4987981158       18.9249741089       22.0941786035  MEMB      26              0.0000000000
      2869        26  SOPE      P              -1.2040855660       19.6194638290       19.7620937529  MEMB      26              0.0000000000
      2870        26  SOPE      O13            -0.7280397946       18.3180557682       20.2130931079  MEMB      26              0.0000000000
      2871        26  SOPE      O14            -0.3423176552       20.4520893159       18.8508826211  MEMB      26              0.0000000000
      2872        26  SOPE      O12            -1.6501568059       20.5638493798       21.0587016587  MEMB      26              0.0000000000
      2873        26  SOPE      O11            -2.5582626770       19.3435433035       19.0882371605  MEMB      26              0.0000000000
      2874        26  SOPE      C1             -3.3065451488       20.3577955998       18.4462263091  MEMB      26              0.0000000000
      2875        26  SOPE      HA             -2.8374582083       21.3618833463       18.5242409264  MEMB      26              0.0000000000
      2876        26  SOPE      HB             -4.2602853496       20.4393402183       19.0101864134  MEMB      26              0.0000000000
      2877        26  SOPE      C2             -3.4030092630       20.0492193829       16.9483950564  MEMB      26              0.0000000000
      2878        26  SOPE      HS             -4.0045205413       19.1517261213       16.6895305543  MEMB      26              0.0000000000
      2879        26  SOPE      O21            -2.0926470927       19.8910730765       16.3165653798  MEMB      26              0.0000000000
      2880        26  SOPE      C21            -1.5586199706       18.7318162863       15.8843792500  MEMB      26              0.0000000000
      2881        26  SOPE      O22            -2.0783735872       17.6285449705       16.0946233171  MEMB      26              0.0000000000
      2882        26  SOPE      C22            -0.2311293526       19.0118040332       15.3195315989  MEMB      26              0.0000000000
      2883        26  SOPE      H2R             0.3739304191       19.3979269910       16.1675484945  MEMB      26              0.0000000000
      2884        26  SOPE      H2S            -0.2031748920       19.8189850841       14.5566431990  MEMB      26              0.0000000000
      2885        26  SOPE      C3             -4.1303034102       21.1751396222       16.2215489179  MEMB      26              0.0000000000
      2886        26  SOPE      HX             -3.7673595736       22.1561272599       16.5960566902  MEMB      26              0.0000000000
      2887        26  SOPE      HY             -5.2327113508       21.2241787027       16.3504410585  MEMB      26              0.0000000000
      2888        26  SOPE      O31            -3.9896347181       20.8842762745       14.8329437079  MEMB      26              0.0000000000
      2889        26  SOPE      C31            -3.0967375984       21.6175737521       14.1340684738  MEMB      26              0.0000000000
      2890        26  SOPE      O32            -2.2489081805       22.3215174102       14.5783507710  MEMB      26              0.0000000000
      2891        26  SOPE      C32            -3.3966490770       21.2920653523       12.6067443831  MEMB      26              0.0000000000
      2892        26  SOPE      H2X            -4.3475233821       21.8007432838       12.3395257296  MEMB      26              0.0000000000
      2893        26  SOPE      H2Y            -3.5593168610       20.1944994755       12.5500934445  MEMB      26              0.0000000000
      2894        26  SOPE      C23             0.4582188563       17.7192414736       14.8600553673  MEMB      26              0.0000000000
      2895        26  SOPE      H3R             0.1889902327       16.9663256568       15.6313888115  MEMB      26              0.0000000000
      2896        26  SOPE      H3S             1.5309090205       18.0037826360       14.8081614551  MEMB      26              0.0000000000
      2897        26  SOPE      C24             0.0251443320       17.2586151304       13.5242312019  MEMB      26              0.0000000000
      2898        26  SOPE      H4R             0.5004709723       16.2994372016       13.2269710691  MEMB      26              0.0000000000
      2899        26  SOPE      H4S            -1.0740541586       17.0981597759       13.5058527935  MEMB      26              0.0000000000
      2900        26  SOPE      C25             0.3464053867       18.2358960112       12.3593643113  MEMB      26              0.0000000000
      2901        26  SOPE      H5R            -0.2134650722       19.1592312446       12.6207418259  MEMB      26              0.0000000000
      2902        26  SOPE      H5S             1.4286671142       18.4817020035       12.3082781819  MEMB      26              0.0000000000
      2903        26  SOPE      C26            -0.1789886201       17.7138812164       11.0015465751  MEMB      26              0.0000000000
      2904        26  SOPE      H6R             0.1308316054       16.7107635993       10.6381084658  MEMB      26              0.0000000000
      2905        26  SOPE      H6S            -1.2869357116       17.7922344463       10.9763487017  MEMB      26              0.0000000000
      2906        26  SOPE      C27             0.2048761190       18.6423499230        9.8438752293  MEMB      26              0.0000000000
      2907        26  SOPE      H7R            -0.3027373675       19.5981466273       10.0950765511  MEMB      26              0.0000000000
      2908        26  SOPE      H7S             1.3063185309       18.7681652575        9.9167861634  MEMB      26              0.0000000000
      2909        26  SOPE      C28            -0.1122107824       18.1199561166        8.4329515761  MEMB      26              0.0000000000
      2910        26  SOPE      H8R             0.3496415164       18.8756356700        7.7621594088  MEMB      26              0.0000000000
      2911        26  SOPE      H8S             0.4772494687       17.1811155356        8.3592211913  MEMB      26              0.0000000000
      2912        26  SOPE      C29            -1.6068056675       17.8737306485        8.1156624445  MEMB      26              0.0000000000
      2913        26  SOPE      H91            -2.2543749405       17.9561547216        9.0010207940  MEMB      26              0.0000000000
      2914        26  SOPE      C210           -2.0698442499       17.5941547809        6.9125429315  MEMB      26              0.0000000000
      2915        26  SOPE      H101           -3.0981804694       17.3040559058        6.6510713552  MEMB      26              0.0000000000
      2916        26  SOPE      C211           -1.2874595166       17.4816871187        5.5903977302  MEMB      26              0.0000000000
      2917        26  SOPE      H11R           -0.2456222388       17.1192812518        5.7229050585  MEMB      26              0.0000000000
      2918        26  SOPE      H11S           -1.2225935107       18.5279430498        5.2223456474  MEMB      26              0.0000000000
      2919        26  SOPE      C212           -2.1245411944       16.6671826021        4.5533073545  MEMB      26              0.0000000000
      2920        26  SOPE      H12R           -3.0241491388       17.2771164653        4.3230739514  MEMB      26              0.0000000000
      2921        26  SOPE      H12S           -2.5152364982       15.7262956222        4.9964883273  MEMB      26              0.0000000000
      2922        26  SOPE      C213           -1.2837133732       16.1573873213        3.3353352348  MEMB      26              0.0000000000
      2923        26  SOPE      H13R           -1.8226809901       15.4346800921        2.6860828494  MEMB      26              0.0000000000
      2924        26  SOPE      H13S           -0.4418443575       15.6175037318        3.8191770907  MEMB      26              0.0000000000
      2925        26  SOPE      C214           -0.6948344195       17.2534562692        2.3920454482  MEMB      26              0.0000000000
      2926        26  SOPE      H14R           -0.3289937566       16.6781608010        1.5148242492  MEMB      26              0.0000000000
      2927        26  SOPE      H14S            0.2858616695       17.4938392143        2.8554804157  MEMB      26              0.0000000000
      2928        26  SOPE      C215           -1.6033517873       18.4479403252        2.1428921030  MEMB      26              0.0000000000
      2929        26  SOPE      H15R           -1.8384785775       18.9999271264        3.0779564664  MEMB      26              0.0000000000
      2930        26  SOPE      H15S           -2.5819213018       17.9958237227        1.8739800031  MEMB      26              0.0000000000
      2931        26  SOPE      C216           -1.0802359576       19.4982624717        1.1269578141  MEMB      26              0.0000000000
      2932        26  SOPE      H16R           -0.2401059669       20.0479040055        1.6027700547  MEMB      26              0.0000000000
      2933        26  SOPE      H16S           -1.9672950752       20.1514507963        0.9827649307  MEMB      26              0.0000000000
      2934        26  SOPE      C217           -0.7058113425       18.8373469441       -0.2297908383  MEMB      26              0.0000000000
      2935        26  SOPE      H17R            0.1441259797       18.1768009412        0.0451750194  MEMB      26              0.0000000000
      2936        26  SOPE      H17S           -0.3477332054       19.5721036785       -0.9822759802  MEMB      26              0.0000000000
      2937        26  SOPE      C218           -1.7198820597       17.8667278610       -0.9267498495  MEMB      26              0.0000000000
      2938        26  SOPE      H18R           -1.4115515269       17.5558928588       -1.9478437245  MEMB      26              0.0000000000
      2939        26  SOPE      H18S           -2.6767683937       18.4246496721       -1.0128457245  MEMB      26              0.0000000000
      2940        26  SOPE      H18T           -1.8843450764       16.9104793076       -0.3855814541  MEMB      26              0.0000000000
      2941        26  SOPE      C33            -2.3211368590       21.7250676121       11.6618832441  MEMB      26              0.0000000000
      2942        26  SOPE      H3X            -2.4382916972       21.1151258944       10.7407064232  MEMB      26              0.0000000000
      2943        26  SOPE      H3Y            -1.3634019015       21.3806292083       12.1073348070  MEMB      26              0.0000000000
      2944        26  SOPE      C34            -2.0198939446       23.3035954787       11.4542329528  MEMB      26              0.0000000000
      2945        26  SOPE      H4X            -1.1736857417       23.5417029844       12.1336131534  MEMB      26              0.0000000000
      2946        26  SOPE      H4Y            -2.9459777300       23.9108062820       11.5435901285  MEMB      26              0.0000000000
      2947        26  SOPE      C35            -1.6039696750       23.6894420121       10.0171008651  MEMB      26              0.0000000000
      2948        26  SOPE      H5X            -1.2987109096       24.7559822440       10.0773511361  MEMB      26              0.0000000000
      2949        26  SOPE      H5Y            -2.4507685722       23.6797029544        9.2979635563  MEMB      26              0.0000000000
      2950        26  SOPE      C36            -0.4120385796       22.9778457763        9.4424569381  MEMB      26              0.0000000000
      2951        26  SOPE      H6X            -0.9273685057       22.1367339744        8.9312947691  MEMB      26              0.0000000000
      2952        26  SOPE      H6Y             0.2436440952       22.6602948021       10.2812435989  MEMB      26              0.0000000000
      2953        26  SOPE      C37             0.4526057529       23.8540680533        8.4550703404  MEMB      26              0.0000000000
      2954        26  SOPE      H7X             0.5439620425       24.8869731641        8.8539215336  MEMB      26              0.0000000000
      2955        26  SOPE      H7Y            -0.1148801671       23.8593076670        7.4999510232  MEMB      26              0.0000000000
      2956        26  SOPE      C38             1.8271731240       23.2010966822        8.2551503104  MEMB      26              0.0000000000
      2957        26  SOPE      H8X             1.7135225964       22.1552631150        7.8978884168  MEMB      26              0.0000000000
      2958        26  SOPE      H8Y             2.2426023351       23.2229408675        9.2853263929  MEMB      26              0.0000000000
      2959        26  SOPE      C39             2.7241221578       23.9680291714        7.2939807312  MEMB      26              0.0000000000
      2960        26  SOPE      H9X             3.7308299826       23.5020495424        7.3550003032  MEMB      26              0.0000000000
      2961        26  SOPE      H9Y             2.8066968918       25.0260525541        7.6227494218  MEMB      26              0.0000000000
      2962        26  SOPE      C310            2.2530205088       23.9801735392        5.8292932370  MEMB      26              0.0000000000
      2963        26  SOPE      H10X            2.7750267709       24.8214254285        5.3251836858  MEMB      26              0.0000000000
      2964        26  SOPE      H10Y            1.1754968375       24.2467182098        5.8763886434  MEMB      26              0.0000000000
      2965        26  SOPE      C311            2.4040687070       22.5919500875        5.1900723092  MEMB      26              0.0000000000
      2966        26  SOPE      H11X            1.7598258909       21.8248858896        5.6705767674  MEMB      26              0.0000000000
      2967        26  SOPE      H11Y            3.4633418001       22.2811462332        5.3152227134  MEMB      26              0.0000000000
      2968        26  SOPE      C312            1.9915086714       22.7314772577        3.7363035676  MEMB      26              0.0000000000
      2969        26  SOPE      H12X            2.8304773989       23.1785016025        3.1613059377  MEMB      26              0.0000000000
      2970        26  SOPE      H12Y            1.1443048374       23.4498734737        3.7145331612  MEMB      26              0.0000000000
      2971        26  SOPE      C313            1.5647147190       21.4172775936        3.0971007030  MEMB      26              0.0000000000
      2972        26  SOPE      H13X            1.2797633863       21.6107677930        2.0408408592  MEMB      26              0.0000000000
      2973        26  SOPE      H13Y            0.7511990574       21.0282039790        3.7460485692  MEMB      26              0.0000000000
      2974        26  SOPE      C314            2.6096845242       20.3352496858        3.0611647317  MEMB      26              0.0000000000
      2975        26  SOPE      H14X            2.1952352933       19.3933207997        2.6424482828  MEMB      26              0.0000000000
      2976        26  SOPE      H14Y            3.1379604301       20.2086021460        4.0302915059  MEMB      26              0.0000000000
      2977        26  SOPE      C315            3.8911494173       20.6208827712        2.2373614040  MEMB      26              0.0000000000
      2978        26  SOPE      H15X            4.7284464741       19.9732383220        2.5747199891  MEMB      26              0.0000000000
      2979        26  SOPE      H15Y            4.2294205619       21.6548431225        2.4627934555  MEMB      26              0.0000000000
      2980        26  SOPE      C316            3.8945206377       20.3736162831        0.7180656855  MEMB      26              0.0000000000
      2981        26  SOPE      H16X            3.5388396678       19.3389848516        0.5248037537  MEMB      26              0.0000000000
      2982        26  SOPE      H16Y            4.8935249143       20.5534854081        0.2664475977  MEMB      26              0.0000000000
      2983        26  SOPE      C317            3.1173103548       21.3869193496       -0.0793560380  MEMB      26              0.0000000000
      2984        26  SOPE      H17X            3.4221880108       22.3818424724        0.3098724909  MEMB      26              0.0000000000
      2985        26  SOPE      H17Y            2.0228091201       21.3687412866        0.1105307284  MEMB      26              0.0000000000
      2986        26  SOPE      C318            3.1850294712       21.2559184770       -1.6141486931  MEMB      26              0.0000000000
      2987        26  SOPE      H18X            2.5503295215       22.0406480593       -2.0785594302  MEMB      26              0.0000000000
      2988        26  SOPE      H18Y            2.8424602841       20.2261650006       -1.8520038760  MEMB      26              0.0000000000
      2989        26  SOPE      H18Z            4.2346131753       21.3043531463       -1.9751888066  MEMB      26              0.0000000000
      2990        27  OSM       N             -10.5509272394      -17.1944564416       22.3621055607  MEMB      27              0.0000000000
      2991        27  OSM       C15            -9.1336621704      -17.6213333129       22.5631514947  MEMB      27              0.0000000000
      2992        27  OSM       H15A           -8.5704154811      -16.7564970972       22.8812893477  MEMB      27              0.0000000000
      2993        27  OSM       H15B           -8.7941045785      -17.9622568889       21.5962638236  MEMB      27              0.0000000000
      2994        27  OSM       H15C           -8.9093603943      -18.3606690645       23.3177848006  MEMB      27              0.0000000000
      2995        27  OSM       C14           -10.9296120414      -16.8926521284       23.8232189282  MEMB      27              0.0000000000
      2996        27  OSM       H14A          -10.3603027402      -16.0617020421       24.2128455974  MEMB      27              0.0000000000
      2997        27  OSM       H14B          -10.8702216188      -17.8815725155       24.2532293947  MEMB      27              0.0000000000
      2998        27  OSM       H14C          -11.9693304701      -16.6006220532       23.8130086285  MEMB      27              0.0000000000
      2999        27  OSM       C13           -10.5640346232      -15.8973632824       21.6131301513  MEMB      27              0.0000000000
      3000        27  OSM       H13A          -11.5181480679      -15.4189956228       21.4481097606  MEMB      27              0.0000000000
      3001        27  OSM       H13B          -10.2366126613      -16.0656154750       20.5978045414  MEMB      27              0.0000000000
      3002        27  OSM       H13C           -9.8854573304      -15.1314699346       21.9585865540  MEMB      27              0.0000000000
      3003        27  OSM       C12           -11.5700968939      -18.2456101764       21.8017221649  MEMB      27              0.0000000000
      3004        27  OSM       H12A          -12.5635823537      -17.8781695670       22.0123734895  MEMB      27              0.0000000000
      3005        27  OSM       H12B          -11.3701099105      -19.2212471534       22.2194990720  MEMB      27              0.0000000000
      3006        27  OSM       C11           -11.5270321383      -18.3587339563       20.2512948769  MEMB      27              0.0000000000
      3007        27  OSM       H11A          -12.0275096266      -17.4625109209       19.8262918492  MEMB      27              0.0000000000
      3008        27  OSM       H11B          -12.0640393272      -19.2985524680       20.0009246897  MEMB      27              0.0000000000
      3009        27  OSM       P              -9.2887084834      -19.6208608232       19.8051321161  MEMB      27              0.0000000000
      3010        27  OSM       O13            -7.9102953993      -19.2559873940       19.9374095276  MEMB      27              0.0000000000
      3011        27  OSM       O14            -9.8634250755      -20.5312969563       20.7771894955  MEMB      27              0.0000000000
      3012        27  OSM       O11            -9.5972826123      -20.1540436246       18.3179594663  MEMB      27              0.0000000000
      3013        27  OSM       O12           -10.1958156979      -18.3550192231       19.7476862186  MEMB      27              0.0000000000
      3014        27  OSM       C1S            -8.6440631575      -20.0096264269       17.2106327297  MEMB      27              0.0000000000
      3015        27  OSM       H1S            -8.0014160535      -20.8959536033       17.3997084405  MEMB      27              0.0000000000
      3016        27  OSM       H1T            -8.0629641115      -19.0800018254       17.3907524195  MEMB      27              0.0000000000
      3017        27  OSM       NF             -8.3622779805      -20.2555082405       14.8113963072  MEMB      27              0.0000000000
      3018        27  OSM       HNF            -8.1740864073      -19.4821736519       14.2109408944  MEMB      27              0.0000000000
      3019        27  OSM       C2S            -9.3145685750      -20.0359581870       15.8136927051  MEMB      27              0.0000000000
      3020        27  OSM       H2S            -9.9938918268      -20.8915161114       15.6115497553  MEMB      27              0.0000000000
      3021        27  OSM       C3S           -10.0124696230      -18.7503713213       15.5951164770  MEMB      27              0.0000000000
      3022        27  OSM       H3S            -9.2135614669      -17.9785019643       15.5782500205  MEMB      27              0.0000000000
      3023        27  OSM       O3            -10.9694819333      -18.3309915335       16.6466746630  MEMB      27              0.0000000000
      3024        27  OSM       HO3           -10.7168537003      -18.9650839906       17.3217344650  MEMB      27              0.0000000000
      3025        27  OSM       C4S           -10.7270706457      -18.8557044486       14.2383033338  MEMB      27              0.0000000000
      3026        27  OSM       H4S           -11.5959856689      -19.5087889141       14.0695800207  MEMB      27              0.0000000000
      3027        27  OSM       C5S           -10.4542033829      -18.0740229284       13.2345275647  MEMB      27              0.0000000000
      3028        27  OSM       H5S            -9.5251717762      -17.5159609359       13.4228545592  MEMB      27              0.0000000000
      3029        27  OSM       C6S           -11.0735466340      -18.1614727912       11.8503893016  MEMB      27              0.0000000000
      3030        27  OSM       H6S           -10.2300399122      -18.0972195313       11.1301882986  MEMB      27              0.0000000000
      3031        27  OSM       H6T           -11.6296562012      -17.2037517555       11.7618818680  MEMB      27              0.0000000000
      3032        27  OSM       C7S           -11.9320998772      -19.4321453480       11.4869560633  MEMB      27              0.0000000000
      3033        27  OSM       H7S           -12.7474154530      -19.4564813773       12.2412703955  MEMB      27              0.0000000000
      3034        27  OSM       H7T           -11.3269827213      -20.3624473721       11.5388458200  MEMB      27              0.0000000000
      3035        27  OSM       C8S           -12.6463525528      -19.4237343429       10.0921198684  MEMB      27              0.0000000000
      3036        27  OSM       H8S           -12.4808203451      -18.3506085972        9.8569149181  MEMB      27              0.0000000000
      3037        27  OSM       H8T           -13.7489344898      -19.5568247280       10.0617680578  MEMB      27              0.0000000000
      3038        27  OSM       C9S           -11.8765245525      -20.2099008338        9.0105534923  MEMB      27              0.0000000000
      3039        27  OSM       H9S           -12.0575747122      -21.2938093682        9.1739053619  MEMB      27              0.0000000000
      3040        27  OSM       H9T           -10.7981101126      -19.9538196386        9.0864855829  MEMB      27              0.0000000000
      3041        27  OSM       C10S          -12.4536634285      -19.8115910027        7.6645889032  MEMB      27              0.0000000000
      3042        27  OSM       H10S          -12.2066701720      -18.7441966321        7.4802404518  MEMB      27              0.0000000000
      3043        27  OSM       H10T          -13.5438277303      -20.0069466089        7.7523353401  MEMB      27              0.0000000000
      3044        27  OSM       C11S          -11.9553431743      -20.6888697753        6.4990841303  MEMB      27              0.0000000000
      3045        27  OSM       H11S          -12.1878847890      -21.7509803133        6.7274837192  MEMB      27              0.0000000000
      3046        27  OSM       H11T          -10.8690022280      -20.5929000663        6.2870118250  MEMB      27              0.0000000000
      3047        27  OSM       C12S          -12.7193870803      -20.5007473409        5.2068369182  MEMB      27              0.0000000000
      3048        27  OSM       H12S          -12.5851837768      -19.5090370702        4.7243216561  MEMB      27              0.0000000000
      3049        27  OSM       H12T          -13.7813982627      -20.6175000888        5.5115052162  MEMB      27              0.0000000000
      3050        27  OSM       C13S          -12.2265206461      -21.5761944404        4.1639873876  MEMB      27              0.0000000000
      3051        27  OSM       H13S          -12.7072343078      -21.3586133289        3.1862895130  MEMB      27              0.0000000000
      3052        27  OSM       H13T          -12.6789528330      -22.5152986112        4.5483169435  MEMB      27              0.0000000000
      3053        27  OSM       C14S          -10.6847137499      -21.7699887423        3.8915676060  MEMB      27              0.0000000000
      3054        27  OSM       H14S          -10.5395119998      -22.5973942181        3.1644933694  MEMB      27              0.0000000000
      3055        27  OSM       H14T          -10.1584442834      -22.3060325569        4.7101138491  MEMB      27              0.0000000000
      3056        27  OSM       C15S           -9.9754787105      -20.5436446295        3.2694079293  MEMB      27              0.0000000000
      3057        27  OSM       H15S           -9.9041770303      -19.7634202574        4.0571180289  MEMB      27              0.0000000000
      3058        27  OSM       H15T          -10.5782917981      -20.1753933227        2.4118947204  MEMB      27              0.0000000000
      3059        27  OSM       C16S           -8.5158903749      -20.8700131029        2.8821606167  MEMB      27              0.0000000000
      3060        27  OSM       H16S           -8.5827997474      -21.6869517059        2.1321892380  MEMB      27              0.0000000000
      3061        27  OSM       H16T           -7.8453210001      -21.1878826809        3.7089705669  MEMB      27              0.0000000000
      3062        27  OSM       C17S           -7.7741607622      -19.7434314858        2.2254592122  MEMB      27              0.0000000000
      3063        27  OSM       H17S           -7.5587735465      -18.9576339825        2.9807419280  MEMB      27              0.0000000000
      3064        27  OSM       H17T           -8.4169730481      -19.2350647903        1.4753420528  MEMB      27              0.0000000000
      3065        27  OSM       C18S           -6.4043233041      -20.0895471583        1.7203183728  MEMB      27              0.0000000000
      3066        27  OSM       H18S           -6.0051255734      -20.8668561846        2.4064339837  MEMB      27              0.0000000000
      3067        27  OSM       H18T           -5.6283417695      -19.2947281579        1.6994236126  MEMB      27              0.0000000000
      3068        27  OSM       H18U           -6.5148069970      -20.5714465106        0.7253873831  MEMB      27              0.0000000000
      3069        27  OSM       C1F            -7.7076429263      -21.4046521827       14.6743057900  MEMB      27              0.0000000000
      3070        27  OSM       OF             -7.9399942160      -22.4950861546       15.1550450461  MEMB      27              0.0000000000
      3071        27  OSM       C2F            -6.7115659688      -21.3228633967       13.5498421982  MEMB      27              0.0000000000
      3072        27  OSM       H2F            -5.7904064152      -20.8532149756       13.9563106384  MEMB      27              0.0000000000
      3073        27  OSM       H2G            -7.0063094356      -20.6118611522       12.7486410986  MEMB      27              0.0000000000
      3074        27  OSM       C3F            -6.4840577890      -22.6473409025       12.8026179084  MEMB      27              0.0000000000
      3075        27  OSM       H3F            -6.0244252645      -23.2610386930       13.6066292050  MEMB      27              0.0000000000
      3076        27  OSM       H3G            -5.7133850951      -22.4881645780       12.0183683313  MEMB      27              0.0000000000
      3077        27  OSM       C4F            -7.7106451230      -23.3076551666       12.1410167373  MEMB      27              0.0000000000
      3078        27  OSM       H4F            -8.4573621087      -23.4890182016       12.9434147361  MEMB      27              0.0000000000
      3079        27  OSM       H4G            -7.3302624761      -24.2637577532       11.7220921886  MEMB      27              0.0000000000
      3080        27  OSM       C5F            -8.3120980963      -22.4620632188       10.9357753985  MEMB      27              0.0000000000
      3081        27  OSM       H5F            -8.5044377324      -21.4107082686       11.2390555477  MEMB      27              0.0000000000
      3082        27  OSM       H5G            -9.2741671612      -22.8704436224       10.5589864504  MEMB      27              0.0000000000
      3083        27  OSM       C6F            -7.3399218751      -22.2085330730        9.7681498516  MEMB      27              0.0000000000
      3084        27  OSM       H6F            -6.9679335526      -23.1916133398        9.4082910513  MEMB      27              0.0000000000
      3085        27  OSM       H6G            -6.4339624595      -21.6428811688       10.0740853662  MEMB      27              0.0000000000
      3086        27  OSM       C7F            -7.9990367631      -21.6239379115        8.5461432054  MEMB      27              0.0000000000
      3087        27  OSM       H7F            -8.6057893117      -20.7078617919        8.7103895146  MEMB      27              0.0000000000
      3088        27  OSM       H7G            -8.6423261950      -22.3911544186        8.0646051668  MEMB      27              0.0000000000
      3089        27  OSM       C8F            -6.9866308944      -21.1341349657        7.4207079844  MEMB      27              0.0000000000
      3090        27  OSM       H8F            -7.6956758454      -20.9372916850        6.5883438191  MEMB      27              0.0000000000
      3091        27  OSM       H8G            -6.4013480084      -22.0183171380        7.0890641672  MEMB      27              0.0000000000
      3092        27  OSM       C9F            -6.0161318064      -20.0493420266        7.7469243293  MEMB      27              0.0000000000
      3093        27  OSM       H9F            -4.9899078453      -20.3414027066        8.0144410175  MEMB      27              0.0000000000
      3094        27  OSM       C10F           -6.3087257014      -18.7504014859        7.4826777732  MEMB      27              0.0000000000
      3095        27  OSM       H10F           -5.4949685553      -18.0310283573        7.6567507594  MEMB      27              0.0000000000
      3096        27  OSM       C11F           -7.5911042581      -18.2336614194        6.8991635369  MEMB      27              0.0000000000
      3097        27  OSM       H11F           -8.2690599076      -17.9512473985        7.7327938317  MEMB      27              0.0000000000
      3098        27  OSM       H11G           -8.1247953895      -18.9720752678        6.2633652962  MEMB      27              0.0000000000
      3099        27  OSM       C12F           -7.3308439277      -16.9576748369        6.0545692505  MEMB      27              0.0000000000
      3100        27  OSM       H12F           -6.6286429045      -17.3149621659        5.2712549514  MEMB      27              0.0000000000
      3101        27  OSM       H12G           -6.7216486480      -16.2242062187        6.6248550645  MEMB      27              0.0000000000
      3102        27  OSM       C13F           -8.5649803295      -16.1919483823        5.5322381578  MEMB      27              0.0000000000
      3103        27  OSM       H13F           -9.0732223424      -15.5672079262        6.2975559215  MEMB      27              0.0000000000
      3104        27  OSM       H13G           -9.3175187199      -16.9902151836        5.3568041073  MEMB      27              0.0000000000
      3105        27  OSM       C14F           -8.3418977588      -15.3884674491        4.2093085159  MEMB      27              0.0000000000
      3106        27  OSM       H14F           -8.0021053165      -16.1562559675        3.4817366860  MEMB      27              0.0000000000
      3107        27  OSM       H14G           -7.5913996168      -14.5969950079        4.4206033426  MEMB      27              0.0000000000
      3108        27  OSM       C15F           -9.6096373005      -14.6307498937        3.6831681956  MEMB      27              0.0000000000
      3109        27  OSM       H15F           -9.1986374890      -13.9891548259        2.8746170798  MEMB      27              0.0000000000
      3110        27  OSM       H15G           -9.9785525688      -13.9004089186        4.4347174452  MEMB      27              0.0000000000
      3111        27  OSM       C16F          -10.8293044347      -15.4851391381        3.2437328364  MEMB      27              0.0000000000
      3112        27  OSM       H16F          -11.5363883804      -14.7617769777        2.7842781916  MEMB      27              0.0000000000
      3113        27  OSM       H16G          -11.1988060189      -15.9693781298        4.1728741365  MEMB      27              0.0000000000
      3114        27  OSM       C17F          -10.5053648456      -16.6733742528        2.2805691747  MEMB      27              0.0000000000
      3115        27  OSM       H17F           -9.7887666281      -17.3711873047        2.7641643770  MEMB      27              0.0000000000
      3116        27  OSM       H17G           -9.9521963355      -16.3079979606        1.3890379694  MEMB      27              0.0000000000
      3117        27  OSM       C18F          -11.6214804944      -17.4923591843        1.7293292148  MEMB      27              0.0000000000
      3118        27  OSM       H18F          -12.0757328277      -18.0890791647        2.5490250266  MEMB      27              0.0000000000
      3119        27  OSM       H18G          -11.2626753589      -18.1882585869        0.9411003845  MEMB      27              0.0000000000
      3120        27  OSM       H18H          -12.3490353783      -16.7732191709        1.2959434580  MEMB      27              0.0000000000
      3121        28  OSM       N               5.7502087618       21.5486159703       22.5128198808  MEMB      28              0.0000000000
      3122        28  OSM       C15             6.8440930809       22.4992395244       22.0548699994  MEMB      28              0.0000000000
      3123        28  OSM       H15A            7.1713615082       22.9455495999       22.9822871705  MEMB      28              0.0000000000
      3124        28  OSM       H15B            6.4556914826       23.2895506490       21.4296079457  MEMB      28              0.0000000000
      3125        28  OSM       H15C            7.6345482721       21.9322056920       21.5857714709  MEMB      28              0.0000000000
      3126        28  OSM       C14             6.1130041765       20.8712466266       23.7026936081  MEMB      28              0.0000000000
      3127        28  OSM       H14A            6.1837493760       21.6043358323       24.4926147364  MEMB      28              0.0000000000
      3128        28  OSM       H14B            7.0913075400       20.4249110547       23.6021590176  MEMB      28              0.0000000000
      3129        28  OSM       H14C            5.3788996496       20.1052637616       23.9045867119  MEMB      28              0.0000000000
      3130        28  OSM       C13             4.4925386607       22.3953780809       22.8221509693  MEMB      28              0.0000000000
      3131        28  OSM       H13A            3.6971373304       21.6781766429       22.9612881697  MEMB      28              0.0000000000
      3132        28  OSM       H13B            4.2430223730       23.2241369621       22.1761631497  MEMB      28              0.0000000000
      3133        28  OSM       H13C            4.6953878822       22.8641461885       23.7737331632  MEMB      28              0.0000000000
      3134        28  OSM       C12             5.4857519890       20.6031187047       21.3817446601  MEMB      28              0.0000000000
      3135        28  OSM       H12A            5.3665143109       21.1294458205       20.4462436273  MEMB      28              0.0000000000
      3136        28  OSM       H12B            4.5189670279       20.1800473195       21.6113914221  MEMB      28              0.0000000000
      3137        28  OSM       C11             6.4816846990       19.4994954724       21.0530671131  MEMB      28              0.0000000000
      3138        28  OSM       H11A            5.9778324529       18.9859787397       20.2064535171  MEMB      28              0.0000000000
      3139        28  OSM       H11B            6.6310826770       18.7682996819       21.8760822634  MEMB      28              0.0000000000
      3140        28  OSM       P               8.6161038284       19.5094394887       19.4932175217  MEMB      28              0.0000000000
      3141        28  OSM       O13             9.7303777248       20.4573829216       19.2540881405  MEMB      28              0.0000000000
      3142        28  OSM       O14             9.0421002147       18.1521424275       19.7253285865  MEMB      28              0.0000000000
      3143        28  OSM       O11             7.6509886803       19.4429911200       18.2741000280  MEMB      28              0.0000000000
      3144        28  OSM       O12             7.7180339038       20.1133578629       20.7259194927  MEMB      28              0.0000000000
      3145        28  OSM       C1S             8.1049527594       18.9669354572       17.0008243601  MEMB      28              0.0000000000
      3146        28  OSM       H1S             7.9853100080       17.8633474066       16.9549986640  MEMB      28              0.0000000000
      3147        28  OSM       H1T             9.1858703919       19.1463957937       16.8171604430  MEMB      28              0.0000000000
      3148        28  OSM       NF              8.1077326751       20.8441460164       15.3813551116  MEMB      28              0.0000000000
      3149        28  OSM       HNF             8.0082925824       21.7046983555       15.8748836453  MEMB      28              0.0000000000
      3150        28  OSM       C2S             7.3059926608       19.7367113532       15.9060489162  MEMB      28              0.0000000000
      3151        28  OSM       H2S             7.0419224988       19.0514453142       15.0723834006  MEMB      28              0.0000000000
      3152        28  OSM       C3S             5.9179974196       20.2872855044       16.3998679362  MEMB      28              0.0000000000
      3153        28  OSM       H3S             6.1283802581       21.1751206784       17.0337520935  MEMB      28              0.0000000000
      3154        28  OSM       O3              5.2298491468       19.3470025999       17.2700666402  MEMB      28              0.0000000000
      3155        28  OSM       HO3             5.8026230393       18.6085381339       17.4896121730  MEMB      28              0.0000000000
      3156        28  OSM       C4S             5.0246825194       20.5782890451       15.2779841855  MEMB      28              0.0000000000
      3157        28  OSM       H4S             4.9642887322       21.6531117243       15.0519117556  MEMB      28              0.0000000000
      3158        28  OSM       C5S             4.1792546780       19.7164872747       14.5480184507  MEMB      28              0.0000000000
      3159        28  OSM       H5S             4.0766352804       18.6622330325       14.8446955009  MEMB      28              0.0000000000
      3160        28  OSM       C6S             3.3369131310       20.2246243437       13.4184809152  MEMB      28              0.0000000000
      3161        28  OSM       H6S             2.3622132449       20.5716544018       13.8232660144  MEMB      28              0.0000000000
      3162        28  OSM       H6T             2.9980294094       19.3531567478       12.8184618841  MEMB      28              0.0000000000
      3163        28  OSM       C7S             4.0646910256       21.2465246114       12.4201387180  MEMB      28              0.0000000000
      3164        28  OSM       H7S             4.4863661543       22.0545723318       13.0554102311  MEMB      28              0.0000000000
      3165        28  OSM       H7T             3.2754377960       21.8389903773       11.9098602069  MEMB      28              0.0000000000
      3166        28  OSM       C8S             4.9411004690       20.6927532028       11.3206308166  MEMB      28              0.0000000000
      3167        28  OSM       H8S             5.7940393796       20.1664774763       11.8000572208  MEMB      28              0.0000000000
      3168        28  OSM       H8T             5.3329206500       21.5386957832       10.7163300165  MEMB      28              0.0000000000
      3169        28  OSM       C9S             4.1111511685       19.6707895845       10.3683885198  MEMB      28              0.0000000000
      3170        28  OSM       H9S             3.0093948552       19.8129020298       10.3523327839  MEMB      28              0.0000000000
      3171        28  OSM       H9T             4.2216639785       18.7210747093       10.9342069166  MEMB      28              0.0000000000
      3172        28  OSM       C10S            4.5822016873       19.7186766886        8.9135312718  MEMB      28              0.0000000000
      3173        28  OSM       H10S            5.6851034050       19.6558358464        8.7952951382  MEMB      28              0.0000000000
      3174        28  OSM       H10T            4.3276608424       20.5876973737        8.2698449337  MEMB      28              0.0000000000
      3175        28  OSM       C11S            4.0422196169       18.5611248340        8.1772403108  MEMB      28              0.0000000000
      3176        28  OSM       H11S            2.9712626275       18.7737887108        7.9719454977  MEMB      28              0.0000000000
      3177        28  OSM       H11T            4.1655412331       17.5211683559        8.5481900410  MEMB      28              0.0000000000
      3178        28  OSM       C12S            4.7661588045       18.3476759420        6.8510055569  MEMB      28              0.0000000000
      3179        28  OSM       H12S            5.5201227634       17.5329670853        6.8969279699  MEMB      28              0.0000000000
      3180        28  OSM       H12T            5.3262843533       19.2699678142        6.5865093115  MEMB      28              0.0000000000
      3181        28  OSM       C13S            3.9001864688       18.1907127469        5.6140539102  MEMB      28              0.0000000000
      3182        28  OSM       H13S            3.4107733620       19.1511023778        5.3448932210  MEMB      28              0.0000000000
      3183        28  OSM       H13T            3.1064230099       17.5068196555        5.9835811344  MEMB      28              0.0000000000
      3184        28  OSM       C14S            4.7183364217       17.6352944734        4.4455086238  MEMB      28              0.0000000000
      3185        28  OSM       H14S            3.9473295788       17.4791030836        3.6609865419  MEMB      28              0.0000000000
      3186        28  OSM       H14T            5.0983353137       16.6030685123        4.6018124891  MEMB      28              0.0000000000
      3187        28  OSM       C15S            5.7749343655       18.6665353985        3.9074539804  MEMB      28              0.0000000000
      3188        28  OSM       H15S            6.2909483664       19.1054620936        4.7880189386  MEMB      28              0.0000000000
      3189        28  OSM       H15T            5.2444482758       19.5243244240        3.4415094572  MEMB      28              0.0000000000
      3190        28  OSM       C16S            6.7420570592       18.0336279820        2.9534707500  MEMB      28              0.0000000000
      3191        28  OSM       H16S            6.1618732340       17.3619879395        2.2851825657  MEMB      28              0.0000000000
      3192        28  OSM       H16T            7.4569340888       17.3642998102        3.4781337330  MEMB      28              0.0000000000
      3193        28  OSM       C17S            7.5846328589       19.0588099253        2.1776209159  MEMB      28              0.0000000000
      3194        28  OSM       H17S            8.6019394560       18.6734874595        1.9519337181  MEMB      28              0.0000000000
      3195        28  OSM       H17T            7.8881932687       19.9716208902        2.7334519850  MEMB      28              0.0000000000
      3196        28  OSM       C18S            6.8188605676       19.4697338865        0.9029083226  MEMB      28              0.0000000000
      3197        28  OSM       H18S            6.6202695680       18.6630745188        0.1652204167  MEMB      28              0.0000000000
      3198        28  OSM       H18T            7.5188725474       20.2466664976        0.5278348473  MEMB      28              0.0000000000
      3199        28  OSM       H18U            5.8474524034       19.9716634309        1.0997684922  MEMB      28              0.0000000000
      3200        28  OSM       C1F             9.1258729333       20.6754916487       14.5235090863  MEMB      28              0.0000000000
      3201        28  OSM       OF              9.2333479163       19.7465876696       13.7024263218  MEMB      28              0.0000000000
      3202        28  OSM       C2F            10.2904494273       21.4827086849       14.8240558051  MEMB      28              0.0000000000
      3203        28  OSM       H2F            10.9659582938       20.9064400950       15.4918305264  MEMB      28              0.0000000000
      3204        28  OSM       H2G             9.9965555762       22.3680993279       15.4274053304  MEMB      28              0.0000000000
      3205        28  OSM       C3F            10.8606511728       22.0882090412       13.4321163427  MEMB      28              0.0000000000
      3206        28  OSM       H3F            11.2057396254       21.2928145752       12.7374347252  MEMB      28              0.0000000000
      3207        28  OSM       H3G            11.7334256883       22.6958986097       13.7535188165  MEMB      28              0.0000000000
      3208        28  OSM       C4F             9.9756285137       22.8452035560       12.4951952406  MEMB      28              0.0000000000
      3209        28  OSM       H4F             9.5031572618       23.6773650846       13.0596417821  MEMB      28              0.0000000000
      3210        28  OSM       H4G             9.2108294285       22.1929127372       12.0219930998  MEMB      28              0.0000000000
      3211        28  OSM       C5F            10.5696470132       23.7424719235       11.3245776211  MEMB      28              0.0000000000
      3212        28  OSM       H5F            10.9396528119       23.1074261373       10.4914307718  MEMB      28              0.0000000000
      3213        28  OSM       H5G            11.4781647937       24.2882319111       11.6578384935  MEMB      28              0.0000000000
      3214        28  OSM       C6F             9.5467665303       24.6952770247       10.7134671833  MEMB      28              0.0000000000
      3215        28  OSM       H6F            10.0476141979       25.3531322595        9.9713768676  MEMB      28              0.0000000000
      3216        28  OSM       H6G             8.9984826222       25.3834023522       11.3918398627  MEMB      28              0.0000000000
      3217        28  OSM       C7F             8.3586662064       23.9563742341        9.9962648709  MEMB      28              0.0000000000
      3218        28  OSM       H7F             7.6688410816       24.7161014779        9.5704982422  MEMB      28              0.0000000000
      3219        28  OSM       H7G             7.7874546622       23.3926616878       10.7645525238  MEMB      28              0.0000000000
      3220        28  OSM       C8F             8.8870259054       23.0640465634        8.8783548051  MEMB      28              0.0000000000
      3221        28  OSM       H8F             9.3790333297       22.1737760529        9.3251983131  MEMB      28              0.0000000000
      3222        28  OSM       H8G             9.5948876392       23.5878003400        8.2009075112  MEMB      28              0.0000000000
      3223        28  OSM       C9F             7.7260100295       22.5754538121        8.0014578332  MEMB      28              0.0000000000
      3224        28  OSM       H9F             6.9353815827       21.9946473305        8.4990227564  MEMB      28              0.0000000000
      3225        28  OSM       C10F            7.5869543118       22.6228368935        6.6652619849  MEMB      28              0.0000000000
      3226        28  OSM       H10F            6.7782863392       22.1781218541        6.0666935269  MEMB      28              0.0000000000
      3227        28  OSM       C11F            8.6252364304       23.2320828562        5.7168152445  MEMB      28              0.0000000000
      3228        28  OSM       H11F            9.6510677721       23.2122238717        6.1429562043  MEMB      28              0.0000000000
      3229        28  OSM       H11G            8.3404415175       24.2960316732        5.5711248181  MEMB      28              0.0000000000
      3230        28  OSM       C12F            8.6252726164       22.6530266275        4.2331591759  MEMB      28              0.0000000000
      3231        28  OSM       H12F            7.8117231188       21.9555205658        3.9399966902  MEMB      28              0.0000000000
      3232        28  OSM       H12G            9.5252072290       22.0020864339        4.2599071091  MEMB      28              0.0000000000
      3233        28  OSM       C13F            8.9186381683       23.7354209658        3.1498784322  MEMB      28              0.0000000000
      3234        28  OSM       H13F            9.9465633619       24.1017982437        3.3583456586  MEMB      28              0.0000000000
      3235        28  OSM       H13G            8.1916697059       24.5639654288        3.2889896305  MEMB      28              0.0000000000
      3236        28  OSM       C14F            8.8750833055       23.2864082186        1.6669600140  MEMB      28              0.0000000000
      3237        28  OSM       H14F            7.9135013664       22.7673646984        1.4662740879  MEMB      28              0.0000000000
      3238        28  OSM       H14G            9.7266535134       22.6040902506        1.4581732502  MEMB      28              0.0000000000
      3239        28  OSM       C15F            9.1750710575       24.4273631017        0.6524007893  MEMB      28              0.0000000000
      3240        28  OSM       H15F           10.0672647770       24.8792348573        1.1362632158  MEMB      28              0.0000000000
      3241        28  OSM       H15G            8.3451533908       25.1473368662        0.4874882437  MEMB      28              0.0000000000
      3242        28  OSM       C16F            9.7032644317       23.9039971076       -0.6967981087  MEMB      28              0.0000000000
      3243        28  OSM       H16F            8.8404967189       23.2958829445       -1.0434240274  MEMB      28              0.0000000000
      3244        28  OSM       H16G           10.6444658414       23.3209959852       -0.6042197508  MEMB      28              0.0000000000
      3245        28  OSM       C17F            9.9853270470       24.9762450853       -1.7454132449  MEMB      28              0.0000000000
      3246        28  OSM       H17F           10.5858008571       24.5310699678       -2.5673450667  MEMB      28              0.0000000000
      3247        28  OSM       H17G           10.5224704474       25.7850339906       -1.2053594739  MEMB      28              0.0000000000
      3248        28  OSM       C18F            8.7924525294       25.7209817368       -2.3291649215  MEMB      28              0.0000000000
      3249        28  OSM       H18F            9.0143948488       26.5618658748       -3.0205230048  MEMB      28              0.0000000000
      3250        28  OSM       H18G            8.2615345209       26.1503104294       -1.4527378577  MEMB      28              0.0000000000
      3251        28  OSM       H18H            8.2591373818       24.9415481652       -2.9142960788  MEMB      28              0.0000000000
      3252        29  OSM       N             -11.1219554058       18.7317361935       21.7664002567  MEMB      29              0.0000000000
      3253        29  OSM       C15           -12.1630192186       17.6796964109       21.9965765598  MEMB      29              0.0000000000
      3254        29  OSM       H15A          -12.4550794024       17.3566854383       21.0082624928  MEMB      29              0.0000000000
      3255        29  OSM       H15B          -12.9874079533       18.2045247058       22.4562919523  MEMB      29              0.0000000000
      3256        29  OSM       H15C          -11.7544234540       16.9499945953       22.6799393339  MEMB      29              0.0000000000
      3257        29  OSM       C14           -10.4645195034       18.9758665327       23.1004180455  MEMB      29              0.0000000000
      3258        29  OSM       H14A          -11.0516454481       19.5163212452       23.8281486437  MEMB      29              0.0000000000
      3259        29  OSM       H14B           -9.5906712308       19.5947642426       22.9598664420  MEMB      29              0.0000000000
      3260        29  OSM       H14C          -10.1117983347       18.0427428147       23.5142634481  MEMB      29              0.0000000000
      3261        29  OSM       C13           -10.1087391020       18.2824979619       20.7820360398  MEMB      29              0.0000000000
      3262        29  OSM       H13A           -9.6214225223       17.4783873424       21.3133818399  MEMB      29              0.0000000000
      3263        29  OSM       H13B           -9.3325179885       19.0284720680       20.6959915959  MEMB      29              0.0000000000
      3264        29  OSM       H13C          -10.4359785198       18.0462337558       19.7802908489  MEMB      29              0.0000000000
      3265        29  OSM       C12           -11.7280553838       20.0546499634       21.2147137173  MEMB      29              0.0000000000
      3266        29  OSM       H12A          -12.6963139801       20.1937076704       21.6724673929  MEMB      29              0.0000000000
      3267        29  OSM       H12B          -12.0408819191       19.8416967162       20.2031849439  MEMB      29              0.0000000000
      3268        29  OSM       C11           -10.9158755424       21.3123692804       21.1366125710  MEMB      29              0.0000000000
      3269        29  OSM       H11A          -10.7012568325       21.5726606058       22.1951531590  MEMB      29              0.0000000000
      3270        29  OSM       H11B          -11.5068025523       22.1609591229       20.7303840689  MEMB      29              0.0000000000
      3271        29  OSM       P              -8.4687561156       22.0256467011       20.2617857749  MEMB      29              0.0000000000
      3272        29  OSM       O13            -8.6257353254       23.2329652601       21.0534878650  MEMB      29              0.0000000000
      3273        29  OSM       O14            -7.2348064601       21.2626539041       20.5545217292  MEMB      29              0.0000000000
      3274        29  OSM       O11            -8.5750951723       22.2538082201       18.7033425470  MEMB      29              0.0000000000
      3275        29  OSM       O12            -9.7351964826       21.0837101698       20.4301048951  MEMB      29              0.0000000000
      3276        29  OSM       C1S            -8.7101510790       21.1779534005       17.7412328537  MEMB      29              0.0000000000
      3277        29  OSM       H1S            -9.6992113741       20.7043428087       17.9194846417  MEMB      29              0.0000000000
      3278        29  OSM       H1T            -7.8908815772       20.4381416095       17.8669194378  MEMB      29              0.0000000000
      3279        29  OSM       NF             -8.9253767604       20.5511613303       15.4194659863  MEMB      29              0.0000000000
      3280        29  OSM       HNF            -8.1265962595       20.4629020535       14.8294075136  MEMB      29              0.0000000000
      3281        29  OSM       C2S            -8.7672540015       21.6873225518       16.3058219579  MEMB      29              0.0000000000
      3282        29  OSM       H2S            -9.6602827273       22.3273024260       16.1407568055  MEMB      29              0.0000000000
      3283        29  OSM       C3S            -7.5192734490       22.4995666108       15.8635658410  MEMB      29              0.0000000000
      3284        29  OSM       H3S            -6.5744414460       21.9593485189       16.0866744987  MEMB      29              0.0000000000
      3285        29  OSM       O3             -7.5246666097       23.6985245681       16.5890827474  MEMB      29              0.0000000000
      3286        29  OSM       HO3            -8.2363632633       23.5916443331       17.2244286299  MEMB      29              0.0000000000
      3287        29  OSM       C4S            -7.4689824884       22.7512565154       14.3675769852  MEMB      29              0.0000000000
      3288        29  OSM       H4S            -8.4892043009       22.8725864381       13.9746054570  MEMB      29              0.0000000000
      3289        29  OSM       C5S            -6.4111307384       22.7776194657       13.5531055541  MEMB      29              0.0000000000
      3290        29  OSM       H5S            -5.3904023312       22.5902204767       13.9177901876  MEMB      29              0.0000000000
      3291        29  OSM       C6S            -6.3176960972       22.9967311383       12.0568661018  MEMB      29              0.0000000000
      3292        29  OSM       H6S            -5.2921601231       23.3588955599       11.8300758041  MEMB      29              0.0000000000
      3293        29  OSM       H6T            -7.0724799169       23.7618344783       11.7753714802  MEMB      29              0.0000000000
      3294        29  OSM       C7S            -6.4839094024       21.7819127408       11.1095365861  MEMB      29              0.0000000000
      3295        29  OSM       H7S            -5.9421871089       20.9320922792       11.5771506665  MEMB      29              0.0000000000
      3296        29  OSM       H7T            -6.0338276314       22.0064607423       10.1189170167  MEMB      29              0.0000000000
      3297        29  OSM       C8S            -7.9727395235       21.5186160193       10.9344851570  MEMB      29              0.0000000000
      3298        29  OSM       H8S            -8.5580952344       22.3989897562       10.5929862638  MEMB      29              0.0000000000
      3299        29  OSM       H8T            -8.2835150027       21.2035695983       11.9535464422  MEMB      29              0.0000000000
      3300        29  OSM       C9S            -8.1408624836       20.4279935591        9.8637498963  MEMB      29              0.0000000000
      3301        29  OSM       H9S            -9.2377570275       20.2842710060        9.9661583146  MEMB      29              0.0000000000
      3302        29  OSM       H9T            -7.5701076897       19.5474200343       10.2286468841  MEMB      29              0.0000000000
      3303        29  OSM       C10S           -7.9058834657       20.8267458433        8.3184213922  MEMB      29              0.0000000000
      3304        29  OSM       H10S           -6.8756590078       21.1612384059        8.0712909094  MEMB      29              0.0000000000
      3305        29  OSM       H10T           -8.4250122971       21.7802315333        8.0824309265  MEMB      29              0.0000000000
      3306        29  OSM       C11S           -8.4640343426       19.6594035109        7.4432794521  MEMB      29              0.0000000000
      3307        29  OSM       H11S           -8.4753942647       20.0826399814        6.4161171862  MEMB      29              0.0000000000
      3308        29  OSM       H11T           -9.5509938675       19.6060936511        7.6668813278  MEMB      29              0.0000000000
      3309        29  OSM       C12S           -7.5942156034       18.4084116771        7.4294941710  MEMB      29              0.0000000000
      3310        29  OSM       H12S           -7.4339862655       17.8385292309        8.3696432677  MEMB      29              0.0000000000
      3311        29  OSM       H12T           -6.5676499080       18.7441705944        7.1692057851  MEMB      29              0.0000000000
      3312        29  OSM       C13S           -8.0621698623       17.3726424829        6.3116343543  MEMB      29              0.0000000000
      3313        29  OSM       H13S           -7.4242696369       16.4637348899        6.2756974364  MEMB      29              0.0000000000
      3314        29  OSM       H13T           -8.0368688397       17.8072211440        5.2894693069  MEMB      29              0.0000000000
      3315        29  OSM       C14S           -9.5635861110       16.9528097625        6.4269201857  MEMB      29              0.0000000000
      3316        29  OSM       H14S          -10.2592549155       17.8178979801        6.4715118423  MEMB      29              0.0000000000
      3317        29  OSM       H14T           -9.5738693109       16.3121159580        7.3345143782  MEMB      29              0.0000000000
      3318        29  OSM       C15S          -10.1936045698       16.2023599168        5.2622197258  MEMB      29              0.0000000000
      3319        29  OSM       H15S          -11.0214294324       15.5459756294        5.6060028091  MEMB      29              0.0000000000
      3320        29  OSM       H15T           -9.3837400977       15.5347271509        4.8979289159  MEMB      29              0.0000000000
      3321        29  OSM       C16S          -10.5628419458       17.1258312578        4.1113182497  MEMB      29              0.0000000000
      3322        29  OSM       H16S           -9.5504235021       17.3942004408        3.7407673449  MEMB      29              0.0000000000
      3323        29  OSM       H16T          -11.0625339693       18.0556948465        4.4577048660  MEMB      29              0.0000000000
      3324        29  OSM       C17S          -11.3422110088       16.4798592581        2.9874024916  MEMB      29              0.0000000000
      3325        29  OSM       H17S          -10.9634555477       15.4967594234        2.6347265315  MEMB      29              0.0000000000
      3326        29  OSM       H17T          -11.3362264981       17.2162812822        2.1555551449  MEMB      29              0.0000000000
      3327        29  OSM       C18S          -12.8203931961       16.2246017598        3.3390962953  MEMB      29              0.0000000000
      3328        29  OSM       H18S          -13.4014434646       17.0782903094        3.7488738999  MEMB      29              0.0000000000
      3329        29  OSM       H18T          -12.9990408703       15.3180036845        3.9559318327  MEMB      29              0.0000000000
      3330        29  OSM       H18U          -13.3065242198       15.8656775692        2.4068037519  MEMB      29              0.0000000000
      3331        29  OSM       C1F            -9.9085455080       19.5655920507       15.4963295779  MEMB      29              0.0000000000
      3332        29  OSM       OF            -10.9501236577       19.6022248128       16.1505127204  MEMB      29              0.0000000000
      3333        29  OSM       C2F            -9.6655512592       18.3904508836       14.4832556260  MEMB      29              0.0000000000
      3334        29  OSM       H2F            -8.8054019755       17.8791873565       14.9660329753  MEMB      29              0.0000000000
      3335        29  OSM       H2G            -9.3674427918       18.6664205181       13.4491893719  MEMB      29              0.0000000000
      3336        29  OSM       C3F           -10.8470003901       17.4393045918       14.5034986269  MEMB      29              0.0000000000
      3337        29  OSM       H3F           -11.0053815283       17.2925233319       15.5933110412  MEMB      29              0.0000000000
      3338        29  OSM       H3G           -10.6946581610       16.4443269231       14.0332515446  MEMB      29              0.0000000000
      3339        29  OSM       C4F           -12.0609711618       17.9885334389       13.7929356589  MEMB      29              0.0000000000
      3340        29  OSM       H4F           -12.0695118861       19.0766457381       14.0171225675  MEMB      29              0.0000000000
      3341        29  OSM       H4G           -12.9210349097       17.4287318496       14.2186510560  MEMB      29              0.0000000000
      3342        29  OSM       C5F           -12.0146173710       17.8285378688       12.3226137987  MEMB      29              0.0000000000
      3343        29  OSM       H5F           -11.7004441299       16.8012603506       12.0392117109  MEMB      29              0.0000000000
      3344        29  OSM       H5G           -11.2077426110       18.5354191685       12.0334893768  MEMB      29              0.0000000000
      3345        29  OSM       C6F           -13.3008630852       18.2857517548       11.6864352451  MEMB      29              0.0000000000
      3346        29  OSM       H6F           -13.5843297589       19.2505000874       12.1589060747  MEMB      29              0.0000000000
      3347        29  OSM       H6G           -14.0452424500       17.4667887341       11.7840069246  MEMB      29              0.0000000000
      3348        29  OSM       C7F           -13.1227076879       18.6320204809       10.1787963480  MEMB      29              0.0000000000
      3349        29  OSM       H7F           -13.7775113717       18.0010523137        9.5404926714  MEMB      29              0.0000000000
      3350        29  OSM       H7G           -12.0838010632       18.4090401698        9.8543366841  MEMB      29              0.0000000000
      3351        29  OSM       C8F           -13.4276652084       20.0895743742        9.8139658504  MEMB      29              0.0000000000
      3352        29  OSM       H8F           -14.4139469717       20.4204132253       10.2039845750  MEMB      29              0.0000000000
      3353        29  OSM       H8G           -13.5417005390       20.2788588656        8.7251644104  MEMB      29              0.0000000000
      3354        29  OSM       C9F           -12.2775848968       21.0217517906       10.2707918433  MEMB      29              0.0000000000
      3355        29  OSM       H9F           -11.8238703492       20.8606606971       11.2598276519  MEMB      29              0.0000000000
      3356        29  OSM       C10F          -11.8015996777       22.1128444309        9.5557259296  MEMB      29              0.0000000000
      3357        29  OSM       H10F          -10.9724328685       22.6589735730       10.0292509567  MEMB      29              0.0000000000
      3358        29  OSM       C11F          -12.2445744988       22.6962725953        8.2515516053  MEMB      29              0.0000000000
      3359        29  OSM       H11F          -12.7090162613       23.6824983768        8.4659663946  MEMB      29              0.0000000000
      3360        29  OSM       H11G          -13.1144758040       22.1723289708        7.8009129488  MEMB      29              0.0000000000
      3361        29  OSM       C12F          -11.0380885467       22.8615369135        7.2684503486  MEMB      29              0.0000000000
      3362        29  OSM       H12F          -10.5920012148       21.8475638034        7.1836835098  MEMB      29              0.0000000000
      3363        29  OSM       H12G          -10.3805502159       23.6142242714        7.7536575727  MEMB      29              0.0000000000
      3364        29  OSM       C13F          -11.6375042793       23.2872725901        5.7961224214  MEMB      29              0.0000000000
      3365        29  OSM       H13F          -11.9229983131       24.3579194830        5.8769242481  MEMB      29              0.0000000000
      3366        29  OSM       H13G          -12.4256566407       22.5430916227        5.5525430810  MEMB      29              0.0000000000
      3367        29  OSM       C14F          -10.5953462520       23.0553292867        4.7046035041  MEMB      29              0.0000000000
      3368        29  OSM       H14F           -9.5810558992       23.1883982898        5.1379956634  MEMB      29              0.0000000000
      3369        29  OSM       H14G          -10.8133536528       23.6578381369        3.7969812136  MEMB      29              0.0000000000
      3370        29  OSM       C15F          -10.5315703761       21.5465243650        4.2657518515  MEMB      29              0.0000000000
      3371        29  OSM       H15F          -11.5675102002       21.2141729564        4.0406031173  MEMB      29              0.0000000000
      3372        29  OSM       H15G          -10.2479234632       21.0286523517        5.2068544771  MEMB      29              0.0000000000
      3373        29  OSM       C16F           -9.5004935252       21.3731188957        3.0931961041  MEMB      29              0.0000000000
      3374        29  OSM       H16F           -9.4494759611       20.2961667395        2.8250674474  MEMB      29              0.0000000000
      3375        29  OSM       H16G           -8.4896243217       21.6558023637        3.4572776003  MEMB      29              0.0000000000
      3376        29  OSM       C17F           -9.8494062834       22.2482106031        1.8387492875  MEMB      29              0.0000000000
      3377        29  OSM       H17F           -9.4866679064       23.2480874065        2.1596658799  MEMB      29              0.0000000000
      3378        29  OSM       H17G          -10.9492908359       22.2538567712        1.6820858738  MEMB      29              0.0000000000
      3379        29  OSM       C18F           -9.3085214762       21.9898751566        0.4722769048  MEMB      29              0.0000000000
      3380        29  OSM       H18F           -9.7333644008       22.5523433300       -0.3864779664  MEMB      29              0.0000000000
      3381        29  OSM       H18G           -9.4448271564       20.9468127261        0.1148380078  MEMB      29              0.0000000000
      3382        29  OSM       H18H           -8.1987946312       22.0378106094        0.4952796180  MEMB      29              0.0000000000
      3383        30  SOPE      N             -21.5452849538        1.0956744074       23.5247471020  MEMB      30              0.0000000000
      3384        30  SOPE      HN1           -21.5321200505        0.9243966665       24.5504619283  MEMB      30              0.0000000000
      3385        30  SOPE      HN2           -21.4488622806        0.2215273166       22.9696169721  MEMB      30              0.0000000000
      3386        30  SOPE      HN3           -20.7058364066        1.6648514066       23.2946087339  MEMB      30              0.0000000000
      3387        30  SOPE      C12           -22.8053470513        1.7734506835       23.2159155619  MEMB      30              0.0000000000
      3388        30  SOPE      H12A          -22.5131110809        2.8450970313       23.1937069043  MEMB      30              0.0000000000
      3389        30  SOPE      H12B          -23.5656798294        1.4894784739       23.9745821166  MEMB      30              0.0000000000
      3390        30  SOPE      C11           -23.4060941537        1.4230878064       21.9439572917  MEMB      30              0.0000000000
      3391        30  SOPE      H11A          -24.3660972186        1.9556784359       21.7734807029  MEMB      30              0.0000000000
      3392        30  SOPE      H11B          -23.6354099450        0.3368083949       21.9023353611  MEMB      30              0.0000000000
      3393        30  SOPE      P             -21.9695980517        0.8975370171       19.8637298222  MEMB      30              0.0000000000
      3394        30  SOPE      O13           -21.1932125437       -0.0908126556       20.6255071267  MEMB      30              0.0000000000
      3395        30  SOPE      O14           -21.1561624238        1.7029128711       18.9233687355  MEMB      30              0.0000000000
      3396        30  SOPE      O12           -22.6424970117        1.9275122239       20.8403819235  MEMB      30              0.0000000000
      3397        30  SOPE      O11           -23.1287917732        0.2894683353       19.0623924318  MEMB      30              0.0000000000
      3398        30  SOPE      C1            -24.3814907057        0.9686582964       18.8725693731  MEMB      30              0.0000000000
      3399        30  SOPE      HA            -24.3205543443        2.0542037205       19.1010398169  MEMB      30              0.0000000000
      3400        30  SOPE      HB            -25.0928690732        0.4000485559       19.5089219876  MEMB      30              0.0000000000
      3401        30  SOPE      C2            -24.8656788116        0.8166602422       17.3951152377  MEMB      30              0.0000000000
      3402        30  SOPE      HS            -25.2972257380       -0.1994097359       17.2698558530  MEMB      30              0.0000000000
      3403        30  SOPE      O21           -23.7041859093        1.0227634716       16.5528593720  MEMB      30              0.0000000000
      3404        30  SOPE      C21           -23.3492836805        0.1033750574       15.6508455567  MEMB      30              0.0000000000
      3405        30  SOPE      O22           -24.0317501107       -0.8923706856       15.4054159955  MEMB      30              0.0000000000
      3406        30  SOPE      C22           -22.0606590523        0.4414819913       14.8991250296  MEMB      30              0.0000000000
      3407        30  SOPE      H2R           -21.6360235841        1.3901429119       15.2916148084  MEMB      30              0.0000000000
      3408        30  SOPE      H2S           -22.3096307855        0.6023810500       13.8284028564  MEMB      30              0.0000000000
      3409        30  SOPE      C3            -25.9382300348        1.9406563304       17.1019008680  MEMB      30              0.0000000000
      3410        30  SOPE      HX            -25.8040734481        2.8713031037       17.6936946565  MEMB      30              0.0000000000
      3411        30  SOPE      HY            -26.8897110648        1.5821701742       17.5496649248  MEMB      30              0.0000000000
      3412        30  SOPE      O31           -26.0003245853        2.1528525142       15.6897210400  MEMB      30              0.0000000000
      3413        30  SOPE      C31           -25.5530979256        3.2086722219       15.1603622854  MEMB      30              0.0000000000
      3414        30  SOPE      O32           -25.0777660039        4.1967542432       15.7306153212  MEMB      30              0.0000000000
      3415        30  SOPE      C32           -25.6893430411        3.0976469424       13.6380402924  MEMB      30              0.0000000000
      3416        30  SOPE      H2X           -26.7211337972        3.3925375451       13.3503450135  MEMB      30              0.0000000000
      3417        30  SOPE      H2Y           -25.5606312987        2.0269299399       13.3709838275  MEMB      30              0.0000000000
      3418        30  SOPE      C23           -20.9468288217       -0.6730224523       14.8697474312  MEMB      30              0.0000000000
      3419        30  SOPE      H3R           -20.4788521852       -0.8272568647       15.8655037281  MEMB      30              0.0000000000
      3420        30  SOPE      H3S           -20.1246765800       -0.1937838548       14.2964089582  MEMB      30              0.0000000000
      3421        30  SOPE      C24           -21.3538336538       -1.9552605941       14.1692980261  MEMB      30              0.0000000000
      3422        30  SOPE      H4R           -20.5183810429       -2.6811829657       14.2661320837  MEMB      30              0.0000000000
      3423        30  SOPE      H4S           -22.1386391893       -2.4348237239       14.7925315843  MEMB      30              0.0000000000
      3424        30  SOPE      C25           -21.7301055885       -1.8243424971       12.6530221379  MEMB      30              0.0000000000
      3425        30  SOPE      H5R           -22.3908087617       -0.9667934314       12.4032188720  MEMB      30              0.0000000000
      3426        30  SOPE      H5S           -20.7967144161       -1.6072324376       12.0909149878  MEMB      30              0.0000000000
      3427        30  SOPE      C26           -22.2928276541       -3.1772052329       12.1622148199  MEMB      30              0.0000000000
      3428        30  SOPE      H6R           -21.4794936105       -3.9338671192       12.1457244664  MEMB      30              0.0000000000
      3429        30  SOPE      H6S           -22.9637684791       -3.5787256532       12.9514806680  MEMB      30              0.0000000000
      3430        30  SOPE      C27           -22.8062395461       -3.1403185990       10.7613020977  MEMB      30              0.0000000000
      3431        30  SOPE      H7R           -21.9637157161       -2.9321959661       10.0676455685  MEMB      30              0.0000000000
      3432        30  SOPE      H7S           -23.1329814740       -4.1565295004       10.4532826222  MEMB      30              0.0000000000
      3433        30  SOPE      C28           -24.1396774907       -2.2392942545       10.6461345967  MEMB      30              0.0000000000
      3434        30  SOPE      H8R           -24.7759747198       -2.4938595923       11.5205728281  MEMB      30              0.0000000000
      3435        30  SOPE      H8S           -23.8668761660       -1.1845786752       10.8640237549  MEMB      30              0.0000000000
      3436        30  SOPE      C29           -24.7825101920       -2.3784071632        9.2866043666  MEMB      30              0.0000000000
      3437        30  SOPE      H91           -25.1691900113       -3.3708096862        9.0116211380  MEMB      30              0.0000000000
      3438        30  SOPE      C210          -24.7900718789       -1.4188326395        8.3644511492  MEMB      30              0.0000000000
      3439        30  SOPE      H101          -25.2115217617       -1.7775574716        7.4138211496  MEMB      30              0.0000000000
      3440        30  SOPE      C211          -24.2336440344       -0.0220274265        8.3518298488  MEMB      30              0.0000000000
      3441        30  SOPE      H11R          -23.7268278822        0.1683283665        9.3219957375  MEMB      30              0.0000000000
      3442        30  SOPE      H11S          -25.0778645285        0.6347526421        8.0514083117  MEMB      30              0.0000000000
      3443        30  SOPE      C212          -23.0411108236        0.1597880418        7.3779669829  MEMB      30              0.0000000000
      3444        30  SOPE      H12R          -22.4509360876        1.0857296540        7.5472218304  MEMB      30              0.0000000000
      3445        30  SOPE      H12S          -23.3695446814        0.2655313880        6.3219038684  MEMB      30              0.0000000000
      3446        30  SOPE      C213          -22.0477964046       -1.1008076675        7.2981786501  MEMB      30              0.0000000000
      3447        30  SOPE      H13R          -22.5695805460       -2.0727033184        7.1659634646  MEMB      30              0.0000000000
      3448        30  SOPE      H13S          -21.6030699402       -1.2816353267        8.3000968544  MEMB      30              0.0000000000
      3449        30  SOPE      C214          -20.8970855790       -1.0834634787        6.2391235189  MEMB      30              0.0000000000
      3450        30  SOPE      H14R          -20.2477459361       -1.9748998519        6.3733623799  MEMB      30              0.0000000000
      3451        30  SOPE      H14S          -20.3141015398       -0.1412718785        6.3211331019  MEMB      30              0.0000000000
      3452        30  SOPE      C215          -21.5556790165       -1.2739501594        4.8505401493  MEMB      30              0.0000000000
      3453        30  SOPE      H15R          -21.7146486317       -0.2437079405        4.4662862262  MEMB      30              0.0000000000
      3454        30  SOPE      H15S          -22.5696991504       -1.6923233356        5.0267445041  MEMB      30              0.0000000000
      3455        30  SOPE      C216          -20.6925333334       -2.0306193805        3.8361737650  MEMB      30              0.0000000000
      3456        30  SOPE      H16R          -21.1972477124       -2.1861067398        2.8587243995  MEMB      30              0.0000000000
      3457        30  SOPE      H16S          -20.4951882779       -3.0366915871        4.2641870112  MEMB      30              0.0000000000
      3458        30  SOPE      C217          -19.3729294450       -1.2444099988        3.5237370183  MEMB      30              0.0000000000
      3459        30  SOPE      H17R          -18.5640574084       -1.5347678586        4.2278251730  MEMB      30              0.0000000000
      3460        30  SOPE      H17S          -19.6377258474       -0.1698239895        3.6210480555  MEMB      30              0.0000000000
      3461        30  SOPE      C218          -19.0408221168       -1.4443374637        2.0642997433  MEMB      30              0.0000000000
      3462        30  SOPE      H18R          -18.9223794985       -2.5080255867        1.7662052561  MEMB      30              0.0000000000
      3463        30  SOPE      H18S          -18.1148659917       -0.8770949915        1.8294341579  MEMB      30              0.0000000000
      3464        30  SOPE      H18T          -19.7900082310       -0.9364267286        1.4200427625  MEMB      30              0.0000000000
      3465        30  SOPE      C33           -24.5891706980        3.9983348649       12.9963344499  MEMB      30              0.0000000000
      3466        30  SOPE      H3X           -23.5700557550        3.7178075391       13.3384317033  MEMB      30              0.0000000000
      3467        30  SOPE      H3Y           -24.8062931132        5.0054276368       13.4121994068  MEMB      30              0.0000000000
      3468        30  SOPE      C34           -24.5082860057        3.9436295587       11.4630669535  MEMB      30              0.0000000000
      3469        30  SOPE      H4X           -24.0619428839        4.8364518964       10.9752488995  MEMB      30              0.0000000000
      3470        30  SOPE      H4Y           -25.6012118848        3.8953551299       11.2694092909  MEMB      30              0.0000000000
      3471        30  SOPE      C35           -23.7201359697        2.7122650530       11.1385596242  MEMB      30              0.0000000000
      3472        30  SOPE      H5X           -24.1660233861        2.2784928196       10.2180446950  MEMB      30              0.0000000000
      3473        30  SOPE      H5Y           -23.7406606034        2.0167490218       12.0046756779  MEMB      30              0.0000000000
      3474        30  SOPE      C36           -22.1906777668        3.1218527790       11.0139902860  MEMB      30              0.0000000000
      3475        30  SOPE      H6X           -22.0663502287        3.7576725639       11.9165408691  MEMB      30              0.0000000000
      3476        30  SOPE      H6Y           -22.0518343897        3.6396695114       10.0408974106  MEMB      30              0.0000000000
      3477        30  SOPE      C37           -21.3407758599        1.8567127823       11.0737033567  MEMB      30              0.0000000000
      3478        30  SOPE      H7X           -21.6274735621        1.1925206879       10.2305106316  MEMB      30              0.0000000000
      3479        30  SOPE      H7Y           -21.4143389212        1.3779861428       12.0735689254  MEMB      30              0.0000000000
      3480        30  SOPE      C38           -19.8538054703        2.1230746551       10.8498045560  MEMB      30              0.0000000000
      3481        30  SOPE      H8X           -19.2415522696        1.1964693053       10.8203156503  MEMB      30              0.0000000000
      3482        30  SOPE      H8Y           -19.4686813190        2.7469022318       11.6845734187  MEMB      30              0.0000000000
      3483        30  SOPE      C39           -19.5084331045        2.8391601666        9.5451864264  MEMB      30              0.0000000000
      3484        30  SOPE      H9X           -19.3840683808        3.9197305579        9.7715100764  MEMB      30              0.0000000000
      3485        30  SOPE      H9Y           -20.3306370777        2.8225039228        8.7981756717  MEMB      30              0.0000000000
      3486        30  SOPE      C310          -18.2801278725        2.1655201245        8.8999217469  MEMB      30              0.0000000000
      3487        30  SOPE      H10X          -18.5684230547        1.1453115508        8.5676850479  MEMB      30              0.0000000000
      3488        30  SOPE      H10Y          -17.3896022170        2.1686539995        9.5642075662  MEMB      30              0.0000000000
      3489        30  SOPE      C311          -17.6869865219        3.0287046618        7.7768611620  MEMB      30              0.0000000000
      3490        30  SOPE      H11X          -16.9048725247        2.3379355159        7.3954738475  MEMB      30              0.0000000000
      3491        30  SOPE      H11Y          -17.1638225656        3.9176417019        8.1896708084  MEMB      30              0.0000000000
      3492        30  SOPE      C312          -18.6364304523        3.5449084096        6.7396739313  MEMB      30              0.0000000000
      3493        30  SOPE      H12X          -18.1072215130        4.2482192860        6.0617263990  MEMB      30              0.0000000000
      3494        30  SOPE      H12Y          -19.3985830150        4.1617476174        7.2621233387  MEMB      30              0.0000000000
      3495        30  SOPE      C313          -19.2409471995        2.4782626682        6.0028966470  MEMB      30              0.0000000000
      3496        30  SOPE      H13X          -20.0597526050        1.9118117541        6.4958590800  MEMB      30              0.0000000000
      3497        30  SOPE      H13Y          -18.4199435377        1.7727334582        5.7528916611  MEMB      30              0.0000000000
      3498        30  SOPE      C314          -19.8889989215        3.0433571355        4.7155612439  MEMB      30              0.0000000000
      3499        30  SOPE      H14X          -19.9377343409        2.2862688790        3.9039191229  MEMB      30              0.0000000000
      3500        30  SOPE      H14Y          -19.1844399715        3.8202664160        4.3490519312  MEMB      30              0.0000000000
      3501        30  SOPE      C315          -21.1905492695        3.7234346719        4.9868760078  MEMB      30              0.0000000000
      3502        30  SOPE      H15X          -21.0501204567        4.3935730415        5.8618140961  MEMB      30              0.0000000000
      3503        30  SOPE      H15Y          -21.9220374088        2.9573284593        5.3220286855  MEMB      30              0.0000000000
      3504        30  SOPE      C316          -21.6770939411        4.7627574415        3.9155182532  MEMB      30              0.0000000000
      3505        30  SOPE      H16X          -21.0802169971        5.6985542144        3.9639262879  MEMB      30              0.0000000000
      3506        30  SOPE      H16Y          -22.6612518105        5.0696663813        4.3297182943  MEMB      30              0.0000000000
      3507        30  SOPE      C317          -21.6246519007        4.1850712279        2.4951084161  MEMB      30              0.0000000000
      3508        30  SOPE      H17X          -20.5659124157        3.8728823308        2.3688937359  MEMB      30              0.0000000000
      3509        30  SOPE      H17Y          -21.8968738459        4.9026951283        1.6918453284  MEMB      30              0.0000000000
      3510        30  SOPE      C318          -22.5455493555        2.9669491067        2.2740417010  MEMB      30              0.0000000000
      3511        30  SOPE      H18X          -21.9908474265        2.2364690511        1.6471257475  MEMB      30              0.0000000000
      3512        30  SOPE      H18Y          -23.3414607182        3.3176161794        1.5827549194  MEMB      30              0.0000000000
      3513        30  SOPE      H18Z          -23.1818687826        2.6234942536        3.1175213151  MEMB      30              0.0000000000
      3514        31  OSM       N              19.4936027877      -11.0674848146       22.7519584954  MEMB      31              0.0000000000
      3515        31  OSM       C15            18.3724329451      -11.7121665059       22.0674843180  MEMB      31              0.0000000000
      3516        31  OSM       H15A           18.4192087556      -12.7823075759       22.2053612985  MEMB      31              0.0000000000
      3517        31  OSM       H15B           18.4771728703      -11.4511261497       21.0247534613  MEMB      31              0.0000000000
      3518        31  OSM       H15C           17.4242844330      -11.2638977333       22.3253004690  MEMB      31              0.0000000000
      3519        31  OSM       C14            19.1511018798       -9.5921591893       22.8280849833  MEMB      31              0.0000000000
      3520        31  OSM       H14A           19.2844276930       -9.1649696374       21.8451642257  MEMB      31              0.0000000000
      3521        31  OSM       H14B           19.8160550374       -9.0149482296       23.4534366353  MEMB      31              0.0000000000
      3522        31  OSM       H14C           18.1134880360       -9.4837068121       23.1073621067  MEMB      31              0.0000000000
      3523        31  OSM       C13            19.4433763717      -11.6632585256       24.1150262712  MEMB      31              0.0000000000
      3524        31  OSM       H13A           20.0963647028      -11.0497196570       24.7179990300  MEMB      31              0.0000000000
      3525        31  OSM       H13B           19.9588362613      -12.6109308339       24.1661957590  MEMB      31              0.0000000000
      3526        31  OSM       H13C           18.4185137003      -11.6091958122       24.4513797983  MEMB      31              0.0000000000
      3527        31  OSM       C12            20.8140438534      -11.2858611649       22.0791142235  MEMB      31              0.0000000000
      3528        31  OSM       H12A           21.0863039241      -12.3248760957       22.1919077839  MEMB      31              0.0000000000
      3529        31  OSM       H12B           21.5202392792      -10.8311275344       22.7580143924  MEMB      31              0.0000000000
      3530        31  OSM       C11            21.0431966944      -10.8970906975       20.6273762131  MEMB      31              0.0000000000
      3531        31  OSM       H11A           22.1267458837      -10.8303363179       20.3911855507  MEMB      31              0.0000000000
      3532        31  OSM       H11B           20.5763264521       -9.8889653346       20.6334192228  MEMB      31              0.0000000000
      3533        31  OSM       P              20.7059331700      -13.1944305398       19.3630333571  MEMB      31              0.0000000000
      3534        31  OSM       O13            21.8137157900      -13.6951178515       20.2370762868  MEMB      31              0.0000000000
      3535        31  OSM       O14            19.5482600758      -14.0309352668       19.2668383606  MEMB      31              0.0000000000
      3536        31  OSM       O11            21.3673102542      -12.9270644125       17.9602149603  MEMB      31              0.0000000000
      3537        31  OSM       O12            20.2623647886      -11.7230814563       19.7037924998  MEMB      31              0.0000000000
      3538        31  OSM       C1S            20.7766649332      -12.1597502054       16.9163806648  MEMB      31              0.0000000000
      3539        31  OSM       H1S            21.3571270825      -11.2759458719       16.5753897345  MEMB      31              0.0000000000
      3540        31  OSM       H1T            19.7516612723      -11.8305433219       17.1908096665  MEMB      31              0.0000000000
      3541        31  OSM       NF             21.9235440267      -13.3529231046       15.1289517029  MEMB      31              0.0000000000
      3542        31  OSM       HNF            22.2219898918      -12.8460107015       14.3239800400  MEMB      31              0.0000000000
      3543        31  OSM       C2S            20.6855995248      -13.1875868838       15.6767153710  MEMB      31              0.0000000000
      3544        31  OSM       H2S            20.3665910358      -14.1844410288       16.0493229803  MEMB      31              0.0000000000
      3545        31  OSM       C3S            19.7175507922      -12.7564835542       14.6209092022  MEMB      31              0.0000000000
      3546        31  OSM       H3S            20.1172899902      -11.7859196371       14.2568550538  MEMB      31              0.0000000000
      3547        31  OSM       O3             18.3759956983      -12.6455401096       15.1094706889  MEMB      31              0.0000000000
      3548        31  OSM       HO3            18.4182294520      -12.8223980802       16.0520932245  MEMB      31              0.0000000000
      3549        31  OSM       C4S            19.7114255927      -13.8453006282       13.5393162994  MEMB      31              0.0000000000
      3550        31  OSM       H4S            19.6083553384      -14.9079144071       13.8043226504  MEMB      31              0.0000000000
      3551        31  OSM       C5S            19.8584129116      -13.5134849003       12.2490171016  MEMB      31              0.0000000000
      3552        31  OSM       H5S            19.9962740215      -12.4695182273       11.9310112461  MEMB      31              0.0000000000
      3553        31  OSM       C6S            19.9046919989      -14.5618050671       11.1072918304  MEMB      31              0.0000000000
      3554        31  OSM       H6S            19.8293367561      -15.5735194999       11.5601452235  MEMB      31              0.0000000000
      3555        31  OSM       H6T            20.7893427056      -14.4152976259       10.4513572783  MEMB      31              0.0000000000
      3556        31  OSM       C7S            18.5986415570      -14.3895660488       10.3257204117  MEMB      31              0.0000000000
      3557        31  OSM       H7S            18.4845929276      -13.3305234827       10.0098995023  MEMB      31              0.0000000000
      3558        31  OSM       H7T            17.8110105743      -14.5043507533       11.1008220275  MEMB      31              0.0000000000
      3559        31  OSM       C8S            18.4656425587      -15.2952286492        9.1147076250  MEMB      31              0.0000000000
      3560        31  OSM       H8S            18.5080689663      -16.3203280051        9.5409622461  MEMB      31              0.0000000000
      3561        31  OSM       H8T            19.3507508513      -15.1277245329        8.4644415041  MEMB      31              0.0000000000
      3562        31  OSM       C9S            17.2023434465      -15.2676102770        8.2781013690  MEMB      31              0.0000000000
      3563        31  OSM       H9S            16.3622576778      -15.6764459901        8.8792920193  MEMB      31              0.0000000000
      3564        31  OSM       H9T            17.2764207437      -15.9878896948        7.4354681724  MEMB      31              0.0000000000
      3565        31  OSM       C10S           16.8609183267      -13.8129193174        7.9047450739  MEMB      31              0.0000000000
      3566        31  OSM       H10S           16.9585256339      -13.1126573402        8.7617325801  MEMB      31              0.0000000000
      3567        31  OSM       H10T           15.7584581402      -13.7349823884        7.7914847995  MEMB      31              0.0000000000
      3568        31  OSM       C11S           17.7177425609      -13.1743147921        6.8569565334  MEMB      31              0.0000000000
      3569        31  OSM       H11S           18.7143852446      -13.2027343557        7.3470764249  MEMB      31              0.0000000000
      3570        31  OSM       H11T           17.4257579593      -12.1228556266        6.6483914402  MEMB      31              0.0000000000
      3571        31  OSM       C12S           17.6862541628      -13.7048375584        5.4045860526  MEMB      31              0.0000000000
      3572        31  OSM       H12S           17.9429593966      -14.7816976238        5.4983727029  MEMB      31              0.0000000000
      3573        31  OSM       H12T           18.3332494588      -13.1685060437        4.6779037060  MEMB      31              0.0000000000
      3574        31  OSM       C13S           16.2649712766      -13.6540036619        4.9179176269  MEMB      31              0.0000000000
      3575        31  OSM       H13S           15.8295808679      -12.6470843437        5.0936159342  MEMB      31              0.0000000000
      3576        31  OSM       H13T           15.6274344341      -14.4246660310        5.4015991677  MEMB      31              0.0000000000
      3577        31  OSM       C14S           16.1357373763      -14.0167657427        3.3753445362  MEMB      31              0.0000000000
      3578        31  OSM       H14S           15.0533269946      -14.1853806528        3.1902014802  MEMB      31              0.0000000000
      3579        31  OSM       H14T           16.6697378012      -14.9883222384        3.3029392055  MEMB      31              0.0000000000
      3580        31  OSM       C15S           16.7032266729      -12.9958398161        2.3794001449  MEMB      31              0.0000000000
      3581        31  OSM       H15S           16.5985445329      -13.3321499687        1.3257119977  MEMB      31              0.0000000000
      3582        31  OSM       H15T           17.7582688102      -12.8282007887        2.6845301450  MEMB      31              0.0000000000
      3583        31  OSM       C16S           16.0675676220      -11.6173363284        2.3361440255  MEMB      31              0.0000000000
      3584        31  OSM       H16S           16.2962336570      -11.1311357153        3.3085858819  MEMB      31              0.0000000000
      3585        31  OSM       H16T           14.9717167248      -11.7824593830        2.2576213037  MEMB      31              0.0000000000
      3586        31  OSM       C17S           16.6562144986      -10.7804185114        1.2217888128  MEMB      31              0.0000000000
      3587        31  OSM       H17S           16.0055095538      -10.0126199817        0.7512680955  MEMB      31              0.0000000000
      3588        31  OSM       H17T           16.8487696331      -11.4207466632        0.3345331808  MEMB      31              0.0000000000
      3589        31  OSM       C18S           18.0516871714      -10.2393899628        1.6690986585  MEMB      31              0.0000000000
      3590        31  OSM       H18S           18.0228826808       -9.7255533546        2.6537121560  MEMB      31              0.0000000000
      3591        31  OSM       H18T           18.5669650219       -9.5265793511        0.9903417193  MEMB      31              0.0000000000
      3592        31  OSM       H18U           18.6685059319      -11.1518443562        1.8149839114  MEMB      31              0.0000000000
      3593        31  OSM       C1F            22.8359912349      -14.1807505721       15.6828951527  MEMB      31              0.0000000000
      3594        31  OSM       OF             22.5831908096      -14.9555492343       16.5717973731  MEMB      31              0.0000000000
      3595        31  OSM       C2F            24.2852559739      -14.0391653588       15.2183732554  MEMB      31              0.0000000000
      3596        31  OSM       H2F            24.9200066487      -14.8132162297       15.7003049020  MEMB      31              0.0000000000
      3597        31  OSM       H2G            24.7045717537      -13.0457414535       15.4859628882  MEMB      31              0.0000000000
      3598        31  OSM       C3F            24.4384836201      -14.3782777624       13.6638041296  MEMB      31              0.0000000000
      3599        31  OSM       H3F            23.8215933298      -15.2967879516       13.5632733841  MEMB      31              0.0000000000
      3600        31  OSM       H3G            25.5185734201      -14.5261601699       13.4496601325  MEMB      31              0.0000000000
      3601        31  OSM       C4F            24.0627522408      -13.3404891423       12.5735685998  MEMB      31              0.0000000000
      3602        31  OSM       H4F            24.3831568160      -12.3031233338       12.8092248049  MEMB      31              0.0000000000
      3603        31  OSM       H4G            22.9634190585      -13.2923458129       12.7267676235  MEMB      31              0.0000000000
      3604        31  OSM       C5F            24.2649127215      -13.6525155180       11.0664671571  MEMB      31              0.0000000000
      3605        31  OSM       H5F            23.7943315494      -14.6494724828       10.9288038249  MEMB      31              0.0000000000
      3606        31  OSM       H5G            25.3518515957      -13.8368196937       10.9289283728  MEMB      31              0.0000000000
      3607        31  OSM       C6F            23.6216856443      -12.7023550109       10.0148587544  MEMB      31              0.0000000000
      3608        31  OSM       H6F            24.0960133612      -11.6977803163       10.0276580220  MEMB      31              0.0000000000
      3609        31  OSM       H6G            22.5712182904      -12.5093117047       10.3207568959  MEMB      31              0.0000000000
      3610        31  OSM       C7F            23.4086391187      -13.2270067952        8.5269226035  MEMB      31              0.0000000000
      3611        31  OSM       H7F            22.7921689726      -14.1511717878        8.5412302661  MEMB      31              0.0000000000
      3612        31  OSM       H7G            24.4001889485      -13.5444111879        8.1391018438  MEMB      31              0.0000000000
      3613        31  OSM       C8F            22.8128127636      -12.1416349166        7.6035724665  MEMB      31              0.0000000000
      3614        31  OSM       H8F            21.8978012961      -11.8195593309        8.1451826995  MEMB      31              0.0000000000
      3615        31  OSM       H8G            22.4249043383      -12.6309176343        6.6846319933  MEMB      31              0.0000000000
      3616        31  OSM       C9F            23.6337184634      -10.9004284658        7.3816766628  MEMB      31              0.0000000000
      3617        31  OSM       H9F            23.7277129510      -10.2726967023        8.2800742410  MEMB      31              0.0000000000
      3618        31  OSM       C10F           24.0260836246      -10.4092157120        6.1675193098  MEMB      31              0.0000000000
      3619        31  OSM       H10F           24.5656917828       -9.4514188187        6.2055719605  MEMB      31              0.0000000000
      3620        31  OSM       C11F           23.7173359977      -11.0642616201        4.8546421095  MEMB      31              0.0000000000
      3621        31  OSM       H11F           23.7550851061      -10.3672253444        3.9903288433  MEMB      31              0.0000000000
      3622        31  OSM       H11G           22.8235865417      -11.7228126465        4.8117054162  MEMB      31              0.0000000000
      3623        31  OSM       C12F           24.7894734688      -12.1133815205        4.5867503116  MEMB      31              0.0000000000
      3624        31  OSM       H12F           24.5472693629      -12.9703415593        5.2510365172  MEMB      31              0.0000000000
      3625        31  OSM       H12G           25.7588624595      -11.5848339966        4.7102134351  MEMB      31              0.0000000000
      3626        31  OSM       C13F           24.7632932509      -12.7489831948        3.1561269837  MEMB      31              0.0000000000
      3627        31  OSM       H13F           23.8035823386      -13.3055682514        3.0970606253  MEMB      31              0.0000000000
      3628        31  OSM       H13G           25.5475448838      -13.5350370432        3.1934102638  MEMB      31              0.0000000000
      3629        31  OSM       C14F           25.0401577575      -11.7588297065        2.0715907936  MEMB      31              0.0000000000
      3630        31  OSM       H14F           26.0395737284      -11.3242193261        2.2874678107  MEMB      31              0.0000000000
      3631        31  OSM       H14G           24.2324660860      -11.0002843208        2.1526096602  MEMB      31              0.0000000000
      3632        31  OSM       C15F           24.9384244290      -12.2837349427        0.5971508191  MEMB      31              0.0000000000
      3633        31  OSM       H15F           24.0374978283      -12.9282082937        0.5116709795  MEMB      31              0.0000000000
      3634        31  OSM       H15G           25.7784676898      -12.9851179420        0.4055528025  MEMB      31              0.0000000000
      3635        31  OSM       C16F           24.7466289045      -11.2356490214       -0.5050775140  MEMB      31              0.0000000000
      3636        31  OSM       H16F           25.7093592040      -10.6941432902       -0.6244176180  MEMB      31              0.0000000000
      3637        31  OSM       H16G           23.9981751189      -10.4735040310       -0.1996706245  MEMB      31              0.0000000000
      3638        31  OSM       C17F           24.2513714529      -11.7594240153       -1.8621089733  MEMB      31              0.0000000000
      3639        31  OSM       H17F           23.2659029211      -12.2443152225       -1.6946181825  MEMB      31              0.0000000000
      3640        31  OSM       H17G           25.0268771959      -12.4303579441       -2.2896141928  MEMB      31              0.0000000000
      3641        31  OSM       C18F           24.0188630779      -10.5772458059       -2.8617416573  MEMB      31              0.0000000000
      3642        31  OSM       H18F           23.7202413975      -11.0781300087       -3.8073948040  MEMB      31              0.0000000000
      3643        31  OSM       H18G           24.9864492806      -10.0707638032       -3.0656383477  MEMB      31              0.0000000000
      3644        31  OSM       H18H           23.2762295284       -9.8020391681       -2.5756098499  MEMB      31              0.0000000000
      3645        32  CHL1      C3             19.8759333010       13.9794058119       17.3145150000  MEMB      32              0.0000000000
      3646        32  CHL1      H3             18.9143738137       13.4236089089       17.3430650000  MEMB      32              0.0000000000
      3647        32  CHL1      O3             20.3816000990       13.9507185881       18.6854850000  MEMB      32              0.0000000000
      3648        32  CHL1      H3'            19.6806500230       14.3308062352       19.2200950000  MEMB      32              0.0000000000
      3649        32  CHL1      C4             20.8592217885       13.1395733162       16.4913950000  MEMB      32              0.0000000000
      3650        32  CHL1      H4A            21.9151453974       13.4069046534       16.7102050000  MEMB      32              0.0000000000
      3651        32  CHL1      H4B            20.7237895585       12.0847907025       16.8129750000  MEMB      32              0.0000000000
      3652        32  CHL1      C5             20.5874699418       13.3081516608       14.9920350000  MEMB      32              0.0000000000
      3653        32  CHL1      C6             20.5703940113       12.2606526214       14.2160450000  MEMB      32              0.0000000000
      3654        32  CHL1      H6             20.7659245738       11.2723109719       14.6575850000  MEMB      32              0.0000000000
      3655        32  CHL1      C7             20.4168293302       12.3577872395       12.7568250000  MEMB      32              0.0000000000
      3656        32  CHL1      H7A            21.1020437373       11.6598104217       12.2299250000  MEMB      32              0.0000000000
      3657        32  CHL1      H7B            19.4254636435       11.8972791404       12.5582150000  MEMB      32              0.0000000000
      3658        32  CHL1      C8             20.5439386695       13.7357792686       12.1023550000  MEMB      32              0.0000000000
      3659        32  CHL1      H8             21.6141826382       14.0237391175       12.1796950000  MEMB      32              0.0000000000
      3660        32  CHL1      C14            20.0921000068       13.7719581978       10.7054750000  MEMB      32              0.0000000000
      3661        32  CHL1      H14            18.9982946037       13.5823829418       10.6610650000  MEMB      32              0.0000000000
      3662        32  CHL1      C15            20.6803648001       12.7991541294        9.7806250000  MEMB      32              0.0000000000
      3663        32  CHL1      H15A           21.7868851919       12.7087077284        9.8223050000  MEMB      32              0.0000000000
      3664        32  CHL1      H15B           20.4186227520       11.7428369627       10.0042850000  MEMB      32              0.0000000000
      3665        32  CHL1      C16            20.2414298303       13.2996279597        8.4194750000  MEMB      32              0.0000000000
      3666        32  CHL1      H16A           21.1569600591       13.3389295268        7.7913250000  MEMB      32              0.0000000000
      3667        32  CHL1      H16B           19.5277093930       12.6361793158        7.8858450000  MEMB      32              0.0000000000
      3668        32  CHL1      C17            19.7368488929       14.7794479655        8.6347850000  MEMB      32              0.0000000000
      3669        32  CHL1      H17            18.6283655185       14.7886438521        8.5606250000  MEMB      32              0.0000000000
      3670        32  CHL1      C13            20.1453537452       15.1328069971       10.1046650000  MEMB      32              0.0000000000
      3671        32  CHL1      C18            21.6088588656       15.6054801469       10.2275950000  MEMB      32              0.0000000000
      3672        32  CHL1      H18A           21.6771436835       16.4757899125        9.5404250000  MEMB      32              0.0000000000
      3673        32  CHL1      H18B           21.8410673672       16.1058384503       11.1919750000  MEMB      32              0.0000000000
      3674        32  CHL1      H18C           22.4200130634       14.8937975450        9.9632650000  MEMB      32              0.0000000000
      3675        32  CHL1      C12            19.1868532101       16.1190263701       10.7909550000  MEMB      32              0.0000000000
      3676        32  CHL1      H12A           19.2965623634       17.1244203026       10.3310950000  MEMB      32              0.0000000000
      3677        32  CHL1      H12B           18.1824335875       15.6586469502       10.6747250000  MEMB      32              0.0000000000
      3678        32  CHL1      C11            19.6047561271       16.1749870787       12.2944350000  MEMB      32              0.0000000000
      3679        32  CHL1      H11A           20.5454931797       16.7533289994       12.4163250000  MEMB      32              0.0000000000
      3680        32  CHL1      H11B           18.8846245123       16.7628303707       12.9028450000  MEMB      32              0.0000000000
      3681        32  CHL1      C9             19.7416425497       14.7181566851       12.9533150000  MEMB      32              0.0000000000
      3682        32  CHL1      H9             18.7275306367       14.2752825218       13.0520950000  MEMB      32              0.0000000000
      3683        32  CHL1      C10            20.2803543098       14.7529219717       14.4433850000  MEMB      32              0.0000000000
      3684        32  CHL1      C19            21.7008376437       15.4224277498       14.5103450000  MEMB      32              0.0000000000
      3685        32  CHL1      H19A           21.6565019927       16.4517929627       14.0946750000  MEMB      32              0.0000000000
      3686        32  CHL1      H19B           22.2459086262       15.4458033221       15.4781550000  MEMB      32              0.0000000000
      3687        32  CHL1      H19C           22.4211499432       14.8807142731       13.8607150000  MEMB      32              0.0000000000
      3688        32  CHL1      C1             19.2516103680       15.4522803952       15.2769650000  MEMB      32              0.0000000000
      3689        32  CHL1      H1A            19.1943918939       16.5117596790       14.9474850000  MEMB      32              0.0000000000
      3690        32  CHL1      H1B            18.2413712555       14.9935403466       15.2194650000  MEMB      32              0.0000000000
      3691        32  CHL1      C2             19.6642208853       15.4711282987       16.8216750000  MEMB      32              0.0000000000
      3692        32  CHL1      H2A            18.9100069121       15.9661972793       17.4700450000  MEMB      32              0.0000000000
      3693        32  CHL1      H2B            20.6465193232       15.9893047496       16.8515450000  MEMB      32              0.0000000000
      3694        32  CHL1      C20            20.0695430998       15.7099485831        7.4518050000  MEMB      32              0.0000000000
      3695        32  CHL1      H20            21.1001506636       15.5299858313        7.0779250000  MEMB      32              0.0000000000
      3696        32  CHL1      C21            19.9038988960       17.1793891679        7.6368250000  MEMB      32              0.0000000000
      3697        32  CHL1      H21A           20.6263428929       17.6362790263        8.3465050000  MEMB      32              0.0000000000
      3698        32  CHL1      H21B           18.8704258537       17.3576805331        8.0035350000  MEMB      32              0.0000000000
      3699        32  CHL1      H21C           20.1406327813       17.7157079802        6.6930850000  MEMB      32              0.0000000000
      3700        32  CHL1      C22            19.2803979691       15.2896923003        6.1076750000  MEMB      32              0.0000000000
      3701        32  CHL1      H22A           19.2169256032       14.1844512547        6.0141750000  MEMB      32              0.0000000000
      3702        32  CHL1      H22B           18.2290877006       15.6092582204        6.2718250000  MEMB      32              0.0000000000
      3703        32  CHL1      C23            19.7924052062       15.9659053999        4.7822950000  MEMB      32              0.0000000000
      3704        32  CHL1      H23A           19.6345188387       17.0412541933        5.0125850000  MEMB      32              0.0000000000
      3705        32  CHL1      H23B           20.8935018591       15.8307303911        4.7221350000  MEMB      32              0.0000000000
      3706        32  CHL1      C24            19.0226818025       15.4887205495        3.6362050000  MEMB      32              0.0000000000
      3707        32  CHL1      H24A           18.9453767698       14.4172313072        3.3528950000  MEMB      32              0.0000000000
      3708        32  CHL1      H24B           17.9369288474       15.6757823374        3.7792750000  MEMB      32              0.0000000000
      3709        32  CHL1      C25            19.4146844599       16.1518484913        2.3368350000  MEMB      32              0.0000000000
      3710        32  CHL1      H25            18.6246940061       15.8852970218        1.6025550000  MEMB      32              0.0000000000
      3711        32  CHL1      C26            19.6086041604       17.6569587793        2.4781450000  MEMB      32              0.0000000000
      3712        32  CHL1      H26A           18.8548231357       18.0453304752        3.1959950000  MEMB      32              0.0000000000
      3713        32  CHL1      H26B           20.6327193827       17.9072023565        2.8286750000  MEMB      32              0.0000000000
      3714        32  CHL1      H26C           19.4152721807       18.1537939608        1.5034150000  MEMB      32              0.0000000000
      3715        32  CHL1      C27            20.7363585958       15.5068778014        1.8114350000  MEMB      32              0.0000000000
      3716        32  CHL1      H27A           20.9347608687       15.9613651009        0.8172550000  MEMB      32              0.0000000000
      3717        32  CHL1      H27B           21.6085080174       15.7242923092        2.4644350000  MEMB      32              0.0000000000
      3718        32  CHL1      H27C           20.5572211231       14.4141773482        1.7206750000  MEMB      32              0.0000000000
      3719        33  SAPE      N              13.3190817653      -18.2460924757       18.6591316781  MEMB      33              0.0000000000
      3720        33  SAPE      HN1            13.2671981469      -19.1964120098       18.2398454577  MEMB      33              0.0000000000
      3721        33  SAPE      HN2            12.4742600376      -17.7072040605       18.3807875966  MEMB      33              0.0000000000
      3722        33  SAPE      HN3            14.1737974438      -17.6896224700       18.4556560324  MEMB      33              0.0000000000
      3723        33  SAPE      C12            13.3215486237      -18.4662099893       20.1068504535  MEMB      33              0.0000000000
      3724        33  SAPE      H12A           12.3487401720      -18.9120990988       20.4054262929  MEMB      33              0.0000000000
      3725        33  SAPE      H12B           13.3014854081      -17.4588062869       20.5748848515  MEMB      33              0.0000000000
      3726        33  SAPE      C11            14.5887492188      -19.1839120915       20.5352115209  MEMB      33              0.0000000000
      3727        33  SAPE      H11A           14.5171637041      -20.2418084502       20.2034709187  MEMB      33              0.0000000000
      3728        33  SAPE      H11B           14.7470142687      -19.1454334019       21.6342076085  MEMB      33              0.0000000000
      3729        33  SAPE      P              17.2518550120      -18.6784362463       20.2177322066  MEMB      33              0.0000000000
      3730        33  SAPE      O13            17.5659373121      -17.5125095814       21.0397846205  MEMB      33              0.0000000000
      3731        33  SAPE      O14            17.4812573047      -19.9927630838       20.7847491345  MEMB      33              0.0000000000
      3732        33  SAPE      O12            15.6895704055      -18.5818092069       19.9031156640  MEMB      33              0.0000000000
      3733        33  SAPE      O11            17.9475643504      -18.5203425005       18.7534247268  MEMB      33              0.0000000000
      3734        33  SAPE      C1             17.5100498413      -19.4667639602       17.7771392248  MEMB      33              0.0000000000
      3735        33  SAPE      HA             18.2845677059      -20.2515209869       17.6407588866  MEMB      33              0.0000000000
      3736        33  SAPE      HB             16.5494086423      -20.0033652990       17.9305940803  MEMB      33              0.0000000000
      3737        33  SAPE      C2             17.4695081081      -18.5018747823       16.5261098395  MEMB      33              0.0000000000
      3738        33  SAPE      HS             18.4211903982      -17.9313891676       16.4698266386  MEMB      33              0.0000000000
      3739        33  SAPE      O21            16.3472056175      -17.7230486396       16.6037969426  MEMB      33              0.0000000000
      3740        33  SAPE      C21            16.2494404855      -16.5910687143       15.7637101166  MEMB      33              0.0000000000
      3741        33  SAPE      O22            17.1745776724      -16.0137022354       15.2424940953  MEMB      33              0.0000000000
      3742        33  SAPE      C22            14.7872727861      -16.0935686414       15.5409614187  MEMB      33              0.0000000000
      3743        33  SAPE      H2R            14.0457644428      -16.8641736925       15.8420496700  MEMB      33              0.0000000000
      3744        33  SAPE      H2S            14.6222174563      -15.1582961747       16.1174532013  MEMB      33              0.0000000000
      3745        33  SAPE      C3             17.3341610141      -19.3283950267       15.1957496054  MEMB      33              0.0000000000
      3746        33  SAPE      HX             18.1903081903      -20.0348906450       15.2426203986  MEMB      33              0.0000000000
      3747        33  SAPE      HY             17.5169295571      -18.5163737225       14.4598569168  MEMB      33              0.0000000000
      3748        33  SAPE      O31            16.1094578716      -20.0522006316       15.1232969371  MEMB      33              0.0000000000
      3749        33  SAPE      C31            15.9280736242      -20.6450574468       13.9567444972  MEMB      33              0.0000000000
      3750        33  SAPE      O32            16.6201594840      -20.5232756968       12.9896734327  MEMB      33              0.0000000000
      3751        33  SAPE      C32            14.7454731557      -21.6030815555       14.0218228175  MEMB      33              0.0000000000
      3752        33  SAPE      H2X            14.5244427037      -21.8846029530       15.0735892326  MEMB      33              0.0000000000
      3753        33  SAPE      H2Y            15.0105903964      -22.5062488487       13.4316343514  MEMB      33              0.0000000000
      3754        33  SAPE      C23            14.5598530105      -15.7077399576       14.0814902177  MEMB      33              0.0000000000
      3755        33  SAPE      H3R            15.3584742826      -15.0099810826       13.7503445987  MEMB      33              0.0000000000
      3756        33  SAPE      H3S            13.6214116012      -15.1224573833       13.9761683484  MEMB      33              0.0000000000
      3757        33  SAPE      C24            14.3482402328      -16.8322027330       13.0595375044  MEMB      33              0.0000000000
      3758        33  SAPE      H4R            13.4667158350      -17.4513695123       13.3313246704  MEMB      33              0.0000000000
      3759        33  SAPE      H4S            15.2568945578      -17.4664897441       12.9798619668  MEMB      33              0.0000000000
      3760        33  SAPE      C25            13.9693944368      -16.3455422466       11.6849827411  MEMB      33              0.0000000000
      3761        33  SAPE      H5R            13.0694931911      -15.7129554587       11.6815513334  MEMB      33              0.0000000000
      3762        33  SAPE      C26            14.5137539423      -16.6668391338       10.4442366112  MEMB      33              0.0000000000
      3763        33  SAPE      H6R            14.2139158528      -16.2388672471        9.4762817965  MEMB      33              0.0000000000
      3764        33  SAPE      C27            15.6331767109      -17.5692717285       10.2262274630  MEMB      33              0.0000000000
      3765        33  SAPE      H7R            15.5688860442      -17.8647620640        9.1571750482  MEMB      33              0.0000000000
      3766        33  SAPE      H7S            15.5922864314      -18.4941702622       10.8404034716  MEMB      33              0.0000000000
      3767        33  SAPE      C28            16.8896253443      -16.8568875823       10.6650714751  MEMB      33              0.0000000000
      3768        33  SAPE      H8R            16.9833034271      -16.6573686779       11.7427615865  MEMB      33              0.0000000000
      3769        33  SAPE      C29            17.8723272291      -16.3857052988        9.8615556932  MEMB      33              0.0000000000
      3770        33  SAPE      H9R            18.7528357474      -15.8761469656       10.2799513488  MEMB      33              0.0000000000
      3771        33  SAPE      C210           17.9588562416      -16.5390127296        8.4001341171  MEMB      33              0.0000000000
      3772        33  SAPE      H10R           18.2342657926      -15.4861037558        8.1768553368  MEMB      33              0.0000000000
      3773        33  SAPE      H10S           16.9175388200      -16.6338450955        8.0246538235  MEMB      33              0.0000000000
      3774        33  SAPE      C211           18.9846299315      -17.5224562659        7.8287799941  MEMB      33              0.0000000000
      3775        33  SAPE      H11R           20.0616902150      -17.4165037712        8.0255421795  MEMB      33              0.0000000000
      3776        33  SAPE      C212           18.6890238976      -18.5368910198        6.9560935480  MEMB      33              0.0000000000
      3777        33  SAPE      H12R           19.5166563148      -19.2099344020        6.6876967487  MEMB      33              0.0000000000
      3778        33  SAPE      C213           17.3319329749      -18.8444841552        6.4045981527  MEMB      33              0.0000000000
      3779        33  SAPE      H13R           16.5498763146      -18.4166857720        7.0676947157  MEMB      33              0.0000000000
      3780        33  SAPE      H13S           17.2388230828      -19.9487863624        6.3260616398  MEMB      33              0.0000000000
      3781        33  SAPE      C214           16.8825478071      -18.3379829806        5.0545353044  MEMB      33              0.0000000000
      3782        33  SAPE      H14R           16.0730120533      -17.5944445188        5.0969897987  MEMB      33              0.0000000000
      3783        33  SAPE      C215           17.3365983975      -18.6314552762        3.8431137368  MEMB      33              0.0000000000
      3784        33  SAPE      H15R           16.9380150213      -18.2826030400        2.8790437036  MEMB      33              0.0000000000
      3785        33  SAPE      C216           18.4578807696      -19.6106691346        3.6533404484  MEMB      33              0.0000000000
      3786        33  SAPE      H16R           18.3213395923      -20.0769293518        2.6542014606  MEMB      33              0.0000000000
      3787        33  SAPE      H16S           18.4779108629      -20.4177465221        4.4165886332  MEMB      33              0.0000000000
      3788        33  SAPE      C217           19.7413299739      -18.8004534752        3.6189177158  MEMB      33              0.0000000000
      3789        33  SAPE      H17R           20.4833811182      -19.6156434091        3.7572902900  MEMB      33              0.0000000000
      3790        33  SAPE      H17S           19.7475749467      -18.1144025804        4.4927698773  MEMB      33              0.0000000000
      3791        33  SAPE      C218           19.8810693144      -17.9795982336        2.3127200012  MEMB      33              0.0000000000
      3792        33  SAPE      H18R           19.1277292649      -17.1642288981        2.3571348344  MEMB      33              0.0000000000
      3793        33  SAPE      H18S           19.6450779157      -18.4985498035        1.3591383528  MEMB      33              0.0000000000
      3794        33  SAPE      C219           21.2907426045      -17.4674779910        2.2605212903  MEMB      33              0.0000000000
      3795        33  SAPE      H19R           21.9457229085      -18.3240352897        1.9928795687  MEMB      33              0.0000000000
      3796        33  SAPE      H19S           21.5569685995      -17.3085148829        3.3273744002  MEMB      33              0.0000000000
      3797        33  SAPE      C220           21.6000589442      -16.2171070543        1.3360706246  MEMB      33              0.0000000000
      3798        33  SAPE      H20R           21.5832259880      -16.4690240165        0.2541408175  MEMB      33              0.0000000000
      3799        33  SAPE      H20S           22.6177189469      -15.7892062082        1.4609310342  MEMB      33              0.0000000000
      3800        33  SAPE      H20T           20.8457539222      -15.4109056008        1.4601040575  MEMB      33              0.0000000000
      3801        33  SAPE      C33            13.4589111138      -20.9778755333       13.4637553685  MEMB      33              0.0000000000
      3802        33  SAPE      H3X            13.2506082435      -20.0650730893       14.0618545287  MEMB      33              0.0000000000
      3803        33  SAPE      H3Y            12.6083912446      -21.6537962824       13.6962817511  MEMB      33              0.0000000000
      3804        33  SAPE      C34            13.5276110640      -20.7529356396       11.9117878391  MEMB      33              0.0000000000
      3805        33  SAPE      H4X            14.4731825323      -20.1861401964       11.7740977148  MEMB      33              0.0000000000
      3806        33  SAPE      H4Y            12.6675717566      -20.1370720947       11.5721321373  MEMB      33              0.0000000000
      3807        33  SAPE      C35            13.5162790056      -21.9767116256       11.0006598351  MEMB      33              0.0000000000
      3808        33  SAPE      H5X            12.5145596683      -22.4346963458       10.8553015026  MEMB      33              0.0000000000
      3809        33  SAPE      H5Y            14.0978316417      -22.8056206559       11.4578549148  MEMB      33              0.0000000000
      3810        33  SAPE      C36            14.1268520627      -21.7302182094        9.6570942816  MEMB      33              0.0000000000
      3811        33  SAPE      H6X            14.4055913629      -22.7298562960        9.2604218523  MEMB      33              0.0000000000
      3812        33  SAPE      H6Y            15.1196600147      -21.2897964106        9.8909360372  MEMB      33              0.0000000000
      3813        33  SAPE      C37            13.2613401577      -20.9290954408        8.6163692681  MEMB      33              0.0000000000
      3814        33  SAPE      H7X            12.1988118261      -21.2286908843        8.4914829724  MEMB      33              0.0000000000
      3815        33  SAPE      H7Y            13.7819832643      -21.0815933618        7.6468350422  MEMB      33              0.0000000000
      3816        33  SAPE      C38            12.9941371901      -19.4167310931        8.7215320720  MEMB      33              0.0000000000
      3817        33  SAPE      H8X            13.9916773452      -18.9284341656        8.7498296938  MEMB      33              0.0000000000
      3818        33  SAPE      H8Y            12.5349702413      -19.2582158462        9.7207115799  MEMB      33              0.0000000000
      3819        33  SAPE      C39            12.2171847709      -18.7961900370        7.5847107370  MEMB      33              0.0000000000
      3820        33  SAPE      H9X            11.1624925991      -19.1062347270        7.7453908196  MEMB      33              0.0000000000
      3821        33  SAPE      H9Y            12.5770331483      -19.3346330598        6.6819880697  MEMB      33              0.0000000000
      3822        33  SAPE      C310           12.2148240363      -17.3258151974        7.5793898896  MEMB      33              0.0000000000
      3823        33  SAPE      H10X           13.2136854487      -16.8734290207        7.4006621072  MEMB      33              0.0000000000
      3824        33  SAPE      H10Y           11.9279948472      -17.0040131540        8.6033496611  MEMB      33              0.0000000000
      3825        33  SAPE      C311           11.2851725782      -16.6754619388        6.5917099432  MEMB      33              0.0000000000
      3826        33  SAPE      H11X           11.4875935283      -15.5830740714        6.5857732908  MEMB      33              0.0000000000
      3827        33  SAPE      H11Y           10.2149886396      -16.6785139775        6.8900699243  MEMB      33              0.0000000000
      3828        33  SAPE      C312           11.5334388311      -17.1219039762        5.1344765618  MEMB      33              0.0000000000
      3829        33  SAPE      H12X           10.6621998937      -16.7238653190        4.5716015656  MEMB      33              0.0000000000
      3830        33  SAPE      H12Y           11.3827408648      -18.2222733436        5.1062269322  MEMB      33              0.0000000000
      3831        33  SAPE      C313           12.9481965064      -16.7999251949        4.5194022716  MEMB      33              0.0000000000
      3832        33  SAPE      H13X           13.7388470630      -17.2152847721        5.1802120865  MEMB      33              0.0000000000
      3833        33  SAPE      H13Y           13.1162674591      -15.7017306347        4.5129398394  MEMB      33              0.0000000000
      3834        33  SAPE      C314           13.1666469523      -17.3455122885        3.0739412513  MEMB      33              0.0000000000
      3835        33  SAPE      H14X           14.0543610472      -16.9161733867        2.5621277316  MEMB      33              0.0000000000
      3836        33  SAPE      H14Y           12.2898056288      -17.0809141338        2.4450869380  MEMB      33              0.0000000000
      3837        33  SAPE      C315           13.2982780485      -18.8439706819        3.0884445839  MEMB      33              0.0000000000
      3838        33  SAPE      H15X           12.3396248693      -19.3241726687        3.3794987936  MEMB      33              0.0000000000
      3839        33  SAPE      H15Y           14.1155142580      -18.9988045815        3.8249723047  MEMB      33              0.0000000000
      3840        33  SAPE      C316           13.9200005277      -19.2795009417        1.7723687578  MEMB      33              0.0000000000
      3841        33  SAPE      H16X           14.9758059092      -18.9493254352        1.6695095840  MEMB      33              0.0000000000
      3842        33  SAPE      H16Y           13.3661731259      -18.8632623416        0.9038415092  MEMB      33              0.0000000000
      3843        33  SAPE      C317           13.9538774155      -20.8575476640        1.5844361870  MEMB      33              0.0000000000
      3844        33  SAPE      H17X           12.9181273518      -21.2563394582        1.6345110732  MEMB      33              0.0000000000
      3845        33  SAPE      H17Y           14.3939911583      -21.3164625965        2.4954899135  MEMB      33              0.0000000000
      3846        33  SAPE      C318           14.7786276558      -21.2813724946        0.4254216328  MEMB      33              0.0000000000
      3847        33  SAPE      H18X           14.1663279816      -21.2831012759       -0.5016196155  MEMB      33              0.0000000000
      3848        33  SAPE      H18Y           15.0622972576      -22.3457364272        0.5702749375  MEMB      33              0.0000000000
      3849        33  SAPE      H18Z           15.7073831507      -20.6874962718        0.2874179410  MEMB      33              0.0000000000
      3850        34  SAPS      N               0.6002121292      -24.3532794065       18.2287845414  MEMB      34              0.0000000000
      3851        34  SAPS      HN1             0.9810607510      -24.1808592877       17.2765107153  MEMB      34              0.0000000000
      3852        34  SAPS      HN2             0.1004857655      -25.2651863095       18.2114888951  MEMB      34              0.0000000000
      3853        34  SAPS      HN3            -0.0525299003      -23.5557310849       18.3682289124  MEMB      34              0.0000000000
      3854        34  SAPS      C12             1.5618825535      -24.1822832792       19.3163375798  MEMB      34              0.0000000000
      3855        34  SAPS      H12A            1.5790511864      -23.1316431997       19.5658582839  MEMB      34              0.0000000000
      3856        34  SAPS      C13             1.1504011774      -24.8377346794       20.6669081836  MEMB      34              0.0000000000
      3857        34  SAPS      O13A            0.1945647557      -25.6760456958       20.6863834666  MEMB      34              0.0000000000
      3858        34  SAPS      O13B            1.7717476291      -24.4728619738       21.6340128707  MEMB      34              0.0000000000
      3859        34  SAPS      C11             2.9937843673      -24.4517659954       18.8057771684  MEMB      34              0.0000000000
      3860        34  SAPS      H11A            3.0715043554      -23.8802665475       17.8562147970  MEMB      34              0.0000000000
      3861        34  SAPS      H11B            2.9787018392      -25.5256283534       18.5213247601  MEMB      34              0.0000000000
      3862        34  SAPS      P               5.1923633329      -25.1641108465       20.2251587031  MEMB      34              0.0000000000
      3863        34  SAPS      O13             6.3410644258      -24.3128298042       20.7075285299  MEMB      34              0.0000000000
      3864        34  SAPS      O14             4.6531513870      -26.2633481359       21.1026872549  MEMB      34              0.0000000000
      3865        34  SAPS      O12             3.9365290737      -24.2070918672       19.8423431231  MEMB      34              0.0000000000
      3866        34  SAPS      O11             5.6128470385      -25.7159386162       18.7840785923  MEMB      34              0.0000000000
      3867        34  SAPS      C1              6.6028610409      -25.0845639050       17.9478187046  MEMB      34              0.0000000000
      3868        34  SAPS      HA              6.9058068543      -24.0672155986       18.2757620869  MEMB      34              0.0000000000
      3869        34  SAPS      HB              7.5537647587      -25.6590700211       17.9545909619  MEMB      34              0.0000000000
      3870        34  SAPS      C2              6.1551103647      -25.0989595743       16.4287773061  MEMB      34              0.0000000000
      3871        34  SAPS      HS              7.0155826838      -24.6711241987       15.8712243108  MEMB      34              0.0000000000
      3872        34  SAPS      O21             4.8776659156      -24.3922619090       16.2066858014  MEMB      34              0.0000000000
      3873        34  SAPS      C21             4.9806435296      -23.4607517805       15.2318372233  MEMB      34              0.0000000000
      3874        34  SAPS      O22             6.0068701860      -23.0680633326       14.7202848805  MEMB      34              0.0000000000
      3875        34  SAPS      C22             3.6410467894      -22.9264513582       14.9370812226  MEMB      34              0.0000000000
      3876        34  SAPS      H2R             2.8923049248      -23.2815146108       15.6771058502  MEMB      34              0.0000000000
      3877        34  SAPS      H2S             3.7094964822      -21.8220419206       15.0366571034  MEMB      34              0.0000000000
      3878        34  SAPS      C3              5.9006603266      -26.4926423080       15.9659503171  MEMB      34              0.0000000000
      3879        34  SAPS      HX              4.9535990902      -26.9171420139       16.3624296450  MEMB      34              0.0000000000
      3880        34  SAPS      HY              6.6424791775      -27.1857093729       16.4172643763  MEMB      34              0.0000000000
      3881        34  SAPS      O31             6.0387489625      -26.5048438917       14.5403302722  MEMB      34              0.0000000000
      3882        34  SAPS      C31             5.0349479406      -26.9431344879       13.8069924218  MEMB      34              0.0000000000
      3883        34  SAPS      O32             3.9541472689      -27.2621908474       14.3001035353  MEMB      34              0.0000000000
      3884        34  SAPS      C32             5.2999372243      -27.0390624566       12.3736485323  MEMB      34              0.0000000000
      3885        34  SAPS      H2X             6.1150042859      -27.7673671289       12.1747541487  MEMB      34              0.0000000000
      3886        34  SAPS      H2Y             5.5021755749      -26.0584749997       11.8921212400  MEMB      34              0.0000000000
      3887        34  SAPS      C23             3.2724722950      -23.3369453087       13.4978224176  MEMB      34              0.0000000000
      3888        34  SAPS      H3R             3.3714946523      -24.4349999362       13.3607402299  MEMB      34              0.0000000000
      3889        34  SAPS      H3S             4.0422034811      -22.9356549613       12.8044242768  MEMB      34              0.0000000000
      3890        34  SAPS      C24             1.8990904184      -22.8525849582       12.9956185402  MEMB      34              0.0000000000
      3891        34  SAPS      H4R             1.8580136158      -22.8039649374       11.8864436018  MEMB      34              0.0000000000
      3892        34  SAPS      H4S             1.7273640015      -21.8233599805       13.3770985833  MEMB      34              0.0000000000
      3893        34  SAPS      C25             0.6729191696      -23.7464275148       13.3346962351  MEMB      34              0.0000000000
      3894        34  SAPS      H5R             0.0740333275      -23.4220939209       14.1984918196  MEMB      34              0.0000000000
      3895        34  SAPS      C26             0.1854704252      -24.7294450988       12.6057929592  MEMB      34              0.0000000000
      3896        34  SAPS      H6R            -0.7266830521      -25.1916570856       13.0111770547  MEMB      34              0.0000000000
      3897        34  SAPS      C27             0.5992483278      -25.2937920140       11.2901360638  MEMB      34              0.0000000000
      3898        34  SAPS      H7R             0.5572646799      -26.3789546181       11.5246137869  MEMB      34              0.0000000000
      3899        34  SAPS      H7S             1.6834543641      -25.1544385025       11.0916444224  MEMB      34              0.0000000000
      3900        34  SAPS      C28            -0.2194442476      -25.0503063836       10.0316186534  MEMB      34              0.0000000000
      3901        34  SAPS      H8R            -1.0008088578      -25.7972456926        9.8277772117  MEMB      34              0.0000000000
      3902        34  SAPS      C29            -0.1108253547      -24.0919501089        9.1723586480  MEMB      34              0.0000000000
      3903        34  SAPS      H9R            -0.8214697348      -23.9994012611        8.3378420900  MEMB      34              0.0000000000
      3904        34  SAPS      C210            0.8149134186      -22.9329899442        9.1338118108  MEMB      34              0.0000000000
      3905        34  SAPS      H10R            0.8418257868      -22.4043497741       10.1106105016  MEMB      34              0.0000000000
      3906        34  SAPS      H10S            0.2968231944      -22.1682632231        8.5164809471  MEMB      34              0.0000000000
      3907        34  SAPS      C211            2.1701017806      -23.0313103150        8.5693714715  MEMB      34              0.0000000000
      3908        34  SAPS      H11R            2.8868432538      -23.2294741087        9.3799349989  MEMB      34              0.0000000000
      3909        34  SAPS      C212            2.4813051487      -22.9844018398        7.2827134051  MEMB      34              0.0000000000
      3910        34  SAPS      H12R            3.5588999143      -23.0605806394        7.0753826233  MEMB      34              0.0000000000
      3911        34  SAPS      C213            1.5631891633      -22.7712095752        6.1403461103  MEMB      34              0.0000000000
      3912        34  SAPS      H13R            1.9585889601      -22.1926757231        5.2782100059  MEMB      34              0.0000000000
      3913        34  SAPS      H13S            0.7160459892      -22.1130857468        6.4293835879  MEMB      34              0.0000000000
      3914        34  SAPS      C214            0.9810752202      -24.0908402765        5.6494664021  MEMB      34              0.0000000000
      3915        34  SAPS      H14R            0.9019581763      -24.8926747187        6.3983337184  MEMB      34              0.0000000000
      3916        34  SAPS      C215            0.4869258247      -24.3269896521        4.4395338978  MEMB      34              0.0000000000
      3917        34  SAPS      H15R            0.1712592451      -25.3680165556        4.2763852253  MEMB      34              0.0000000000
      3918        34  SAPS      C216            0.3159895288      -23.3942592266        3.2581922492  MEMB      34              0.0000000000
      3919        34  SAPS      H16R            0.0336274058      -22.3553170544        3.5324038246  MEMB      34              0.0000000000
      3920        34  SAPS      H16S           -0.6018673035      -23.7511285011        2.7438939952  MEMB      34              0.0000000000
      3921        34  SAPS      C217            1.5163164700      -23.3491791584        2.2969328799  MEMB      34              0.0000000000
      3922        34  SAPS      H17R            1.6339581833      -24.4177721284        2.0165925410  MEMB      34              0.0000000000
      3923        34  SAPS      H17S            2.4427327251      -22.9473644181        2.7602012048  MEMB      34              0.0000000000
      3924        34  SAPS      C218            1.2548825027      -22.5250454065        0.9798606683  MEMB      34              0.0000000000
      3925        34  SAPS      H18R            0.9176539102      -21.4967126195        1.2311162514  MEMB      34              0.0000000000
      3926        34  SAPS      H18S            0.5450316993      -23.0916372286        0.3400112710  MEMB      34              0.0000000000
      3927        34  SAPS      C219            2.4800235956      -22.4116512692        0.0586394422  MEMB      34              0.0000000000
      3928        34  SAPS      H19R            2.2365414739      -21.9625041728       -0.9279229994  MEMB      34              0.0000000000
      3929        34  SAPS      H19S            2.9912368466      -23.3713822536       -0.1691732934  MEMB      34              0.0000000000
      3930        34  SAPS      C220            3.5763784665      -21.4113481401        0.6045401910  MEMB      34              0.0000000000
      3931        34  SAPS      H20R            3.2067852627      -20.3912893628        0.3653729776  MEMB      34              0.0000000000
      3932        34  SAPS      H20S            4.5556172189      -21.5060825499        0.0883647828  MEMB      34              0.0000000000
      3933        34  SAPS      H20T            3.7176369691      -21.4380182897        1.7062014117  MEMB      34              0.0000000000
      3934        34  SAPS      C33             4.2474197160      -27.9299245171       11.7053273617  MEMB      34              0.0000000000
      3935        34  SAPS      H3X             3.2227588385      -27.5125819945       11.8064032641  MEMB      34              0.0000000000
      3936        34  SAPS      H3Y             4.4064452115      -28.9435190614       12.1315409264  MEMB      34              0.0000000000
      3937        34  SAPS      C34             4.3322973452      -28.1453852093       10.2636850574  MEMB      34              0.0000000000
      3938        34  SAPS      H4X             4.2796685432      -29.2150570531        9.9681290457  MEMB      34              0.0000000000
      3939        34  SAPS      H4Y             5.3064856002      -27.6469294914       10.0717995639  MEMB      34              0.0000000000
      3940        34  SAPS      C35             3.1817296547      -27.6447833687        9.5086146093  MEMB      34              0.0000000000
      3941        34  SAPS      H5X             3.1221289327      -26.5409212467        9.6193268965  MEMB      34              0.0000000000
      3942        34  SAPS      H5Y             2.1608934460      -27.9479410844        9.8253320644  MEMB      34              0.0000000000
      3943        34  SAPS      C36             3.2628505710      -27.7972524197        7.9864381482  MEMB      34              0.0000000000
      3944        34  SAPS      H6X             2.4576348542      -27.1146553207        7.6400145317  MEMB      34              0.0000000000
      3945        34  SAPS      H6Y             3.2336399879      -28.8816165177        7.7463920395  MEMB      34              0.0000000000
      3946        34  SAPS      C37             4.5820342816      -27.3929780489        7.2551647648  MEMB      34              0.0000000000
      3947        34  SAPS      H7X             5.4061536347      -28.1202859194        7.4169418093  MEMB      34              0.0000000000
      3948        34  SAPS      H7Y             4.7564831604      -26.4359044484        7.7917271590  MEMB      34              0.0000000000
      3949        34  SAPS      C38             4.3419202054      -27.0222126158        5.8278475846  MEMB      34              0.0000000000
      3950        34  SAPS      H8X             5.1212350502      -26.3238359944        5.4546729872  MEMB      34              0.0000000000
      3951        34  SAPS      H8Y             3.4020727950      -26.4297645012        5.8242555005  MEMB      34              0.0000000000
      3952        34  SAPS      C39             4.2134178664      -28.2662458971        4.9372103951  MEMB      34              0.0000000000
      3953        34  SAPS      H9X             3.2803460569      -28.8226889372        5.1697376175  MEMB      34              0.0000000000
      3954        34  SAPS      H9Y             5.1159034668      -28.9050240257        5.0458565655  MEMB      34              0.0000000000
      3955        34  SAPS      C310            4.0676985444      -28.0974341449        3.3757394666  MEMB      34              0.0000000000
      3956        34  SAPS      H10X            3.1299682282      -27.5202657046        3.2278903389  MEMB      34              0.0000000000
      3957        34  SAPS      H10Y            3.9411378646      -29.0860781598        2.8849380747  MEMB      34              0.0000000000
      3958        34  SAPS      C311            5.2697686596      -27.3356861267        2.8410297167  MEMB      34              0.0000000000
      3959        34  SAPS      H11X            6.1711436179      -27.9825481397        2.7825982184  MEMB      34              0.0000000000
      3960        34  SAPS      H11Y            5.5791890231      -26.4067095913        3.3659905237  MEMB      34              0.0000000000
      3961        34  SAPS      C312            4.8564826986      -26.7072499431        1.4499564750  MEMB      34              0.0000000000
      3962        34  SAPS      H12X            5.7555621529      -26.2002519714        1.0389447004  MEMB      34              0.0000000000
      3963        34  SAPS      H12Y            4.2207329193      -25.8219765471        1.6654414134  MEMB      34              0.0000000000
      3964        34  SAPS      C313            4.2633971656      -27.6724326455        0.4431414573  MEMB      34              0.0000000000
      3965        34  SAPS      H13X            3.3580478574      -28.1250852185        0.9011482199  MEMB      34              0.0000000000
      3966        34  SAPS      H13Y            4.9837482884      -28.5080521818        0.3121616928  MEMB      34              0.0000000000
      3967        34  SAPS      C314            4.1585033431      -26.9935661256       -0.9306573267  MEMB      34              0.0000000000
      3968        34  SAPS      H14X            4.6834074019      -27.5526062018       -1.7345684090  MEMB      34              0.0000000000
      3969        34  SAPS      H14Y            4.7407651641      -26.0476967615       -0.9056880657  MEMB      34              0.0000000000
      3970        34  SAPS      C315            2.7206863238      -26.7933464928       -1.5130410441  MEMB      34              0.0000000000
      3971        34  SAPS      H15X            2.3415402003      -27.8208540672       -1.6995823608  MEMB      34              0.0000000000
      3972        34  SAPS      H15Y            2.9080739599      -26.3181219003       -2.4996337588  MEMB      34              0.0000000000
      3973        34  SAPS      C316            1.5632372697      -26.2110709731       -0.6035539484  MEMB      34              0.0000000000
      3974        34  SAPS      H16X            1.8030906049      -25.2887040369       -0.0325617281  MEMB      34              0.0000000000
      3975        34  SAPS      H16Y            1.2735508932      -26.9613745968        0.1628971132  MEMB      34              0.0000000000
      3976        34  SAPS      C317            0.3016733841      -25.9065671818       -1.4555124515  MEMB      34              0.0000000000
      3977        34  SAPS      H17X           -0.4880870247      -25.6461327389       -0.7187806126  MEMB      34              0.0000000000
      3978        34  SAPS      H17Y           -0.0384539435      -26.7981471866       -2.0244762040  MEMB      34              0.0000000000
      3979        34  SAPS      C318            0.6120887199      -24.8300377874       -2.4001865434  MEMB      34              0.0000000000
      3980        34  SAPS      H18X           -0.3014798068      -24.4749689685       -2.9232926549  MEMB      34              0.0000000000
      3981        34  SAPS      H18Y            1.2652245937      -25.0420597005       -3.2735599427  MEMB      34              0.0000000000
      3982        34  SAPS      H18Z            1.0789204958      -24.0016618033       -1.8255715555  MEMB      34              0.0000000000
      3983        35  SAPC      N              22.6413146981       -5.0887324614       21.2504057225  MEMB      35              0.0000000000
      3984        35  SAPC      C12            24.0211759977       -5.4854333589       21.6968521911  MEMB      35              0.0000000000
      3985        35  SAPC      H12A           23.8884284189       -5.9870133913       22.6440560254  MEMB      35              0.0000000000
      3986        35  SAPC      H12B           24.5869890004       -4.5819804730       21.8701397967  MEMB      35              0.0000000000
      3987        35  SAPC      C13            21.7938273837       -4.4387609310       22.3133285130  MEMB      35              0.0000000000
      3988        35  SAPC      H13A           22.1513199084       -3.5184151252       22.7510071919  MEMB      35              0.0000000000
      3989        35  SAPC      H13B           20.8215988229       -4.2943467512       21.8657614614  MEMB      35              0.0000000000
      3990        35  SAPC      H13C           21.7104719084       -4.9986996811       23.2330678376  MEMB      35              0.0000000000
      3991        35  SAPC      C14            22.6420621922       -4.1929744372       20.0865919890  MEMB      35              0.0000000000
      3992        35  SAPC      H14A           23.3026088295       -4.5044859225       19.2909547238  MEMB      35              0.0000000000
      3993        35  SAPC      H14B           21.6240522285       -4.1239317425       19.7326299463  MEMB      35              0.0000000000
      3994        35  SAPC      H14C           23.0086946596       -3.2448928234       20.4514508354  MEMB      35              0.0000000000
      3995        35  SAPC      C15            21.9609571169       -6.3361612435       20.8224003085  MEMB      35              0.0000000000
      3996        35  SAPC      H15A           22.6076898063       -6.9595091098       20.2227550890  MEMB      35              0.0000000000
      3997        35  SAPC      H15B           21.7110005704       -6.8867434047       21.7172641103  MEMB      35              0.0000000000
      3998        35  SAPC      H15C           21.0767107274       -6.0908217780       20.2529120239  MEMB      35              0.0000000000
      3999        35  SAPC      C11            24.9736027598       -6.3414928137       20.8035843092  MEMB      35              0.0000000000
      4000        35  SAPC      H11A           24.4439063511       -7.1639396598       20.2769689023  MEMB      35              0.0000000000
      4001        35  SAPC      H11B           25.6422533879       -6.9505128547       21.4488145490  MEMB      35              0.0000000000
      4002        35  SAPC      P              26.3998695469       -5.8347165047       18.5863532444  MEMB      35              0.0000000000
      4003        35  SAPC      O13            27.3908013669       -4.7597955805       18.5458704592  MEMB      35              0.0000000000
      4004        35  SAPC      O14            26.9383538669       -7.2207127493       18.8103036875  MEMB      35              0.0000000000
      4005        35  SAPC      O12            25.4880780526       -5.3857268958       19.8002509658  MEMB      35              0.0000000000
      4006        35  SAPC      O11            25.5242662225       -5.9247197605       17.2840586088  MEMB      35              0.0000000000
      4007        35  SAPC      C1             24.6918135323       -4.7925589540       16.8696874300  MEMB      35              0.0000000000
      4008        35  SAPC      HA             24.1107504988       -4.2563590810       17.6501850854  MEMB      35              0.0000000000
      4009        35  SAPC      HB             25.3212235253       -3.9434055645       16.5274851117  MEMB      35              0.0000000000
      4010        35  SAPC      C2             23.7879500756       -5.2426201530       15.7325582780  MEMB      35              0.0000000000
      4011        35  SAPC      HS             22.9668176756       -5.8774671144       16.1288307167  MEMB      35              0.0000000000
      4012        35  SAPC      O21            24.5146352234       -5.8182195095       14.7080722807  MEMB      35              0.0000000000
      4013        35  SAPC      C21            23.7597148587       -6.5587775775       13.8428934726  MEMB      35              0.0000000000
      4014        35  SAPC      O22            22.6363596033       -7.0194688979       14.0606962773  MEMB      35              0.0000000000
      4015        35  SAPC      C22            24.5070061166       -6.8184156565       12.5218336724  MEMB      35              0.0000000000
      4016        35  SAPC      H2R            24.5306220751       -5.7585086595       12.1896283589  MEMB      35              0.0000000000
      4017        35  SAPC      H2S            25.4933184651       -7.2792137149       12.7435861482  MEMB      35              0.0000000000
      4018        35  SAPC      C3             23.0098194466       -4.0568028487       15.1060452990  MEMB      35              0.0000000000
      4019        35  SAPC      HX             22.3771242966       -3.5878748047       15.8897059709  MEMB      35              0.0000000000
      4020        35  SAPC      HY             22.4080686271       -4.4994133588       14.2836626583  MEMB      35              0.0000000000
      4021        35  SAPC      O31            23.8980349720       -3.0541076184       14.6175006354  MEMB      35              0.0000000000
      4022        35  SAPC      C31            23.3716639521       -1.9311547338       14.1990091873  MEMB      35              0.0000000000
      4023        35  SAPC      O32            22.2838545338       -1.4936217816       14.4950663751  MEMB      35              0.0000000000
      4024        35  SAPC      C32            24.3755589799       -1.2514675312       13.3341570730  MEMB      35              0.0000000000
      4025        35  SAPC      H2X            25.0309776691       -0.5695210566       13.9169916527  MEMB      35              0.0000000000
      4026        35  SAPC      H2Y            23.8729623712       -0.6351882208       12.5583237637  MEMB      35              0.0000000000
      4027        35  SAPC      C23            23.7500267185       -7.7415936184       11.5825229976  MEMB      35              0.0000000000
      4028        35  SAPC      H3R            22.7563686833       -7.2768099128       11.4066242768  MEMB      35              0.0000000000
      4029        35  SAPC      H3S            23.6682204737       -8.6892224539       12.1566560977  MEMB      35              0.0000000000
      4030        35  SAPC      C24            24.2710400194       -8.0452292868       10.1807270069  MEMB      35              0.0000000000
      4031        35  SAPC      H4R            25.2940029060       -8.4672353716       10.2796152897  MEMB      35              0.0000000000
      4032        35  SAPC      H4S            24.3854053960       -7.0804731463        9.6417581874  MEMB      35              0.0000000000
      4033        35  SAPC      C25            23.2596846155       -8.9615593239        9.5817355161  MEMB      35              0.0000000000
      4034        35  SAPC      H5R            23.2666217776       -9.9793716994        9.9988807976  MEMB      35              0.0000000000
      4035        35  SAPC      C26            22.4371300732       -8.7831265627        8.5108492273  MEMB      35              0.0000000000
      4036        35  SAPC      H6R            21.6928937848       -9.5745408683        8.3382925491  MEMB      35              0.0000000000
      4037        35  SAPC      C27            22.3398677953       -7.6633785427        7.5293932008  MEMB      35              0.0000000000
      4038        35  SAPC      H7R            22.3485283259       -8.0547603128        6.4896494776  MEMB      35              0.0000000000
      4039        35  SAPC      H7S            23.2962354499       -7.0984606939        7.5528318773  MEMB      35              0.0000000000
      4040        35  SAPC      C28            21.1755576218       -6.7287520267        7.7349681586  MEMB      35              0.0000000000
      4041        35  SAPC      H8R            21.1147115754       -6.1914882890        8.6929063268  MEMB      35              0.0000000000
      4042        35  SAPC      C29            20.1892915159       -6.3407481139        6.8776912518  MEMB      35              0.0000000000
      4043        35  SAPC      H9R            19.5415688349       -5.5108120004        7.1965352031  MEMB      35              0.0000000000
      4044        35  SAPC      C210           20.1263899502       -6.7803385510        5.4566008459  MEMB      35              0.0000000000
      4045        35  SAPC      H10R           19.4772460532       -7.6815034268        5.4277011521  MEMB      35              0.0000000000
      4046        35  SAPC      H10S           21.0719413336       -7.2717649260        5.1423501545  MEMB      35              0.0000000000
      4047        35  SAPC      C211           19.6520519731       -5.7929010304        4.4091031064  MEMB      35              0.0000000000
      4048        35  SAPC      H11R           18.6328117031       -5.9963038486        4.0488577692  MEMB      35              0.0000000000
      4049        35  SAPC      C212           20.2003885586       -4.7694004381        3.7746998440  MEMB      35              0.0000000000
      4050        35  SAPC      H12R           19.5879533360       -4.1389390926        3.1133060138  MEMB      35              0.0000000000
      4051        35  SAPC      C213           21.5906553444       -4.2334881434        3.9626041349  MEMB      35              0.0000000000
      4052        35  SAPC      H13R           21.9228816988       -3.8280517968        2.9830293677  MEMB      35              0.0000000000
      4053        35  SAPC      H13S           22.2102268458       -5.1537178739        4.0228464640  MEMB      35              0.0000000000
      4054        35  SAPC      C214           21.8266709924       -3.2507544301        5.1098172101  MEMB      35              0.0000000000
      4055        35  SAPC      H14R           21.8161526396       -3.6770973577        6.1237806770  MEMB      35              0.0000000000
      4056        35  SAPC      C215           22.0865698930       -1.9105267114        4.9564262717  MEMB      35              0.0000000000
      4057        35  SAPC      H15R           22.2675313203       -1.2710574738        5.8329719279  MEMB      35              0.0000000000
      4058        35  SAPC      C216           22.1522483459       -1.2267369394        3.5721581912  MEMB      35              0.0000000000
      4059        35  SAPC      H16R           22.9076726293       -1.7515865849        2.9491114759  MEMB      35              0.0000000000
      4060        35  SAPC      H16S           22.6215735886       -0.2400526125        3.7734268048  MEMB      35              0.0000000000
      4061        35  SAPC      C217           20.9262157294       -0.8983953379        2.7039050147  MEMB      35              0.0000000000
      4062        35  SAPC      H17R           20.1846753298       -0.1428429820        3.0409213250  MEMB      35              0.0000000000
      4063        35  SAPC      H17S           20.3558201539       -1.8486888337        2.6270140504  MEMB      35              0.0000000000
      4064        35  SAPC      C218           21.2219231988       -0.4930242549        1.2647563102  MEMB      35              0.0000000000
      4065        35  SAPC      H18R           22.0929227838        0.1915425538        1.3487144450  MEMB      35              0.0000000000
      4066        35  SAPC      H18S           20.3395327372        0.0657563896        0.8859807294  MEMB      35              0.0000000000
      4067        35  SAPC      C219           21.6033571044       -1.7303970752        0.3773643218  MEMB      35              0.0000000000
      4068        35  SAPC      H19R           20.9385633602       -2.6008194829        0.5637378356  MEMB      35              0.0000000000
      4069        35  SAPC      H19S           22.5891773236       -2.0777646556        0.7539481115  MEMB      35              0.0000000000
      4070        35  SAPC      C220           21.7344444230       -1.3585599237       -1.1167852666  MEMB      35              0.0000000000
      4071        35  SAPC      H20R           20.7938580958       -1.1020355156       -1.6495262089  MEMB      35              0.0000000000
      4072        35  SAPC      H20S           22.3067977097       -2.1916781332       -1.5779225044  MEMB      35              0.0000000000
      4073        35  SAPC      H20T           22.3608640438       -0.4410002132       -1.1148561944  MEMB      35              0.0000000000
      4074        35  SAPC      C33            25.2135375457       -2.3238479066       12.5066538077  MEMB      35              0.0000000000
      4075        35  SAPC      H3X            25.6770391415       -3.2128206484       12.9854180151  MEMB      35              0.0000000000
      4076        35  SAPC      H3Y            26.0624110655       -1.6789311917       12.1938964629  MEMB      35              0.0000000000
      4077        35  SAPC      C34            24.4224612593       -2.8322006548       11.3817931251  MEMB      35              0.0000000000
      4078        35  SAPC      H4X            23.8024475674       -2.0827484606       10.8449265605  MEMB      35              0.0000000000
      4079        35  SAPC      H4Y            23.8453693346       -3.6953249981       11.7771438739  MEMB      35              0.0000000000
      4080        35  SAPC      C35            25.4595325593       -3.2553935838       10.3317971746  MEMB      35              0.0000000000
      4081        35  SAPC      H5X            26.1918161051       -3.9354655064       10.8171671247  MEMB      35              0.0000000000
      4082        35  SAPC      H5Y            26.0010027697       -2.3279422481       10.0472538026  MEMB      35              0.0000000000
      4083        35  SAPC      C36            24.8517017561       -3.7759870951        9.0206489030  MEMB      35              0.0000000000
      4084        35  SAPC      H6X            24.5110309906       -2.8458365912        8.5175744594  MEMB      35              0.0000000000
      4085        35  SAPC      H6Y            23.8971762751       -4.3270464822        9.1604184773  MEMB      35              0.0000000000
      4086        35  SAPC      C37            25.9565608027       -4.5733736492        8.3177870995  MEMB      35              0.0000000000
      4087        35  SAPC      H7X            26.3979955428       -5.4768421248        8.7902291238  MEMB      35              0.0000000000
      4088        35  SAPC      H7Y            26.8598792656       -3.9281663674        8.2725766843  MEMB      35              0.0000000000
      4089        35  SAPC      C38            25.6987774807       -4.6598190359        6.7603038437  MEMB      35              0.0000000000
      4090        35  SAPC      H8X            25.4493441924       -3.6506504273        6.3682798179  MEMB      35              0.0000000000
      4091        35  SAPC      H8Y            24.7614603602       -5.2397060001        6.6207024939  MEMB      35              0.0000000000
      4092        35  SAPC      C39            26.7539352568       -5.3975136648        5.9513454557  MEMB      35              0.0000000000
      4093        35  SAPC      H9X            27.6680484473       -4.7940774562        6.1373107322  MEMB      35              0.0000000000
      4094        35  SAPC      H9Y            26.5509179390       -5.2862176860        4.8647376534  MEMB      35              0.0000000000
      4095        35  SAPC      C310           27.2093367605       -6.8439363862        6.3435361406  MEMB      35              0.0000000000
      4096        35  SAPC      H10X           27.5771653388       -6.8261485571        7.3917281743  MEMB      35              0.0000000000
      4097        35  SAPC      H10Y           28.0097997115       -7.0649888323        5.6054879141  MEMB      35              0.0000000000
      4098        35  SAPC      C311           26.2027973435       -8.0082212833        6.1603786686  MEMB      35              0.0000000000
      4099        35  SAPC      H11X           25.2464807416       -7.7201660755        6.6470032754  MEMB      35              0.0000000000
      4100        35  SAPC      H11Y           26.5964105862       -8.9432666858        6.6132355772  MEMB      35              0.0000000000
      4101        35  SAPC      C312           25.8973131964       -8.2542501073        4.6817069845  MEMB      35              0.0000000000
      4102        35  SAPC      H12X           25.5960414859       -9.2921157042        4.4240420184  MEMB      35              0.0000000000
      4103        35  SAPC      H12Y           26.7501872208       -7.9376084387        4.0440033972  MEMB      35              0.0000000000
      4104        35  SAPC      C313           24.5519026507       -7.5347479259        4.2527313151  MEMB      35              0.0000000000
      4105        35  SAPC      H13X           24.7282909623       -6.4403374060        4.3267159496  MEMB      35              0.0000000000
      4106        35  SAPC      H13Y           23.8028730168       -7.8398377368        5.0144371941  MEMB      35              0.0000000000
      4107        35  SAPC      C314           24.1315224572       -7.6771363772        2.7608354413  MEMB      35              0.0000000000
      4108        35  SAPC      H14X           23.2559218406       -6.9963095530        2.6966545806  MEMB      35              0.0000000000
      4109        35  SAPC      H14Y           23.7293918461       -8.7019040232        2.6109592572  MEMB      35              0.0000000000
      4110        35  SAPC      C315           25.1629444186       -7.3612326426        1.6295427044  MEMB      35              0.0000000000
      4111        35  SAPC      H15X           24.7637032523       -7.1347005007        0.6178074522  MEMB      35              0.0000000000
      4112        35  SAPC      H15Y           25.8579032634       -8.2231559003        1.5376630592  MEMB      35              0.0000000000
      4113        35  SAPC      C316           26.1509219168       -6.1402158908        1.8651300941  MEMB      35              0.0000000000
      4114        35  SAPC      H16X           26.9453144708       -6.0356277199        1.0955045928  MEMB      35              0.0000000000
      4115        35  SAPC      H16Y           26.6336584914       -6.2447953012        2.8602945549  MEMB      35              0.0000000000
      4116        35  SAPC      C317           25.3977791952       -4.8162553559        1.8768539943  MEMB      35              0.0000000000
      4117        35  SAPC      H17X           26.1265742704       -4.1778418969        2.4205521636  MEMB      35              0.0000000000
      4118        35  SAPC      H17Y           24.4453695970       -4.9005670588        2.4426536639  MEMB      35              0.0000000000
      4119        35  SAPC      C318           25.0016530864       -4.1441328987        0.5063969741  MEMB      35              0.0000000000
      4120        35  SAPC      H18X           25.8452456773       -3.9365228464       -0.1861124807  MEMB      35              0.0000000000
      4121        35  SAPC      H18Y           24.4456961216       -3.1943669818        0.6586386219  MEMB      35              0.0000000000
      4122        35  SAPC      H18Z           24.2437426359       -4.7393976689       -0.0463704094  MEMB      35              0.0000000000
      4123        36  POPC      N              -6.3403700758      -26.2526420552       20.6938869619  MEMB      36              0.0000000000
      4124        36  POPC      C12            -5.4652482883      -26.6659404832       19.6310554710  MEMB      36              0.0000000000
      4125        36  POPC      H12A           -5.9588692275      -27.3579335089       18.9648091218  MEMB      36              0.0000000000
      4126        36  POPC      H12B           -4.6599158357      -27.2016419962       20.1115381648  MEMB      36              0.0000000000
      4127        36  POPC      C13            -7.6873553990      -25.7901904158       20.2464864602  MEMB      36              0.0000000000
      4128        36  POPC      H13A           -8.0520353438      -26.5338415334       19.5533835693  MEMB      36              0.0000000000
      4129        36  POPC      H13B           -8.2918718752      -25.6594135123       21.1318434746  MEMB      36              0.0000000000
      4130        36  POPC      H13C           -7.6468429738      -24.8768365370       19.6715574359  MEMB      36              0.0000000000
      4131        36  POPC      C14            -6.5473488372      -27.4250867602       21.5603863212  MEMB      36              0.0000000000
      4132        36  POPC      H14A           -7.3459351651      -27.2075717828       22.2541782906  MEMB      36              0.0000000000
      4133        36  POPC      H14B           -6.7718924170      -28.3055654033       20.9766590186  MEMB      36              0.0000000000
      4134        36  POPC      H14C           -5.6336772537      -27.6987772239       22.0670400260  MEMB      36              0.0000000000
      4135        36  POPC      C15            -5.6859134915      -25.1174257497       21.5066396790  MEMB      36              0.0000000000
      4136        36  POPC      H15A           -4.7168998721      -25.4764647316       21.8204925972  MEMB      36              0.0000000000
      4137        36  POPC      H15B           -6.3567560258      -24.9087588317       22.3269007999  MEMB      36              0.0000000000
      4138        36  POPC      H15C           -5.5795291416      -24.2228612968       20.9109579843  MEMB      36              0.0000000000
      4139        36  POPC      C11            -4.8335172957      -25.5845498529       18.6875951042  MEMB      36              0.0000000000
      4140        36  POPC      H11A           -4.2167504060      -26.1264035868       17.9390538107  MEMB      36              0.0000000000
      4141        36  POPC      H11B           -4.1732875493      -24.9605569809       19.3271656784  MEMB      36              0.0000000000
      4142        36  POPC      P              -5.4023670585      -23.4693046573       17.3253186557  MEMB      36              0.0000000000
      4143        36  POPC      O13            -5.5272218650      -22.4607611511       18.3644301582  MEMB      36              0.0000000000
      4144        36  POPC      O14            -6.1024782446      -23.2420907197       16.0449377915  MEMB      36              0.0000000000
      4145        36  POPC      O12            -5.8029307562      -24.8953171514       17.9237828216  MEMB      36              0.0000000000
      4146        36  POPC      O11            -3.8982706536      -23.5108738555       17.0154805726  MEMB      36              0.0000000000
      4147        36  POPC      C1             -3.2952376422      -24.4946418799       16.1163199786  MEMB      36              0.0000000000
      4148        36  POPC      HA             -3.9783677158      -25.3498128183       15.9256975113  MEMB      36              0.0000000000
      4149        36  POPC      HB             -2.4004924959      -24.8152017438       16.6916403204  MEMB      36              0.0000000000
      4150        36  POPC      C2             -2.7914153796      -23.7839289373       14.8789299201  MEMB      36              0.0000000000
      4151        36  POPC      HS             -2.2855068090      -22.8529236849       15.2130060123  MEMB      36              0.0000000000
      4152        36  POPC      O21            -3.8880508498      -23.5178129854       13.9422907075  MEMB      36              0.0000000000
      4153        36  POPC      C21            -3.6865983479      -22.6301741156       12.9370652028  MEMB      36              0.0000000000
      4154        36  POPC      O22            -2.6582756039      -22.0726538501       12.6443379562  MEMB      36              0.0000000000
      4155        36  POPC      C22            -4.9032140492      -22.6010058542       12.0688945592  MEMB      36              0.0000000000
      4156        36  POPC      H2R            -5.2675702091      -23.6102554982       11.7808303623  MEMB      36              0.0000000000
      4157        36  POPC      H2S            -4.7666783953      -22.0477855289       11.1151510880  MEMB      36              0.0000000000
      4158        36  POPC      C3             -1.6861043043      -24.6325509091       14.2153426175  MEMB      36              0.0000000000
      4159        36  POPC      HX             -0.9159703566      -24.8277356444       14.9919491541  MEMB      36              0.0000000000
      4160        36  POPC      HY             -1.3194933733      -23.9155868082       13.4499143326  MEMB      36              0.0000000000
      4161        36  POPC      O31            -2.1318915912      -25.9220358732       13.6844310709  MEMB      36              0.0000000000
      4162        36  POPC      C31            -1.8726497482      -26.3000268364       12.4625307212  MEMB      36              0.0000000000
      4163        36  POPC      O32            -1.0589009672      -25.8468871743       11.6812058203  MEMB      36              0.0000000000
      4164        36  POPC      C32            -2.9443641992      -27.3666813030       12.1634786351  MEMB      36              0.0000000000
      4165        36  POPC      H2X            -3.8440096155      -27.2582289407       12.8062832581  MEMB      36              0.0000000000
      4166        36  POPC      H2Y            -2.4309657524      -28.3445324662       12.2841011657  MEMB      36              0.0000000000
      4167        36  POPC      C23            -5.9477223900      -21.8489552080       12.8963449049  MEMB      36              0.0000000000
      4168        36  POPC      H3R            -5.5483103168      -20.8422090001       13.1438385678  MEMB      36              0.0000000000
      4169        36  POPC      H3S            -6.2553526170      -22.2797589828       13.8731218341  MEMB      36              0.0000000000
      4170        36  POPC      C24            -7.1639054389      -21.6628723171       12.1439546704  MEMB      36              0.0000000000
      4171        36  POPC      H4R            -6.8660161417      -21.1556463386       11.2014558648  MEMB      36              0.0000000000
      4172        36  POPC      H4S            -7.8641635368      -20.9727354723       12.6613240571  MEMB      36              0.0000000000
      4173        36  POPC      C25            -7.8702187091      -22.8752058312       11.5725905614  MEMB      36              0.0000000000
      4174        36  POPC      H5R            -7.1617470270      -23.3726430702       10.8762108722  MEMB      36              0.0000000000
      4175        36  POPC      H5S            -8.8041033219      -22.6249994531       11.0252542919  MEMB      36              0.0000000000
      4176        36  POPC      C26            -8.2015346377      -23.9214645985       12.6326884652  MEMB      36              0.0000000000
      4177        36  POPC      H6R            -8.7551002143      -23.4468110999       13.4708951408  MEMB      36              0.0000000000
      4178        36  POPC      H6S            -7.2286216817      -24.1702355865       13.1079509419  MEMB      36              0.0000000000
      4179        36  POPC      C27            -8.6967342462      -25.2695503327       12.0126298952  MEMB      36              0.0000000000
      4180        36  POPC      H7R            -8.7590319335      -26.0813548295       12.7685487585  MEMB      36              0.0000000000
      4181        36  POPC      H7S            -7.8462862944      -25.5751593797       11.3663620201  MEMB      36              0.0000000000
      4182        36  POPC      C28            -9.9614798369      -25.2160398628       11.1526016361  MEMB      36              0.0000000000
      4183        36  POPC      H8R            -9.9051479448      -24.4749426832       10.3268156052  MEMB      36              0.0000000000
      4184        36  POPC      H8S           -10.7505835389      -24.8214841121       11.8278513283  MEMB      36              0.0000000000
      4185        36  POPC      C29           -10.3802905765      -26.5659411840       10.6053633515  MEMB      36              0.0000000000
      4186        36  POPC      H91           -10.7561453937      -27.2950585924       11.3382489946  MEMB      36              0.0000000000
      4187        36  POPC      C210          -10.1018124311      -26.9789168512        9.3541590150  MEMB      36              0.0000000000
      4188        36  POPC      H101          -10.4802726096      -28.0000111278        9.1988045832  MEMB      36              0.0000000000
      4189        36  POPC      C211           -9.3475969600      -26.2345757738        8.2504073863  MEMB      36              0.0000000000
      4190        36  POPC      H11R           -8.5542421630      -26.8911672667        7.8335174354  MEMB      36              0.0000000000
      4191        36  POPC      H11S           -8.7611259334      -25.4038402160        8.6979016270  MEMB      36              0.0000000000
      4192        36  POPC      C212          -10.1731010405      -25.7588396907        7.1472677964  MEMB      36              0.0000000000
      4193        36  POPC      H12R          -10.8913471422      -25.0150741431        7.5537850787  MEMB      36              0.0000000000
      4194        36  POPC      H12S          -10.7166663192      -26.5464027697        6.5828190086  MEMB      36              0.0000000000
      4195        36  POPC      C213           -9.4321296428      -24.8588511841        6.1024596281  MEMB      36              0.0000000000
      4196        36  POPC      H13R           -8.6817036286      -24.1756353468        6.5545635188  MEMB      36              0.0000000000
      4197        36  POPC      H13S          -10.1945801080      -24.2402672005        5.5825135234  MEMB      36              0.0000000000
      4198        36  POPC      C214           -8.5723679178      -25.6590711593        5.1438401889  MEMB      36              0.0000000000
      4199        36  POPC      H14R           -9.1988184487      -26.2543095774        4.4455772215  MEMB      36              0.0000000000
      4200        36  POPC      H14S           -7.9424013537      -26.3635635283        5.7279242556  MEMB      36              0.0000000000
      4201        36  POPC      C215           -7.5952181790      -24.8909004180        4.1823504498  MEMB      36              0.0000000000
      4202        36  POPC      H15R           -6.9380266964      -25.4778838078        3.5056891413  MEMB      36              0.0000000000
      4203        36  POPC      H15S           -6.9055081330      -24.4281334352        4.9202312585  MEMB      36              0.0000000000
      4204        36  POPC      C216           -8.2118423841      -23.7577705063        3.2732171276  MEMB      36              0.0000000000
      4205        36  POPC      H16R           -8.7001696020      -23.0374376783        3.9638528247  MEMB      36              0.0000000000
      4206        36  POPC      H16S           -8.8715953302      -24.1401534138        2.4652381466  MEMB      36              0.0000000000
      4207        36  POPC      C217           -7.1132832326      -23.1148764668        2.4121572832  MEMB      36              0.0000000000
      4208        36  POPC      H17R           -6.5611734440      -23.9380299617        1.9102467286  MEMB      36              0.0000000000
      4209        36  POPC      H17S           -6.3416970262      -22.6242115784        3.0432063329  MEMB      36              0.0000000000
      4210        36  POPC      C218           -7.5548216004      -22.2061636956        1.2275815186  MEMB      36              0.0000000000
      4211        36  POPC      H18R           -6.7216814184      -21.5447398737        0.9070859992  MEMB      36              0.0000000000
      4212        36  POPC      H18S           -8.4501013256      -21.6318657666        1.5484818552  MEMB      36              0.0000000000
      4213        36  POPC      H18T           -7.6085985411      -22.7707502120        0.2722431510  MEMB      36              0.0000000000
      4214        36  POPC      C33            -3.4316531372      -27.3404939795       10.6855807746  MEMB      36              0.0000000000
      4215        36  POPC      H3X            -4.0627319672      -28.2216212488       10.4412950332  MEMB      36              0.0000000000
      4216        36  POPC      H3Y            -2.6039527586      -27.2641241614        9.9484235303  MEMB      36              0.0000000000
      4217        36  POPC      C34            -4.2477556290      -26.0638780344       10.3349001709  MEMB      36              0.0000000000
      4218        36  POPC      H4X            -3.5493265735      -25.2041445602       10.2490148051  MEMB      36              0.0000000000
      4219        36  POPC      H4Y            -5.0538489713      -25.8025732574       11.0534080059  MEMB      36              0.0000000000
      4220        36  POPC      C35            -4.9314020274      -26.3357380717        8.9883732863  MEMB      36              0.0000000000
      4221        36  POPC      H5X            -5.6469165120      -27.1828548317        9.0573164174  MEMB      36              0.0000000000
      4222        36  POPC      H5Y            -4.0902616111      -26.7459188522        8.3895777090  MEMB      36              0.0000000000
      4223        36  POPC      C36            -5.5810283132      -25.2739793835        8.2331803073  MEMB      36              0.0000000000
      4224        36  POPC      H6X            -6.4295811558      -24.8856022589        8.8360428312  MEMB      36              0.0000000000
      4225        36  POPC      H6Y            -6.1546394098      -25.7708349977        7.4217461253  MEMB      36              0.0000000000
      4226        36  POPC      C37            -4.7365485858      -24.1532240547        7.8494343798  MEMB      36              0.0000000000
      4227        36  POPC      H7X            -4.0237066461      -23.8900361492        8.6599332939  MEMB      36              0.0000000000
      4228        36  POPC      H7Y            -5.3977159968      -23.2618988853        7.9015695035  MEMB      36              0.0000000000
      4229        36  POPC      C38            -3.9651972916      -24.2356622483        6.4967677907  MEMB      36              0.0000000000
      4230        36  POPC      H8X            -4.5361033287      -24.8311308566        5.7525872012  MEMB      36              0.0000000000
      4231        36  POPC      H8Y            -2.9592736505      -24.6719613272        6.6758822528  MEMB      36              0.0000000000
      4232        36  POPC      C39            -3.5672754508      -22.8853597484        5.8401390344  MEMB      36              0.0000000000
      4233        36  POPC      H9X            -3.5492218295      -22.1288138449        6.6535470440  MEMB      36              0.0000000000
      4234        36  POPC      H9Y            -4.3133814655      -22.5202485201        5.1023443498  MEMB      36              0.0000000000
      4235        36  POPC      C310           -2.3305572022      -22.8288018146        5.1748892690  MEMB      36              0.0000000000
      4236        36  POPC      H10X           -1.5150087733      -23.1030544888        5.8777321656  MEMB      36              0.0000000000
      4237        36  POPC      H10Y           -2.1683468199      -21.7918017000        4.8106922398  MEMB      36              0.0000000000
      4238        36  POPC      C311           -2.1460368419      -23.7585958131        4.0359970609  MEMB      36              0.0000000000
      4239        36  POPC      H11X           -2.1804120185      -24.7805399307        4.4704732557  MEMB      36              0.0000000000
      4240        36  POPC      H11Y           -1.1576335969      -23.5109061097        3.5932448944  MEMB      36              0.0000000000
      4241        36  POPC      C312           -3.1736292792      -23.6929331598        2.8452809839  MEMB      36              0.0000000000
      4242        36  POPC      H12X           -3.0393866333      -22.6999063701        2.3654922579  MEMB      36              0.0000000000
      4243        36  POPC      H12Y           -4.2200084756      -23.8211506047        3.1959544559  MEMB      36              0.0000000000
      4244        36  POPC      C313           -2.9619995137      -24.7125021247        1.6748657778  MEMB      36              0.0000000000
      4245        36  POPC      H13X           -3.6218171941      -24.3440332069        0.8604990632  MEMB      36              0.0000000000
      4246        36  POPC      H13Y           -3.3799317079      -25.6859104086        2.0097242556  MEMB      36              0.0000000000
      4247        36  POPC      C314           -1.4955362647      -24.6626659909        1.1586661864  MEMB      36              0.0000000000
      4248        36  POPC      H14X           -0.7119541780      -24.8462250660        1.9245799300  MEMB      36              0.0000000000
      4249        36  POPC      H14Y           -1.2851727997      -23.6047402931        0.8924677636  MEMB      36              0.0000000000
      4250        36  POPC      C315           -1.2347955983      -25.5325123435       -0.1146696034  MEMB      36              0.0000000000
      4251        36  POPC      H15X           -0.1263394302      -25.5379201711       -0.1896159289  MEMB      36              0.0000000000
      4252        36  POPC      H15Y           -1.7123433112      -25.1510163118       -1.0424255216  MEMB      36              0.0000000000
      4253        36  POPC      C316           -1.6052275188      -26.9336540281       -0.1254843984  MEMB      36              0.0000000000
      4254        36  POPC      H16X           -1.1914248586      -27.4711999030       -1.0053316627  MEMB      36              0.0000000000
      4255        36  POPC      H16Y           -2.7033698181      -27.0999448993       -0.0980625556  MEMB      36              0.0000000000
      4256        36  POPC      H16Z           -1.1647575551      -27.4980847303        0.7240592411  MEMB      36              0.0000000000
      4257        37  SAPE      N              22.6931070044        7.3418570476       17.0793050496  MEMB      37              0.0000000000
      4258        37  SAPE      HN1            23.4912011594        7.7845630661       16.5806497380  MEMB      37              0.0000000000
      4259        37  SAPE      HN2            22.6466401314        6.3360621273       16.8188870932  MEMB      37              0.0000000000
      4260        37  SAPE      HN3            21.7820008635        7.8391633210       17.0147150762  MEMB      37              0.0000000000
      4261        37  SAPE      C12            23.0637461949        7.5528985360       18.5241351291  MEMB      37              0.0000000000
      4262        37  SAPE      H12A           22.4376591178        6.9525653434       19.2183511974  MEMB      37              0.0000000000
      4263        37  SAPE      H12B           22.8520062394        8.6363523200       18.6490952853  MEMB      37              0.0000000000
      4264        37  SAPE      C11            24.5279619078        7.1182682626       18.7942175980  MEMB      37              0.0000000000
      4265        37  SAPE      H11A           25.3031484158        7.6868915469       18.2373742937  MEMB      37              0.0000000000
      4266        37  SAPE      H11B           24.7186746430        6.1367619879       18.3098675007  MEMB      37              0.0000000000
      4267        37  SAPE      P              24.5894846904        8.2260570141       21.1658291624  MEMB      37              0.0000000000
      4268        37  SAPE      O13            23.1583984135        8.1209468481       21.5255565832  MEMB      37              0.0000000000
      4269        37  SAPE      O14            25.5373650901        8.0910072737       22.3288185879  MEMB      37              0.0000000000
      4270        37  SAPE      O12            24.9097371429        7.1109433854       20.1906467934  MEMB      37              0.0000000000
      4271        37  SAPE      O11            24.9278271221        9.5368582306       20.3914910835  MEMB      37              0.0000000000
      4272        37  SAPE      C1             26.2130662051        9.7109240817       19.8426818196  MEMB      37              0.0000000000
      4273        37  SAPE      HA             26.7821478576       10.1802777972       20.6734491752  MEMB      37              0.0000000000
      4274        37  SAPE      HB             26.6865438998        8.7720079671       19.4841063476  MEMB      37              0.0000000000
      4275        37  SAPE      C2             26.0680806254       10.8162303509       18.8138158819  MEMB      37              0.0000000000
      4276        37  SAPE      HS             25.6636390897       11.7313031701       19.2969201357  MEMB      37              0.0000000000
      4277        37  SAPE      O21            25.2330809917       10.3950980269       17.8063463729  MEMB      37              0.0000000000
      4278        37  SAPE      C21            24.7599885782       11.3033295920       16.8982824161  MEMB      37              0.0000000000
      4279        37  SAPE      O22            24.9978389198       12.5097035081       16.9306168299  MEMB      37              0.0000000000
      4280        37  SAPE      C22            23.8706466462       10.5822591065       15.9391608235  MEMB      37              0.0000000000
      4281        37  SAPE      H2R            24.4829034683       10.1754544615       15.1061102890  MEMB      37              0.0000000000
      4282        37  SAPE      H2S            23.3356083325        9.7816205535       16.4932661178  MEMB      37              0.0000000000
      4283        37  SAPE      C3             27.4315135494       11.1195671231       18.1480581505  MEMB      37              0.0000000000
      4284        37  SAPE      HX             28.2073478354       11.3348844906       18.9135908699  MEMB      37              0.0000000000
      4285        37  SAPE      HY             27.3872055561       12.0797804610       17.5909691776  MEMB      37              0.0000000000
      4286        37  SAPE      O31            27.8961527454       10.0232591045       17.4038155746  MEMB      37              0.0000000000
      4287        37  SAPE      C31            28.1197413928       10.1490232345       16.1389745672  MEMB      37              0.0000000000
      4288        37  SAPE      O32            27.9057501382       11.1092599826       15.4085517114  MEMB      37              0.0000000000
      4289        37  SAPE      C32            28.5785247515        8.7634166612       15.5615918428  MEMB      37              0.0000000000
      4290        37  SAPE      H2X            28.2908740043        8.0070329986       16.3228155665  MEMB      37              0.0000000000
      4291        37  SAPE      H2Y            29.6876301437        8.8031131492       15.6128791611  MEMB      37              0.0000000000
      4292        37  SAPE      C23            22.7905966585       11.5346281454       15.4355537512  MEMB      37              0.0000000000
      4293        37  SAPE      H3R            23.3854710078       12.4371493115       15.1788404977  MEMB      37              0.0000000000
      4294        37  SAPE      H3S            22.2262759688       11.7769993824       16.3613610410  MEMB      37              0.0000000000
      4295        37  SAPE      C24            21.8646816315       10.9230797039       14.3359073714  MEMB      37              0.0000000000
      4296        37  SAPE      H4R            20.9713641756       11.5834690933       14.3220980706  MEMB      37              0.0000000000
      4297        37  SAPE      H4S            21.5485283308        9.9482880108       14.7650338006  MEMB      37              0.0000000000
      4298        37  SAPE      C25            22.6247842339       11.0298046719       12.9609198487  MEMB      37              0.0000000000
      4299        37  SAPE      H5R            22.7840912328       12.0192221033       12.5074063317  MEMB      37              0.0000000000
      4300        37  SAPE      C26            23.0780010854       10.0383437858       12.2189349138  MEMB      37              0.0000000000
      4301        37  SAPE      H6R            23.6807257972       10.2796664996       11.3309672815  MEMB      37              0.0000000000
      4302        37  SAPE      C27            22.9354965167        8.5421478092       12.5794734043  MEMB      37              0.0000000000
      4303        37  SAPE      H7R            22.5431308319        8.3419320589       13.5994165330  MEMB      37              0.0000000000
      4304        37  SAPE      H7S            23.9579153646        8.1344905140       12.7304577621  MEMB      37              0.0000000000
      4305        37  SAPE      C28            22.0582862136        7.7276020575       11.6392138162  MEMB      37              0.0000000000
      4306        37  SAPE      H8R            21.0765778229        7.4051635762       12.0164159823  MEMB      37              0.0000000000
      4307        37  SAPE      C29            22.5820242843        7.2343983168       10.4890665607  MEMB      37              0.0000000000
      4308        37  SAPE      H9R            21.9139414772        6.6599242106        9.8305489033  MEMB      37              0.0000000000
      4309        37  SAPE      C210           24.0352202784        7.4253300977       10.1716366676  MEMB      37              0.0000000000
      4310        37  SAPE      H10R           24.5507768695        6.6722234283       10.8051613875  MEMB      37              0.0000000000
      4311        37  SAPE      H10S           24.4309807757        8.4200415814       10.4686952057  MEMB      37              0.0000000000
      4312        37  SAPE      C211           24.4175654869        7.0224471480        8.7482614572  MEMB      37              0.0000000000
      4313        37  SAPE      H11R           25.1540583037        6.2068461254        8.7969756795  MEMB      37              0.0000000000
      4314        37  SAPE      C212           24.0989021835        7.5713648406        7.5492941268  MEMB      37              0.0000000000
      4315        37  SAPE      H12R           24.7421061697        7.1658601296        6.7544012762  MEMB      37              0.0000000000
      4316        37  SAPE      C213           23.2072142791        8.7523183030        7.1296616448  MEMB      37              0.0000000000
      4317        37  SAPE      H13R           23.8711937479        9.6430674246        7.1253730024  MEMB      37              0.0000000000
      4318        37  SAPE      H13S           22.3660784202        8.8841946615        7.8433975895  MEMB      37              0.0000000000
      4319        37  SAPE      C214           22.6966728751        8.5368589339        5.7237337484  MEMB      37              0.0000000000
      4320        37  SAPE      H14R           22.3828857467        7.4867103658        5.6303231687  MEMB      37              0.0000000000
      4321        37  SAPE      C215           22.5478770928        9.3061258997        4.5919966844  MEMB      37              0.0000000000
      4322        37  SAPE      H15R           22.1574241264        8.7886601490        3.7033033774  MEMB      37              0.0000000000
      4323        37  SAPE      C216           22.9388273698       10.7445367590        4.5264107106  MEMB      37              0.0000000000
      4324        37  SAPE      H16R           23.0297366474       11.0884924687        5.5789076826  MEMB      37              0.0000000000
      4325        37  SAPE      H16S           22.1840016309       11.4645851182        4.1441949472  MEMB      37              0.0000000000
      4326        37  SAPE      C217           24.2216016636       10.9656767296        3.7411383357  MEMB      37              0.0000000000
      4327        37  SAPE      H17R           25.0658068908       10.2760317470        3.9556794474  MEMB      37              0.0000000000
      4328        37  SAPE      H17S           24.5267639291       12.0163700638        3.9341166112  MEMB      37              0.0000000000
      4329        37  SAPE      C218           24.1053944854       10.8664517409        2.2565942159  MEMB      37              0.0000000000
      4330        37  SAPE      H18R           23.6051062868        9.8957030017        2.0524383622  MEMB      37              0.0000000000
      4331        37  SAPE      H18S           25.1566077184       10.8480815387        1.8975214492  MEMB      37              0.0000000000
      4332        37  SAPE      C219           23.3664815185       11.9586639065        1.4660903110  MEMB      37              0.0000000000
      4333        37  SAPE      H19R           22.2798661770       11.9199510809        1.6943199927  MEMB      37              0.0000000000
      4334        37  SAPE      H19S           23.4489138910       11.7638289863        0.3754181193  MEMB      37              0.0000000000
      4335        37  SAPE      C220           23.7711343827       13.4342814739        1.7748517171  MEMB      37              0.0000000000
      4336        37  SAPE      H20R           24.8563928286       13.3390762668        1.9927306870  MEMB      37              0.0000000000
      4337        37  SAPE      H20S           23.2355533175       13.8802423461        2.6400652673  MEMB      37              0.0000000000
      4338        37  SAPE      H20T           23.5338317898       14.0502066647        0.8811826246  MEMB      37              0.0000000000
      4339        37  SAPE      C33            28.0910789803        8.6654509633       14.0976451487  MEMB      37              0.0000000000
      4340        37  SAPE      H3X            28.5833896864        9.4476347069       13.4810906661  MEMB      37              0.0000000000
      4341        37  SAPE      H3Y            26.9826186033        8.7308665538       14.0608048711  MEMB      37              0.0000000000
      4342        37  SAPE      C34            28.4099849687        7.2653476466       13.5070491993  MEMB      37              0.0000000000
      4343        37  SAPE      H4X            28.5111129880        6.4914814084       14.2977606595  MEMB      37              0.0000000000
      4344        37  SAPE      H4Y            29.4369071626        7.3261521400       13.0874604730  MEMB      37              0.0000000000
      4345        37  SAPE      C35            27.5277279738        6.8640643192       12.2524593137  MEMB      37              0.0000000000
      4346        37  SAPE      H5X            26.4408337582        6.8110129554       12.4764403835  MEMB      37              0.0000000000
      4347        37  SAPE      H5Y            27.8361502619        5.8719078639       11.8589845314  MEMB      37              0.0000000000
      4348        37  SAPE      C36            27.6607427380        7.8671312181       11.0943453135  MEMB      37              0.0000000000
      4349        37  SAPE      H6X            27.1674467131        8.8281447499       11.3540243681  MEMB      37              0.0000000000
      4350        37  SAPE      H6Y            27.0654782477        7.4916655429       10.2346907975  MEMB      37              0.0000000000
      4351        37  SAPE      C37            29.1457355069        8.0392624972       10.6174318407  MEMB      37              0.0000000000
      4352        37  SAPE      H7X            29.6456183249        7.0476957859       10.6525512346  MEMB      37              0.0000000000
      4353        37  SAPE      H7Y            29.6439126468        8.7070281037       11.3524351645  MEMB      37              0.0000000000
      4354        37  SAPE      C38            29.3096358703        8.6918603535        9.1980127808  MEMB      37              0.0000000000
      4355        37  SAPE      H8X            30.4006216460        8.5515332621        9.0418720003  MEMB      37              0.0000000000
      4356        37  SAPE      H8Y            28.9868765743        9.7539997532        9.2428151719  MEMB      37              0.0000000000
      4357        37  SAPE      C39            28.5074308072        8.0215405833        8.0289557049  MEMB      37              0.0000000000
      4358        37  SAPE      H9X            27.4210652565        8.1806121161        8.1987414347  MEMB      37              0.0000000000
      4359        37  SAPE      H9Y            28.5965274640        6.9144781616        8.0007476269  MEMB      37              0.0000000000
      4360        37  SAPE      C310           28.8367674478        8.3478002259        6.5763561794  MEMB      37              0.0000000000
      4361        37  SAPE      H10X           29.9101462074        8.2023311147        6.3293389797  MEMB      37              0.0000000000
      4362        37  SAPE      H10Y           28.5584888339        9.4177392691        6.4663004070  MEMB      37              0.0000000000
      4363        37  SAPE      C311           27.9270953309        7.6189806309        5.6502821931  MEMB      37              0.0000000000
      4364        37  SAPE      H11X           26.8587998789        7.6717769721        5.9507469879  MEMB      37              0.0000000000
      4365        37  SAPE      H11Y           28.2401205887        6.5530681092        5.6373776719  MEMB      37              0.0000000000
      4366        37  SAPE      C312           27.9987556133        8.2592880132        4.2490075001  MEMB      37              0.0000000000
      4367        37  SAPE      H12X           29.0156382796        8.0041583738        3.8813397866  MEMB      37              0.0000000000
      4368        37  SAPE      H12Y           27.9296924747        9.3675855218        4.2139629015  MEMB      37              0.0000000000
      4369        37  SAPE      C313           27.0312276457        7.5646658902        3.2411397823  MEMB      37              0.0000000000
      4370        37  SAPE      H13X           26.0073332403        7.9857365418        3.3342046467  MEMB      37              0.0000000000
      4371        37  SAPE      H13Y           26.9480830273        6.5337619797        3.6469050468  MEMB      37              0.0000000000
      4372        37  SAPE      C314           27.5221158812        7.7282883130        1.8525171306  MEMB      37              0.0000000000
      4373        37  SAPE      H14X           28.3695846128        7.0102902497        1.8769380044  MEMB      37              0.0000000000
      4374        37  SAPE      H14Y           27.8466437584        8.7636780041        1.6138307017  MEMB      37              0.0000000000
      4375        37  SAPE      C315           26.4809084597        7.2672148236        0.8826842559  MEMB      37              0.0000000000
      4376        37  SAPE      H15X           25.6183240122        7.9063269291        1.1686993779  MEMB      37              0.0000000000
      4377        37  SAPE      H15Y           26.2159158418        6.2411167530        1.2161874369  MEMB      37              0.0000000000
      4378        37  SAPE      C316           26.8509904840        7.4037973104       -0.5142684963  MEMB      37              0.0000000000
      4379        37  SAPE      H16X           27.8276250269        6.9253387519       -0.7413865177  MEMB      37              0.0000000000
      4380        37  SAPE      H16Y           26.9486079215        8.4546725578       -0.8613316077  MEMB      37              0.0000000000
      4381        37  SAPE      C317           25.7441724992        6.7446313557       -1.3860983487  MEMB      37              0.0000000000
      4382        37  SAPE      H17X           25.8337203169        5.6927343441       -1.0399550258  MEMB      37              0.0000000000
      4383        37  SAPE      H17Y           25.9653454404        6.7342968158       -2.4748106301  MEMB      37              0.0000000000
      4384        37  SAPE      C318           24.3016380836        7.1387691350       -1.0682686100  MEMB      37              0.0000000000
      4385        37  SAPE      H18X           23.6974664138        6.5795449084       -1.8143017023  MEMB      37              0.0000000000
      4386        37  SAPE      H18Y           24.2470722159        8.2475877719       -1.1114469383  MEMB      37              0.0000000000
      4387        37  SAPE      H18Z           24.1013990849        6.7690066471       -0.0399191996  MEMB      37              0.0000000000
      4388        38  SOPE      N              16.5267029780       19.5350530769       23.5600461732  MEMB      38              0.0000000000
      4389        38  SOPE      HN1            15.8258384104       19.9022769944       24.2349797526  MEMB      38              0.0000000000
      4390        38  SOPE      HN2            16.1364423574       18.8356346271       22.8966378150  MEMB      38              0.0000000000
      4391        38  SOPE      HN3            17.2815481420       19.0286067031       24.0653387816  MEMB      38              0.0000000000
      4392        38  SOPE      C12            17.1370991734       20.6649396490       22.8070546874  MEMB      38              0.0000000000
      4393        38  SOPE      H12A           17.7788927139       20.1477406011       22.0621203233  MEMB      38              0.0000000000
      4394        38  SOPE      H12B           17.8321529971       21.2735718051       23.4241351284  MEMB      38              0.0000000000
      4395        38  SOPE      C11            15.9839738028       21.5852057058       22.1188683837  MEMB      38              0.0000000000
      4396        38  SOPE      H11A           16.3890744672       22.4406231423       21.5370819645  MEMB      38              0.0000000000
      4397        38  SOPE      H11B           15.4043470150       21.9559955078       22.9911462902  MEMB      38              0.0000000000
      4398        38  SOPE      P              15.4841617649       20.2553118245       19.8602778614  MEMB      38              0.0000000000
      4399        38  SOPE      O13            15.8275923663       18.8211529294       19.9989659195  MEMB      38              0.0000000000
      4400        38  SOPE      O14            16.5956103749       21.1302706248       19.3943361551  MEMB      38              0.0000000000
      4401        38  SOPE      O12            15.0653001745       20.8653926481       21.3210050861  MEMB      38              0.0000000000
      4402        38  SOPE      O11            14.2427409670       20.4760815420       18.9394457432  MEMB      38              0.0000000000
      4403        38  SOPE      C1             12.9593524505       20.0511891303       19.4662931227  MEMB      38              0.0000000000
      4404        38  SOPE      HA             12.6956814824       20.7468380022       20.2914422480  MEMB      38              0.0000000000
      4405        38  SOPE      HB             12.9040759329       18.9785519268       19.7503968197  MEMB      38              0.0000000000
      4406        38  SOPE      C2             11.9108001634       20.2318692976       18.3008780514  MEMB      38              0.0000000000
      4407        38  SOPE      HS             10.9948221222       19.6067187974       18.3679004231  MEMB      38              0.0000000000
      4408        38  SOPE      O21            12.5428059066       20.0595099427       17.0156436068  MEMB      38              0.0000000000
      4409        38  SOPE      C21            13.1285561380       18.8964281027       16.7071741077  MEMB      38              0.0000000000
      4410        38  SOPE      O22            12.8457810273       17.8387037897       17.2151006748  MEMB      38              0.0000000000
      4411        38  SOPE      C22            14.1601665075       19.1345859316       15.6468453959  MEMB      38              0.0000000000
      4412        38  SOPE      H2R            15.1918459108       19.2645232338       16.0380934105  MEMB      38              0.0000000000
      4413        38  SOPE      H2S            13.9738617566       20.0788364910       15.0918655086  MEMB      38              0.0000000000
      4414        38  SOPE      C3             11.3838523502       21.7234939317       18.3288232553  MEMB      38              0.0000000000
      4415        38  SOPE      HX             10.7457242005       21.8671237175       19.2268677756  MEMB      38              0.0000000000
      4416        38  SOPE      HY             10.7720892013       21.8093664533       17.4054095301  MEMB      38              0.0000000000
      4417        38  SOPE      O31            12.5514903730       22.6286837642       18.4015967307  MEMB      38              0.0000000000
      4418        38  SOPE      C31            12.9621107739       23.0998627306       17.1387372485  MEMB      38              0.0000000000
      4419        38  SOPE      O32            12.4591903727       22.7737938965       16.1022319450  MEMB      38              0.0000000000
      4420        38  SOPE      C32            14.2260138688       23.8829158385       17.3372563541  MEMB      38              0.0000000000
      4421        38  SOPE      H2X            14.7830538438       23.3019799110       18.1031161024  MEMB      38              0.0000000000
      4422        38  SOPE      H2Y            14.1013301074       24.8347405555       17.8965454178  MEMB      38              0.0000000000
      4423        38  SOPE      C23            14.2464753147       17.9477205658       14.6060007469  MEMB      38              0.0000000000
      4424        38  SOPE      H3R            14.5199592710       17.0106072266       15.1364212464  MEMB      38              0.0000000000
      4425        38  SOPE      H3S            15.0438793830       18.0361663837       13.8374664243  MEMB      38              0.0000000000
      4426        38  SOPE      C24            12.8807378476       17.6888852015       13.7531249238  MEMB      38              0.0000000000
      4427        38  SOPE      H4R            13.1122577373       16.6625977665       13.3961184028  MEMB      38              0.0000000000
      4428        38  SOPE      H4S            12.1045113622       17.6270815784       14.5455728633  MEMB      38              0.0000000000
      4429        38  SOPE      C25            12.6153051839       18.7190811448       12.6249721858  MEMB      38              0.0000000000
      4430        38  SOPE      H5R            12.5327071684       19.7459550051       13.0409393421  MEMB      38              0.0000000000
      4431        38  SOPE      H5S            13.5428091915       18.8305110031       12.0236070407  MEMB      38              0.0000000000
      4432        38  SOPE      C26            11.4845658867       18.3554904814       11.6781236190  MEMB      38              0.0000000000
      4433        38  SOPE      H6R            10.5553218500       18.2679257257       12.2807508486  MEMB      38              0.0000000000
      4434        38  SOPE      H6S            11.3468002056       19.1854500808       10.9525144961  MEMB      38              0.0000000000
      4435        38  SOPE      C27            11.6476387290       17.0441965093       10.8135055495  MEMB      38              0.0000000000
      4436        38  SOPE      H7R            11.6742960874       16.1549749723       11.4790092100  MEMB      38              0.0000000000
      4437        38  SOPE      H7S            10.7599046323       17.0122500371       10.1462503500  MEMB      38              0.0000000000
      4438        38  SOPE      C28            13.0012086989       17.0026127684       10.0257602085  MEMB      38              0.0000000000
      4439        38  SOPE      H8R            13.7955412339       16.8160955708       10.7797952406  MEMB      38              0.0000000000
      4440        38  SOPE      H8S            12.8722420025       16.0075440537        9.5487636103  MEMB      38              0.0000000000
      4441        38  SOPE      C29            13.3726510686       18.1817055904        9.1202992271  MEMB      38              0.0000000000
      4442        38  SOPE      H91            13.6463274863       19.1723787683        9.5123033658  MEMB      38              0.0000000000
      4443        38  SOPE      C210           13.3201549708       18.0736115578        7.7559873847  MEMB      38              0.0000000000
      4444        38  SOPE      H101           13.7769743940       18.8981016042        7.1889495048  MEMB      38              0.0000000000
      4445        38  SOPE      C211           12.9277242551       16.8815616647        6.9805777709  MEMB      38              0.0000000000
      4446        38  SOPE      H11R           11.8230890565       16.8154923440        7.0792554905  MEMB      38              0.0000000000
      4447        38  SOPE      H11S           13.2492407898       15.9166571836        7.4276881337  MEMB      38              0.0000000000
      4448        38  SOPE      C212           13.5178558542       16.8599040014        5.5679815496  MEMB      38              0.0000000000
      4449        38  SOPE      H12R           13.2039616502       17.7618646325        5.0003040538  MEMB      38              0.0000000000
      4450        38  SOPE      H12S           13.1419171131       15.9477736221        5.0570903356  MEMB      38              0.0000000000
      4451        38  SOPE      C213           15.1199468439       16.9581410900        5.5963231816  MEMB      38              0.0000000000
      4452        38  SOPE      H13R           15.5083243222       16.9050598627        6.6358746398  MEMB      38              0.0000000000
      4453        38  SOPE      H13S           15.3542467274       17.9461158999        5.1454017566  MEMB      38              0.0000000000
      4454        38  SOPE      C214           15.7765474486       15.9402583822        4.5818415932  MEMB      38              0.0000000000
      4455        38  SOPE      H14R           15.4967295246       16.2132691400        3.5418949106  MEMB      38              0.0000000000
      4456        38  SOPE      H14S           15.3512718925       14.9529083843        4.8622016432  MEMB      38              0.0000000000
      4457        38  SOPE      C215           17.3147440211       15.8520844311        4.6242312121  MEMB      38              0.0000000000
      4458        38  SOPE      H15R           17.6297697102       15.9934624566        5.6802104616  MEMB      38              0.0000000000
      4459        38  SOPE      H15S           17.6478017512       16.7627633229        4.0819599491  MEMB      38              0.0000000000
      4460        38  SOPE      C216           17.9052572412       14.5246282158        3.9843333314  MEMB      38              0.0000000000
      4461        38  SOPE      H16R           17.6856858791       13.8369710425        4.8288663924  MEMB      38              0.0000000000
      4462        38  SOPE      H16S           18.9987672663       14.6119508654        3.8084590291  MEMB      38              0.0000000000
      4463        38  SOPE      C217           17.1838685573       13.9188657330        2.7458581422  MEMB      38              0.0000000000
      4464        38  SOPE      H17R           16.1242033598       13.7089264408        3.0053896061  MEMB      38              0.0000000000
      4465        38  SOPE      H17S           17.7347715900       12.9697636240        2.5725612082  MEMB      38              0.0000000000
      4466        38  SOPE      C218           17.3387690017       14.8117238366        1.4828991875  MEMB      38              0.0000000000
      4467        38  SOPE      H18R           18.3027294199       14.5634681813        0.9894728011  MEMB      38              0.0000000000
      4468        38  SOPE      H18S           17.2315836502       15.8542670953        1.8515939919  MEMB      38              0.0000000000
      4469        38  SOPE      H18T           16.5482263183       14.5168820391        0.7601041387  MEMB      38              0.0000000000
      4470        38  SOPE      C33            15.0228113888       24.0132815519       16.0796092927  MEMB      38              0.0000000000
      4471        38  SOPE      H3X            14.5320495734       24.7373495528       15.3946278864  MEMB      38              0.0000000000
      4472        38  SOPE      H3Y            15.1916018561       23.0361296099       15.5786055927  MEMB      38              0.0000000000
      4473        38  SOPE      C34            16.4295683908       24.6173639080       16.2457518367  MEMB      38              0.0000000000
      4474        38  SOPE      H4X            16.9846006751       24.2678853198       17.1424820986  MEMB      38              0.0000000000
      4475        38  SOPE      H4Y            16.2184978635       25.7063313253       16.3083623922  MEMB      38              0.0000000000
      4476        38  SOPE      C35            17.2683840048       24.5475808829       15.0050540191  MEMB      38              0.0000000000
      4477        38  SOPE      H5X            18.1047330460       25.2768446299       15.0599602580  MEMB      38              0.0000000000
      4478        38  SOPE      H5Y            16.6055073054       24.9321418929       14.2006731410  MEMB      38              0.0000000000
      4479        38  SOPE      C36            17.7222526985       23.0893322710       14.6611129147  MEMB      38              0.0000000000
      4480        38  SOPE      H6X            16.8428608187       22.4121738665       14.7105882430  MEMB      38              0.0000000000
      4481        38  SOPE      H6Y            18.4383365776       22.6745500278       15.4023962093  MEMB      38              0.0000000000
      4482        38  SOPE      C37            18.4854328109       22.7057427106       13.4437896719  MEMB      38              0.0000000000
      4483        38  SOPE      H7X            19.5277871641       23.0880420391       13.4029809900  MEMB      38              0.0000000000
      4484        38  SOPE      H7Y            18.1323061012       23.0843764534       12.4608051244  MEMB      38              0.0000000000
      4485        38  SOPE      C38            18.5523611879       21.1719557952       13.1898147322  MEMB      38              0.0000000000
      4486        38  SOPE      H8X            17.9012451893       20.7539004489       13.9870594485  MEMB      38              0.0000000000
      4487        38  SOPE      H8Y            19.5854688565       20.9174939940       13.5095936862  MEMB      38              0.0000000000
      4488        38  SOPE      C39            18.0793881721       20.7379802633       11.7691627250  MEMB      38              0.0000000000
      4489        38  SOPE      H9X            18.1748417796       19.6328820578       11.7061738564  MEMB      38              0.0000000000
      4490        38  SOPE      H9Y            18.8135231196       21.2066000538       11.0794069622  MEMB      38              0.0000000000
      4491        38  SOPE      C310           16.6430824144       21.2627501976       11.5005957514  MEMB      38              0.0000000000
      4492        38  SOPE      H10X           16.7881662401       22.3610043855       11.4162792344  MEMB      38              0.0000000000
      4493        38  SOPE      H10Y           15.9919113361       21.1566254634       12.3944836939  MEMB      38              0.0000000000
      4494        38  SOPE      C311           16.0182160222       20.5408659144       10.2619946920  MEMB      38              0.0000000000
      4495        38  SOPE      H11X           14.9971049662       20.9782038066       10.2422737782  MEMB      38              0.0000000000
      4496        38  SOPE      H11Y           15.7940166481       19.5043842615       10.5932967976  MEMB      38              0.0000000000
      4497        38  SOPE      C312           16.7630209100       20.5519884293        8.9995761889  MEMB      38              0.0000000000
      4498        38  SOPE      H12X           16.0575088650       20.0204518610        8.3257495046  MEMB      38              0.0000000000
      4499        38  SOPE      H12Y           17.7097387612       19.9765714240        9.0828930310  MEMB      38              0.0000000000
      4500        38  SOPE      C313           17.0480678030       21.9900599596        8.5754904358  MEMB      38              0.0000000000
      4501        38  SOPE      H13X           17.8705174513       22.1786018313        9.2982288892  MEMB      38              0.0000000000
      4502        38  SOPE      H13Y           16.1662792463       22.5860659290        8.8941555252  MEMB      38              0.0000000000
      4503        38  SOPE      C314           17.4383654962       22.1607840582        7.1438624942  MEMB      38              0.0000000000
      4504        38  SOPE      H14X           18.4663123495       21.7527552257        7.0382260628  MEMB      38              0.0000000000
      4505        38  SOPE      H14Y           17.4564093906       23.2428031416        6.8924061529  MEMB      38              0.0000000000
      4506        38  SOPE      C315           16.4817845077       21.6096537447        6.1096235257  MEMB      38              0.0000000000
      4507        38  SOPE      H15X           15.4901356871       22.0964774446        6.2277594653  MEMB      38              0.0000000000
      4508        38  SOPE      H15Y           16.3518616579       20.5378198475        6.3715641262  MEMB      38              0.0000000000
      4509        38  SOPE      C316           16.7737284533       21.8118112458        4.5875845169  MEMB      38              0.0000000000
      4510        38  SOPE      H16X           17.8751203935       21.6723843418        4.5449584557  MEMB      38              0.0000000000
      4511        38  SOPE      H16Y           16.6160288904       22.8162044163        4.1396482340  MEMB      38              0.0000000000
      4512        38  SOPE      C317           16.1191344104       20.6470544847        3.6769937563  MEMB      38              0.0000000000
      4513        38  SOPE      H17X           15.0282368590       20.5370493323        3.8563329362  MEMB      38              0.0000000000
      4514        38  SOPE      H17Y           16.4946321152       19.6443016399        3.9733200224  MEMB      38              0.0000000000
      4515        38  SOPE      C318           16.3442542923       20.7697262053        2.1887570408  MEMB      38              0.0000000000
      4516        38  SOPE      H18X           15.8744702626       19.9037118610        1.6752940607  MEMB      38              0.0000000000
      4517        38  SOPE      H18Y           17.4303827367       20.8770267766        1.9810738357  MEMB      38              0.0000000000
      4518        38  SOPE      H18Z           15.7328348103       21.6561435796        1.9153498014  MEMB      38              0.0000000000
      4519        39  SAPS      N             -23.3806790337      -12.6974642619       22.3083219845  MEMB      39              0.0000000000
      4520        39  SAPS      HN1           -24.2066898907      -13.3224876625       22.2153061350  MEMB      39              0.0000000000
      4521        39  SAPS      HN2           -22.9621325566      -12.8560088464       23.2470885469  MEMB      39              0.0000000000
      4522        39  SAPS      HN3           -23.7648350392      -11.7310169523       22.3063937329  MEMB      39              0.0000000000
      4523        39  SAPS      C12           -22.5082642558      -12.8363353305       21.1115058402  MEMB      39              0.0000000000
      4524        39  SAPS      H12A          -21.5999245766      -12.2891213685       21.3161419772  MEMB      39              0.0000000000
      4525        39  SAPS      C13           -22.1057029262      -14.2292694641       20.7710982192  MEMB      39              0.0000000000
      4526        39  SAPS      O13A          -22.2465414066      -15.2422432915       21.5807230975  MEMB      39              0.0000000000
      4527        39  SAPS      O13B          -21.3017700439      -14.2226504444       19.8062634519  MEMB      39              0.0000000000
      4528        39  SAPS      C11           -23.2713967344      -12.2544334641       19.9163175662  MEMB      39              0.0000000000
      4529        39  SAPS      H11A          -24.3011515158      -12.6322104526       19.7396518663  MEMB      39              0.0000000000
      4530        39  SAPS      H11B          -22.6680625763      -12.5566317674       19.0337162797  MEMB      39              0.0000000000
      4531        39  SAPS      P             -23.9366527125       -9.9872075730       18.8697004259  MEMB      39              0.0000000000
      4532        39  SAPS      O13           -25.2686743763      -10.6014988678       18.5008670801  MEMB      39              0.0000000000
      4533        39  SAPS      O14           -23.7578542601       -8.6165046398       19.3044728073  MEMB      39              0.0000000000
      4534        39  SAPS      O12           -23.3231607979      -10.8523168344       20.0886830962  MEMB      39              0.0000000000
      4535        39  SAPS      O11           -22.8641035521      -10.2768730217       17.7420463838  MEMB      39              0.0000000000
      4536        39  SAPS      C1            -21.4522089512       -9.9798003756       17.9945315127  MEMB      39              0.0000000000
      4537        39  SAPS      HA            -21.4512542398       -8.8698130272       17.9471162650  MEMB      39              0.0000000000
      4538        39  SAPS      HB            -21.0192801490      -10.3135098741       18.9617603350  MEMB      39              0.0000000000
      4539        39  SAPS      C2            -20.4805258963      -10.5791213254       16.8957975815  MEMB      39              0.0000000000
      4540        39  SAPS      HS            -19.5547622879       -9.9652896090       16.9180090801  MEMB      39              0.0000000000
      4541        39  SAPS      O21           -21.0968995245      -10.5208438968       15.5999522450  MEMB      39              0.0000000000
      4542        39  SAPS      C21           -20.9737220511       -9.4052618861       14.9222127394  MEMB      39              0.0000000000
      4543        39  SAPS      O22           -20.2293091950       -8.4685145134       15.2325355045  MEMB      39              0.0000000000
      4544        39  SAPS      C22           -21.9080495877       -9.4412351128       13.6714898226  MEMB      39              0.0000000000
      4545        39  SAPS      H2R           -21.9422776513      -10.4823950691       13.2853093728  MEMB      39              0.0000000000
      4546        39  SAPS      H2S           -22.9676569313       -9.1547276076       13.8431484592  MEMB      39              0.0000000000
      4547        39  SAPS      C3            -20.1730440727      -12.0422981836       17.1802171604  MEMB      39              0.0000000000
      4548        39  SAPS      HX            -19.6692642150      -12.1386499067       18.1657337373  MEMB      39              0.0000000000
      4549        39  SAPS      HY            -19.3893388803      -12.2697638210       16.4263030330  MEMB      39              0.0000000000
      4550        39  SAPS      O31           -21.3705488562      -12.8089012443       17.0698404296  MEMB      39              0.0000000000
      4551        39  SAPS      C31           -21.4333227626      -13.7524157459       16.0751938315  MEMB      39              0.0000000000
      4552        39  SAPS      O32           -20.5891840089      -13.9533396315       15.2559112799  MEMB      39              0.0000000000
      4553        39  SAPS      C32           -22.7810764265      -14.5397695129       16.2912206694  MEMB      39              0.0000000000
      4554        39  SAPS      H2X           -22.7277431292      -15.0858973991       17.2572544304  MEMB      39              0.0000000000
      4555        39  SAPS      H2Y           -22.8483195088      -15.2033991296       15.4027415745  MEMB      39              0.0000000000
      4556        39  SAPS      C23           -21.4338404320       -8.5098517787       12.4882943794  MEMB      39              0.0000000000
      4557        39  SAPS      H3R           -21.6369819059       -9.0114564598       11.5180125544  MEMB      39              0.0000000000
      4558        39  SAPS      H3S           -20.3438291958       -8.3024895058       12.5448403332  MEMB      39              0.0000000000
      4559        39  SAPS      C24           -22.1373072769       -7.1168378121       12.4800000073  MEMB      39              0.0000000000
      4560        39  SAPS      H4R           -21.5377719922       -6.4605470442       11.8135456957  MEMB      39              0.0000000000
      4561        39  SAPS      H4S           -22.0528323277       -6.5360306822       13.4233174653  MEMB      39              0.0000000000
      4562        39  SAPS      C25           -23.5907235935       -7.2182147337       12.1459646478  MEMB      39              0.0000000000
      4563        39  SAPS      H5R           -24.2152095977       -7.4029355474       13.0324721548  MEMB      39              0.0000000000
      4564        39  SAPS      C26           -24.0775372182       -7.0979698016       10.9102637774  MEMB      39              0.0000000000
      4565        39  SAPS      H6R           -25.1605926891       -7.1797472944       10.7361850325  MEMB      39              0.0000000000
      4566        39  SAPS      C27           -23.1411871401       -6.7227712336        9.8109765816  MEMB      39              0.0000000000
      4567        39  SAPS      H7R           -22.1542146539       -7.2313673301        9.8501719963  MEMB      39              0.0000000000
      4568        39  SAPS      H7S           -22.7399279883       -5.6970233351        9.9564189617  MEMB      39              0.0000000000
      4569        39  SAPS      C28           -23.8234938672       -6.6887604996        8.4965306106  MEMB      39              0.0000000000
      4570        39  SAPS      H8R           -24.8718146714       -6.9730512121        8.3227428264  MEMB      39              0.0000000000
      4571        39  SAPS      C29           -23.1784767339       -6.1740779056        7.3398034622  MEMB      39              0.0000000000
      4572        39  SAPS      H9R           -23.7000092378       -6.2867363742        6.3778717534  MEMB      39              0.0000000000
      4573        39  SAPS      C210          -21.7469367868       -5.6208375477        7.2477389627  MEMB      39              0.0000000000
      4574        39  SAPS      H10R          -21.1678392602       -5.9339688555        8.1426784070  MEMB      39              0.0000000000
      4575        39  SAPS      H10S          -21.8475523928       -4.5255297725        7.4042608005  MEMB      39              0.0000000000
      4576        39  SAPS      C211          -20.9645679619       -5.8665229329        5.9926784833  MEMB      39              0.0000000000
      4577        39  SAPS      H11R          -20.2944663862       -6.7330195442        6.0934127248  MEMB      39              0.0000000000
      4578        39  SAPS      C212          -21.0313154714       -5.3559762651        4.6782603050  MEMB      39              0.0000000000
      4579        39  SAPS      H12R          -20.5003538773       -5.9328451619        3.9067026647  MEMB      39              0.0000000000
      4580        39  SAPS      C213          -21.9703255171       -4.2847176158        4.1392866794  MEMB      39              0.0000000000
      4581        39  SAPS      H13R          -21.3490391231       -3.6369697777        3.4845009113  MEMB      39              0.0000000000
      4582        39  SAPS      H13S          -22.2283500554       -3.5307428353        4.9134102579  MEMB      39              0.0000000000
      4583        39  SAPS      C214          -23.2238333244       -4.9269311335        3.6336664047  MEMB      39              0.0000000000
      4584        39  SAPS      H14R          -24.1362413833       -4.6668368460        4.1903190996  MEMB      39              0.0000000000
      4585        39  SAPS      C215          -23.4173172783       -5.6155016746        2.4944124478  MEMB      39              0.0000000000
      4586        39  SAPS      H15R          -24.4515143439       -5.9602133822        2.3474079843  MEMB      39              0.0000000000
      4587        39  SAPS      C216          -22.3397739262       -5.9558009493        1.4624346386  MEMB      39              0.0000000000
      4588        39  SAPS      H16R          -21.3932315556       -5.5610220040        1.8896691143  MEMB      39              0.0000000000
      4589        39  SAPS      H16S          -22.5482982821       -5.4468670200        0.4971252743  MEMB      39              0.0000000000
      4590        39  SAPS      C217          -22.1441291314       -7.4507339386        1.2883052223  MEMB      39              0.0000000000
      4591        39  SAPS      H17R          -23.1235117245       -7.8625690948        0.9634640040  MEMB      39              0.0000000000
      4592        39  SAPS      H17S          -21.8454210629       -7.8499607225        2.2811365762  MEMB      39              0.0000000000
      4593        39  SAPS      C218          -21.0898683642       -7.8896847919        0.2162257828  MEMB      39              0.0000000000
      4594        39  SAPS      H18R          -21.5062837489       -7.4611894761       -0.7204219844  MEMB      39              0.0000000000
      4595        39  SAPS      H18S          -21.0082880446       -8.9952120325        0.1422316556  MEMB      39              0.0000000000
      4596        39  SAPS      C219          -19.6385847066       -7.4064481304        0.4035195207  MEMB      39              0.0000000000
      4597        39  SAPS      H19R          -19.5037965675       -6.3198412692        0.2152702600  MEMB      39              0.0000000000
      4598        39  SAPS      H19S          -19.0453356219       -8.0708515318       -0.2605173201  MEMB      39              0.0000000000
      4599        39  SAPS      C220          -19.0916629466       -7.6652571473        1.8393711969  MEMB      39              0.0000000000
      4600        39  SAPS      H20R          -18.0275221487       -7.3861559679        1.9943829463  MEMB      39              0.0000000000
      4601        39  SAPS      H20S          -18.9828330217       -8.7333340571        2.1251835016  MEMB      39              0.0000000000
      4602        39  SAPS      H20T          -19.7336270662       -7.2158937329        2.6269474317  MEMB      39              0.0000000000
      4603        39  SAPS      C33           -23.9450960655      -13.4277075786       16.1587877000  MEMB      39              0.0000000000
      4604        39  SAPS      H3X           -23.8793312981      -12.5032237389       16.7714261350  MEMB      39              0.0000000000
      4605        39  SAPS      H3Y           -24.7862406590      -13.9876877137       16.6205439762  MEMB      39              0.0000000000
      4606        39  SAPS      C34           -24.3824815139      -13.0418601667       14.7439136080  MEMB      39              0.0000000000
      4607        39  SAPS      H4X           -24.4411039413      -13.8937834175       14.0332020282  MEMB      39              0.0000000000
      4608        39  SAPS      H4Y           -23.7180132168      -12.2992903139       14.2525960133  MEMB      39              0.0000000000
      4609        39  SAPS      C35           -25.7998778449      -12.4669459654       14.6705045909  MEMB      39              0.0000000000
      4610        39  SAPS      H5X           -25.7246645056      -11.5688864237       15.3202374409  MEMB      39              0.0000000000
      4611        39  SAPS      H5Y           -26.5788292047      -13.1537031274       15.0653724138  MEMB      39              0.0000000000
      4612        39  SAPS      C36           -26.2902684012      -12.0470662502       13.2690128926  MEMB      39              0.0000000000
      4613        39  SAPS      H6X           -27.3912932873      -12.1914652903       13.2341631720  MEMB      39              0.0000000000
      4614        39  SAPS      H6Y           -26.0233185527      -12.9111148093       12.6236612031  MEMB      39              0.0000000000
      4615        39  SAPS      C37           -25.8296588061      -10.6604849142       12.7209777380  MEMB      39              0.0000000000
      4616        39  SAPS      H7X           -24.7207851173      -10.7291749812       12.7196041783  MEMB      39              0.0000000000
      4617        39  SAPS      H7Y           -26.2518318265       -9.9410018680       13.4547590534  MEMB      39              0.0000000000
      4618        39  SAPS      C38           -26.1677324479      -10.4670733027       11.2518841844  MEMB      39              0.0000000000
      4619        39  SAPS      H8X           -25.9886610410       -9.4014623229       10.9935671399  MEMB      39              0.0000000000
      4620        39  SAPS      H8Y           -27.2692399122      -10.6007469129       11.1959073129  MEMB      39              0.0000000000
      4621        39  SAPS      C39           -25.4748424523      -11.3276013855       10.1370821730  MEMB      39              0.0000000000
      4622        39  SAPS      H9X           -25.9079960017      -10.9626148267        9.1813187523  MEMB      39              0.0000000000
      4623        39  SAPS      H9Y           -25.5390308864      -12.4367224185       10.1442439510  MEMB      39              0.0000000000
      4624        39  SAPS      C310          -23.9540252570      -10.8145526946       10.0328594789  MEMB      39              0.0000000000
      4625        39  SAPS      H10X          -23.3016121580      -11.2829818650       10.8004873882  MEMB      39              0.0000000000
      4626        39  SAPS      H10Y          -24.0157203750       -9.7414723267       10.3139524432  MEMB      39              0.0000000000
      4627        39  SAPS      C311          -23.4092587228      -10.9420525215        8.6260982303  MEMB      39              0.0000000000
      4628        39  SAPS      H11X          -22.4444029769      -10.4205634461        8.4488311492  MEMB      39              0.0000000000
      4629        39  SAPS      H11Y          -24.1146446478      -10.5236091462        7.8766605865  MEMB      39              0.0000000000
      4630        39  SAPS      C312          -23.1277337437      -12.4056850766        8.0941717546  MEMB      39              0.0000000000
      4631        39  SAPS      H12X          -23.9038232719      -13.1137915615        8.4555451953  MEMB      39              0.0000000000
      4632        39  SAPS      H12Y          -22.1381564714      -12.7126966084        8.4951727359  MEMB      39              0.0000000000
      4633        39  SAPS      C313          -23.1030071211      -12.5051984949        6.5713780967  MEMB      39              0.0000000000
      4634        39  SAPS      H13X          -24.0122194493      -11.9904227105        6.1936742665  MEMB      39              0.0000000000
      4635        39  SAPS      H13Y          -23.2292253201      -13.5347005150        6.1732377596  MEMB      39              0.0000000000
      4636        39  SAPS      C314          -21.7710299933      -12.0100432951        5.9230214272  MEMB      39              0.0000000000
      4637        39  SAPS      H14X          -20.9662433933      -12.6710260623        6.3099850872  MEMB      39              0.0000000000
      4638        39  SAPS      H14Y          -21.5391292779      -10.9416058662        6.1204662461  MEMB      39              0.0000000000
      4639        39  SAPS      C315          -21.7156999726      -12.2455837287        4.4158291543  MEMB      39              0.0000000000
      4640        39  SAPS      H15X          -22.2749882070      -13.1749144356        4.1752835244  MEMB      39              0.0000000000
      4641        39  SAPS      H15Y          -20.6952430460      -12.2760202891        3.9775803754  MEMB      39              0.0000000000
      4642        39  SAPS      C316          -22.3910669388      -11.0410545827        3.6856028277  MEMB      39              0.0000000000
      4643        39  SAPS      H16X          -21.9013976242      -10.0866027726        3.9746818741  MEMB      39              0.0000000000
      4644        39  SAPS      H16Y          -23.4410707868      -11.0240058587        4.0482629463  MEMB      39              0.0000000000
      4645        39  SAPS      C317          -22.2680923741      -11.2110480996        2.1777684384  MEMB      39              0.0000000000
      4646        39  SAPS      H17X          -21.3145041338      -10.7747196593        1.8108784044  MEMB      39              0.0000000000
      4647        39  SAPS      H17Y          -23.0758031108      -10.5527141015        1.7923840618  MEMB      39              0.0000000000
      4648        39  SAPS      C318          -22.6398302846      -12.5638262775        1.5915441043  MEMB      39              0.0000000000
      4649        39  SAPS      H18X          -21.8408236126      -13.3073834943        1.7989876338  MEMB      39              0.0000000000
      4650        39  SAPS      H18Y          -22.8393532954      -12.5638159695        0.4986079754  MEMB      39              0.0000000000
      4651        39  SAPS      H18Z          -23.6467453690      -12.8830673672        1.9358248089  MEMB      39              0.0000000000
      4652        40  SAPI      C12           -19.3433667253      -16.5603227681       23.8358246720  MEMB      40              0.0000000000
      4653        40  SAPI      H2            -19.3523998184      -15.7432938832       23.0830279424  MEMB      40              0.0000000000
      4654        40  SAPI      O2            -18.0099552254      -16.8104493550       24.3557044938  MEMB      40              0.0000000000
      4655        40  SAPI      HO2           -18.2485010464      -17.3596869643       25.1060603962  MEMB      40              0.0000000000
      4656        40  SAPI      C13           -20.1915332660      -16.0666789064       25.0069407879  MEMB      40              0.0000000000
      4657        40  SAPI      H3            -21.2159332613      -15.8467129051       24.6374271520  MEMB      40              0.0000000000
      4658        40  SAPI      O3            -19.6988090547      -14.8929010722       25.5284033608  MEMB      40              0.0000000000
      4659        40  SAPI      HO3           -20.4296054161      -14.2704508066       25.5187922003  MEMB      40              0.0000000000
      4660        40  SAPI      C14           -20.2235999820      -17.1050374558       26.1183700531  MEMB      40              0.0000000000
      4661        40  SAPI      H4            -19.2372691538      -17.3775737406       26.5510319515  MEMB      40              0.0000000000
      4662        40  SAPI      O4            -20.8928803572      -16.6262711189       27.2758250076  MEMB      40              0.0000000000
      4663        40  SAPI      HO4           -21.6761557233      -16.1369103865       27.0138979087  MEMB      40              0.0000000000
      4664        40  SAPI      C15           -20.8084693983      -18.4027185037       25.5619434711  MEMB      40              0.0000000000
      4665        40  SAPI      H5            -21.8151427027      -18.1542125696       25.1629766699  MEMB      40              0.0000000000
      4666        40  SAPI      O5            -21.0732706921      -19.3362165536       26.5714466698  MEMB      40              0.0000000000
      4667        40  SAPI      HO5           -22.0060538094      -19.4666555217       26.7571922481  MEMB      40              0.0000000000
      4668        40  SAPI      C16           -20.0133457727      -18.9196806535       24.3698064121  MEMB      40              0.0000000000
      4669        40  SAPI      H6            -19.0282377261      -19.1304780351       24.8382586326  MEMB      40              0.0000000000
      4670        40  SAPI      O6            -20.5670110690      -20.1428225983       23.7905517735  MEMB      40              0.0000000000
      4671        40  SAPI      HO6           -20.7504213086      -20.0465849482       22.8531623330  MEMB      40              0.0000000000
      4672        40  SAPI      C11           -19.9797608786      -17.8828202864       23.3047605284  MEMB      40              0.0000000000
      4673        40  SAPI      H1            -21.0028719570      -17.6313895078       22.9521312405  MEMB      40              0.0000000000
      4674        40  SAPI      P             -19.6510118506      -17.8005948313       20.6342075899  MEMB      40              0.0000000000
      4675        40  SAPI      O13           -19.5503439391      -16.3257066590       20.5603691081  MEMB      40              0.0000000000
      4676        40  SAPI      O14           -21.0110462547      -18.2465301437       20.2776131879  MEMB      40              0.0000000000
      4677        40  SAPI      O12           -19.2339092477      -18.3522933760       22.1489833993  MEMB      40              0.0000000000
      4678        40  SAPI      O11           -18.6351587732      -18.4062792015       19.5960674732  MEMB      40              0.0000000000
      4679        40  SAPI      C1            -17.4028662545      -19.0102975683       20.0697900028  MEMB      40              0.0000000000
      4680        40  SAPI      HA            -16.7450356816      -18.3064177276       20.6230827951  MEMB      40              0.0000000000
      4681        40  SAPI      HB            -17.6223624460      -19.9189983126       20.6701278102  MEMB      40              0.0000000000
      4682        40  SAPI      C2            -16.6030860576      -19.4366459744       18.7888621140  MEMB      40              0.0000000000
      4683        40  SAPI      HS            -15.5859871914      -19.8216576665       19.0160113995  MEMB      40              0.0000000000
      4684        40  SAPI      O21           -16.4083971405      -18.2891227617       17.8980872389  MEMB      40              0.0000000000
      4685        40  SAPI      C21           -15.4273107867      -17.4049826931       18.1254970621  MEMB      40              0.0000000000
      4686        40  SAPI      O22           -14.6177712737      -17.3873208586       19.0485560366  MEMB      40              0.0000000000
      4687        40  SAPI      C22           -15.5156982741      -16.3811698939       16.9634808203  MEMB      40              0.0000000000
      4688        40  SAPI      H2R           -16.4902547503      -15.8510868978       16.9037099299  MEMB      40              0.0000000000
      4689        40  SAPI      H2S           -14.7036040308      -15.6250273799       17.0189104615  MEMB      40              0.0000000000
      4690        40  SAPI      C3            -17.1166496228      -20.6264138459       17.9241071246  MEMB      40              0.0000000000
      4691        40  SAPI      HX            -18.1875636656      -20.3676078835       17.7809865732  MEMB      40              0.0000000000
      4692        40  SAPI      HY            -17.0167584101      -21.4274910319       18.6874014391  MEMB      40              0.0000000000
      4693        40  SAPI      O31           -16.3359815367      -20.8250072461       16.7969012786  MEMB      40              0.0000000000
      4694        40  SAPI      C31           -16.9492835257      -20.7162736144       15.5568275577  MEMB      40              0.0000000000
      4695        40  SAPI      O32           -18.1555718427      -20.4608556965       15.3578316855  MEMB      40              0.0000000000
      4696        40  SAPI      C32           -15.9163398353      -21.0131003135       14.5134475684  MEMB      40              0.0000000000
      4697        40  SAPI      H2X           -15.8179439299      -22.0970524802       14.2905422634  MEMB      40              0.0000000000
      4698        40  SAPI      H2Y           -14.9587725265      -20.5759180069       14.8687747758  MEMB      40              0.0000000000
      4699        40  SAPI      C23           -15.2172957914      -17.1790976049       15.6722557746  MEMB      40              0.0000000000
      4700        40  SAPI      H3R           -15.9897375222      -17.9548127207       15.4827279909  MEMB      40              0.0000000000
      4701        40  SAPI      H3S           -14.2290766408      -17.6788415259       15.7616971915  MEMB      40              0.0000000000
      4702        40  SAPI      C24           -15.1731408766      -16.2104010505       14.5161580668  MEMB      40              0.0000000000
      4703        40  SAPI      H4R           -14.7042231193      -15.3098502950       14.9672069217  MEMB      40              0.0000000000
      4704        40  SAPI      H4S           -16.1976029404      -15.8134930446       14.3510439368  MEMB      40              0.0000000000
      4705        40  SAPI      C25           -14.4196308648      -16.5192466380       13.2497381747  MEMB      40              0.0000000000
      4706        40  SAPI      H5R           -13.3881018805      -16.8817973108       13.3701759035  MEMB      40              0.0000000000
      4707        40  SAPI      C26           -14.9538006362      -16.3864690492       12.0298362559  MEMB      40              0.0000000000
      4708        40  SAPI      H6R           -14.3537240754      -16.7303796461       11.1744795074  MEMB      40              0.0000000000
      4709        40  SAPI      C27           -16.3843999579      -15.9398463433       11.7123683092  MEMB      40              0.0000000000
      4710        40  SAPI      H7R           -16.4695584795      -15.6486139097       10.6436067355  MEMB      40              0.0000000000
      4711        40  SAPI      H7S           -16.6880379406      -15.0581232480       12.3162636276  MEMB      40              0.0000000000
      4712        40  SAPI      C28           -17.3301763870      -17.0396688142       12.1191482271  MEMB      40              0.0000000000
      4713        40  SAPI      H8R           -17.3110162627      -17.3345199051       13.1787215925  MEMB      40              0.0000000000
      4714        40  SAPI      C29           -18.1681895441      -17.6868265807       11.2872359960  MEMB      40              0.0000000000
      4715        40  SAPI      H9R           -18.7974282446      -18.5223444176       11.6277770815  MEMB      40              0.0000000000
      4716        40  SAPI      C210          -18.2928981047      -17.5157436275        9.8360784448  MEMB      40              0.0000000000
      4717        40  SAPI      H10R          -18.1043238909      -18.4850176550        9.3268941683  MEMB      40              0.0000000000
      4718        40  SAPI      H10S          -17.5398832274      -16.8294992782        9.3929553123  MEMB      40              0.0000000000
      4719        40  SAPI      C211          -19.6443712403      -16.9941405685        9.5707591774  MEMB      40              0.0000000000
      4720        40  SAPI      H11R          -19.9216340793      -16.0940261038       10.1390195309  MEMB      40              0.0000000000
      4721        40  SAPI      C212          -20.4342654097      -17.4606837215        8.6273271998  MEMB      40              0.0000000000
      4722        40  SAPI      H12R          -21.4578406480      -17.0603590664        8.6724281883  MEMB      40              0.0000000000
      4723        40  SAPI      C213          -20.2118761010      -18.6087334837        7.6156052204  MEMB      40              0.0000000000
      4724        40  SAPI      H13R          -20.3680151735      -19.5998125509        8.0927886916  MEMB      40              0.0000000000
      4725        40  SAPI      H13S          -19.1282202997      -18.6642372205        7.3770054029  MEMB      40              0.0000000000
      4726        40  SAPI      C214          -21.1408968829      -18.7512626925        6.4140665879  MEMB      40              0.0000000000
      4727        40  SAPI      H14R          -22.2047849931      -18.9327959152        6.6266402494  MEMB      40              0.0000000000
      4728        40  SAPI      C215          -20.7628466978      -18.5382972824        5.1449929687  MEMB      40              0.0000000000
      4729        40  SAPI      H15R          -21.6037706384      -18.4380061134        4.4430038838  MEMB      40              0.0000000000
      4730        40  SAPI      C216          -19.3538532748      -18.1019487921        4.7405374463  MEMB      40              0.0000000000
      4731        40  SAPI      H16R          -18.5281366570      -18.6447975628        5.2483051245  MEMB      40              0.0000000000
      4732        40  SAPI      H16S          -19.3729831474      -17.0232095214        5.0056353677  MEMB      40              0.0000000000
      4733        40  SAPI      C217          -19.1090447149      -18.2766758276        3.2348558571  MEMB      40              0.0000000000
      4734        40  SAPI      H17R          -19.4615702114      -19.2906335177        2.9486101045  MEMB      40              0.0000000000
      4735        40  SAPI      H17S          -18.0186145124      -18.2039968396        3.0348541119  MEMB      40              0.0000000000
      4736        40  SAPI      C218          -19.7889241258      -17.2712363890        2.3196575677  MEMB      40              0.0000000000
      4737        40  SAPI      H18R          -20.8767464447      -17.2998393259        2.5435899442  MEMB      40              0.0000000000
      4738        40  SAPI      H18S          -19.4825247229      -17.3615570957        1.2555704617  MEMB      40              0.0000000000
      4739        40  SAPI      C219          -19.4950381417      -15.7720596566        2.7223173487  MEMB      40              0.0000000000
      4740        40  SAPI      H19R          -19.7766680868      -15.6821912274        3.7932655017  MEMB      40              0.0000000000
      4741        40  SAPI      H19S          -20.1879496510      -15.1076187898        2.1631088801  MEMB      40              0.0000000000
      4742        40  SAPI      C220          -18.0655327975      -15.3151400170        2.5466637700  MEMB      40              0.0000000000
      4743        40  SAPI      H20R          -17.3187564151      -15.8502475501        3.1714089323  MEMB      40              0.0000000000
      4744        40  SAPI      H20S          -17.9275492325      -14.2802143886        2.9264145330  MEMB      40              0.0000000000
      4745        40  SAPI      H20T          -17.7841594373      -15.5177157394        1.4911480122  MEMB      40              0.0000000000
      4746        40  SAPI      C33           -16.2954047168      -20.4072385265       13.1840459907  MEMB      40              0.0000000000
      4747        40  SAPI      H3X           -16.5504628099      -19.3303507661       13.2819201524  MEMB      40              0.0000000000
      4748        40  SAPI      H3Y           -17.1857884485      -20.8844673205       12.7216710163  MEMB      40              0.0000000000
      4749        40  SAPI      C34           -15.1318938651      -20.5744076739       12.1505459914  MEMB      40              0.0000000000
      4750        40  SAPI      H4X           -15.5208797969      -20.0410814701       11.2569168134  MEMB      40              0.0000000000
      4751        40  SAPI      H4Y           -14.8303007695      -21.6019059244       11.8545575266  MEMB      40              0.0000000000
      4752        40  SAPI      C35           -13.7707565313      -20.0137824913       12.5912806571  MEMB      40              0.0000000000
      4753        40  SAPI      H5X           -13.3984948179      -20.5396670562       13.4963704823  MEMB      40              0.0000000000
      4754        40  SAPI      H5Y           -13.9194909898      -18.9444998260       12.8536429834  MEMB      40              0.0000000000
      4755        40  SAPI      C36           -12.6888521202      -20.0748611160       11.4892256830  MEMB      40              0.0000000000
      4756        40  SAPI      H6X           -12.2367902047      -21.0669308086       11.2753143364  MEMB      40              0.0000000000
      4757        40  SAPI      H6Y           -11.7883646641      -19.4935167154       11.7815993233  MEMB      40              0.0000000000
      4758        40  SAPI      C37           -12.9869077551      -19.3253907005       10.1520672876  MEMB      40              0.0000000000
      4759        40  SAPI      H7X           -12.0212238938      -18.9739357582        9.7298649491  MEMB      40              0.0000000000
      4760        40  SAPI      H7Y           -13.6428623598      -18.4566413678       10.3741472197  MEMB      40              0.0000000000
      4761        40  SAPI      C38           -13.6809812411      -20.1826256992        9.0811447061  MEMB      40              0.0000000000
      4762        40  SAPI      H8X           -14.5687022818      -20.7146689482        9.4851276327  MEMB      40              0.0000000000
      4763        40  SAPI      H8Y           -12.9535514521      -20.9256969863        8.6899775945  MEMB      40              0.0000000000
      4764        40  SAPI      C39           -13.9400866778      -19.3983962500        7.8406473983  MEMB      40              0.0000000000
      4765        40  SAPI      H9X           -13.0350117722      -18.8546601296        7.4949425180  MEMB      40              0.0000000000
      4766        40  SAPI      H9Y           -14.5327088700      -18.5074766567        8.1396157242  MEMB      40              0.0000000000
      4767        40  SAPI      C310          -14.6266552822      -20.2050612198        6.7244352510  MEMB      40              0.0000000000
      4768        40  SAPI      H10X          -15.6919159722      -20.3183528401        7.0188938629  MEMB      40              0.0000000000
      4769        40  SAPI      H10Y          -14.0045222360      -21.1237846212        6.6677018248  MEMB      40              0.0000000000
      4770        40  SAPI      C311          -14.6551684679      -19.5228529520        5.4171353196  MEMB      40              0.0000000000
      4771        40  SAPI      H11X          -13.6214362475      -19.5737277067        5.0132402193  MEMB      40              0.0000000000
      4772        40  SAPI      H11Y          -15.0218597943      -18.5016609505        5.6559350757  MEMB      40              0.0000000000
      4773        40  SAPI      C312          -15.7382324002      -20.2270863863        4.5153758712  MEMB      40              0.0000000000
      4774        40  SAPI      H12X          -16.7443525943      -19.8513282805        4.7997147849  MEMB      40              0.0000000000
      4775        40  SAPI      H12Y          -15.5681204013      -21.3240272381        4.5612463681  MEMB      40              0.0000000000
      4776        40  SAPI      C313          -15.5882063495      -19.9871540837        2.9862519505  MEMB      40              0.0000000000
      4777        40  SAPI      H13X          -14.5740154127      -20.3108854123        2.6685475455  MEMB      40              0.0000000000
      4778        40  SAPI      H13Y          -15.6374012371      -18.8809116439        2.8960941269  MEMB      40              0.0000000000
      4779        40  SAPI      C314          -16.7060092566      -20.7930475009        2.2359976564  MEMB      40              0.0000000000
      4780        40  SAPI      H14X          -17.7245003795      -20.5096921459        2.5776198484  MEMB      40              0.0000000000
      4781        40  SAPI      H14Y          -16.5059524683      -21.8430539874        2.5389558443  MEMB      40              0.0000000000
      4782        40  SAPI      C315          -16.7541912200      -20.7114950926        0.7099994104  MEMB      40              0.0000000000
      4783        40  SAPI      H15X          -17.3865627926      -21.4342198711        0.1513446151  MEMB      40              0.0000000000
      4784        40  SAPI      H15Y          -15.7208547875      -20.7901600288        0.3095654714  MEMB      40              0.0000000000
      4785        40  SAPI      C316          -17.2220124993      -19.2917666177        0.2423429908  MEMB      40              0.0000000000
      4786        40  SAPI      H16X          -16.4790478590      -18.5074151689        0.5014133812  MEMB      40              0.0000000000
      4787        40  SAPI      H16Y          -18.1632922431      -19.1867759532        0.8231100894  MEMB      40              0.0000000000
      4788        40  SAPI      C317          -17.4647344671      -19.2723728631       -1.3298338352  MEMB      40              0.0000000000
      4789        40  SAPI      H17X          -18.4464276419      -19.7398472378       -1.5580153262  MEMB      40              0.0000000000
      4790        40  SAPI      H17Y          -16.6759258420      -19.9186928554       -1.7707107602  MEMB      40              0.0000000000
      4791        40  SAPI      C318          -17.4529932413      -17.9791579523       -2.0873210934  MEMB      40              0.0000000000
      4792        40  SAPI      H18X          -17.6276279161      -18.2102428346       -3.1598996441  MEMB      40              0.0000000000
      4793        40  SAPI      H18Y          -16.4168758130      -17.6004924780       -1.9554346895  MEMB      40              0.0000000000
      4794        40  SAPI      H18Z          -18.2151536665      -17.2610282052       -1.7162118893  MEMB      40              0.0000000000
      4795        41  CHL1      C3            -23.3555482295       13.3266668549       17.2946750000  MEMB      41              0.0000000000
      4796        41  CHL1      H3            -22.8610555467       12.3954650789       16.9444550000  MEMB      41              0.0000000000
      4797        41  CHL1      O3            -23.3388458439       13.4475029451       18.7053250000  MEMB      41              0.0000000000
      4798        41  CHL1      H3'           -23.6044376150       14.3432917937       18.9258350000  MEMB      41              0.0000000000
      4799        41  CHL1      C4            -22.4829916056       14.4936454792       16.7647050000  MEMB      41              0.0000000000
      4800        41  CHL1      H4A           -22.8427785295       15.4891606457       17.1020950000  MEMB      41              0.0000000000
      4801        41  CHL1      H4B           -21.4309470667       14.3234173469       17.0786650000  MEMB      41              0.0000000000
      4802        41  CHL1      C5            -22.5919582838       14.5300880359       15.2563250000  MEMB      41              0.0000000000
      4803        41  CHL1      C6            -21.4350857283       14.3758699205       14.6002450000  MEMB      41              0.0000000000
      4804        41  CHL1      H6            -20.4558411318       14.4035961316       15.1005450000  MEMB      41              0.0000000000
      4805        41  CHL1      C7            -21.3269444347       14.3779288551       13.0801850000  MEMB      41              0.0000000000
      4806        41  CHL1      H7A           -20.5815644687       15.1229058879       12.7284250000  MEMB      41              0.0000000000
      4807        41  CHL1      H7B           -21.0552013041       13.3759905611       12.6844650000  MEMB      41              0.0000000000
      4808        41  CHL1      C8            -22.7315457600       14.7475474108       12.4493850000  MEMB      41              0.0000000000
      4809        41  CHL1      H8            -22.9334909624       15.8393657122       12.4110650000  MEMB      41              0.0000000000
      4810        41  CHL1      C14           -22.7542257669       14.4000896100       10.9834050000  MEMB      41              0.0000000000
      4811        41  CHL1      H14           -22.6874262355       13.2911143278       10.9783450000  MEMB      41              0.0000000000
      4812        41  CHL1      C15           -21.6088813183       14.7456275190       10.1020450000  MEMB      41              0.0000000000
      4813        41  CHL1      H15A          -21.2895823384       15.8088298174       10.1464750000  MEMB      41              0.0000000000
      4814        41  CHL1      H15B          -20.7260039755       14.0799881936       10.2104950000  MEMB      41              0.0000000000
      4815        41  CHL1      C16           -22.2109927467       14.6808427902        8.6670550000  MEMB      41              0.0000000000
      4816        41  CHL1      H16A          -22.0096687972       15.7279174751        8.3549150000  MEMB      41              0.0000000000
      4817        41  CHL1      H16B          -21.6877160192       14.0152072231        7.9477250000  MEMB      41              0.0000000000
      4818        41  CHL1      C17           -23.6813102866       14.3017741859        8.8049850000  MEMB      41              0.0000000000
      4819        41  CHL1      H17           -23.6756261747       13.1907934093        8.8013050000  MEMB      41              0.0000000000
      4820        41  CHL1      C13           -24.0430174967       14.6868031188       10.2579450000  MEMB      41              0.0000000000
      4821        41  CHL1      C18           -24.4174719993       16.1988688391       10.2475150000  MEMB      41              0.0000000000
      4822        41  CHL1      H18A          -25.3993356308       16.4049963506        9.7702550000  MEMB      41              0.0000000000
      4823        41  CHL1      H18B          -24.4282686435       16.6072373969       11.2806750000  MEMB      41              0.0000000000
      4824        41  CHL1      H18C          -23.5728074892       16.6977173032        9.7259650000  MEMB      41              0.0000000000
      4825        41  CHL1      C12           -25.1386479545       13.7574383393       10.9055150000  MEMB      41              0.0000000000
      4826        41  CHL1      H12A          -26.1027455371       13.8542965673       10.3619550000  MEMB      41              0.0000000000
      4827        41  CHL1      H12B          -24.8313304932       12.6912208107       10.8502450000  MEMB      41              0.0000000000
      4828        41  CHL1      C11           -25.3464240545       14.0923754532       12.3780250000  MEMB      41              0.0000000000
      4829        41  CHL1      H11A          -25.8020363938       15.1030633172       12.4505750000  MEMB      41              0.0000000000
      4830        41  CHL1      H11B          -26.1142381067       13.4256748753       12.8255850000  MEMB      41              0.0000000000
      4831        41  CHL1      C9            -23.9482560702       14.0428727988       13.1638050000  MEMB      41              0.0000000000
      4832        41  CHL1      H9            -23.7039286986       12.9595695335       13.1966650000  MEMB      41              0.0000000000
      4833        41  CHL1      C10           -23.9871916764       14.5605593721       14.6066750000  MEMB      41              0.0000000000
      4834        41  CHL1      C19           -24.5741973698       15.8962911031       14.7861050000  MEMB      41              0.0000000000
      4835        41  CHL1      H19A          -24.0325369868       16.7339150976       14.2969150000  MEMB      41              0.0000000000
      4836        41  CHL1      H19B          -25.5815689831       16.0506831435       14.3437550000  MEMB      41              0.0000000000
      4837        41  CHL1      H19C          -24.5421907650       16.1815165491       15.8593950000  MEMB      41              0.0000000000
      4838        41  CHL1      C1            -24.8773149982       13.4317172346       15.3345050000  MEMB      41              0.0000000000
      4839        41  CHL1      H1A           -25.9486855463       13.6200173970       15.1086350000  MEMB      41              0.0000000000
      4840        41  CHL1      H1B           -24.7396829720       12.4600131295       14.8137650000  MEMB      41              0.0000000000
      4841        41  CHL1      C2            -24.7995445497       13.3198648254       16.8700150000  MEMB      41              0.0000000000
      4842        41  CHL1      H2A           -25.2745386524       12.4406876931       17.3555650000  MEMB      41              0.0000000000
      4843        41  CHL1      H2B           -25.3592563935       14.1613395372       17.3314850000  MEMB      41              0.0000000000
      4844        41  CHL1      C20           -24.5740512987       14.7707035985        7.6327650000  MEMB      41              0.0000000000
      4845        41  CHL1      H20           -24.6778337601       15.8695968677        7.7592250000  MEMB      41              0.0000000000
      4846        41  CHL1      C21           -25.9589588935       14.0838179145        7.7247150000  MEMB      41              0.0000000000
      4847        41  CHL1      H21A          -26.6269469153       14.7033201422        8.3605950000  MEMB      41              0.0000000000
      4848        41  CHL1      H21B          -25.9620333457       13.0481443171        8.1268350000  MEMB      41              0.0000000000
      4849        41  CHL1      H21C          -26.3977751750       13.9893414577        6.7084350000  MEMB      41              0.0000000000
      4850        41  CHL1      C22           -23.9056757971       14.6452167251        6.1760950000  MEMB      41              0.0000000000
      4851        41  CHL1      H22A          -22.9790325480       15.2565071811        6.2205750000  MEMB      41              0.0000000000
      4852        41  CHL1      H22B          -23.5818134631       13.5829868261        6.2095550000  MEMB      41              0.0000000000
      4853        41  CHL1      C23           -24.6750591177       15.0073788225        4.9704450000  MEMB      41              0.0000000000
      4854        41  CHL1      H23A          -25.4446349732       14.2140423095        4.8577450000  MEMB      41              0.0000000000
      4855        41  CHL1      H23B          -25.1969314986       15.9818800619        5.0814350000  MEMB      41              0.0000000000
      4856        41  CHL1      C24           -23.8657346844       15.0276483879        3.6444450000  MEMB      41              0.0000000000
      4857        41  CHL1      H24A          -22.9168627732       15.5642093880        3.8590850000  MEMB      41              0.0000000000
      4858        41  CHL1      H24B          -23.5247174557       14.0768508705        3.1818350000  MEMB      41              0.0000000000
      4859        41  CHL1      C25           -24.6363598464       15.7337602707        2.4710750000  MEMB      41              0.0000000000
      4860        41  CHL1      H25           -24.5634092994       16.8337684083        2.6089150000  MEMB      41              0.0000000000
      4861        41  CHL1      C26           -24.0201816443       15.4037130866        1.0346650000  MEMB      41              0.0000000000
      4862        41  CHL1      H26A          -24.5862394677       15.9827385969        0.2739850000  MEMB      41              0.0000000000
      4863        41  CHL1      H26B          -22.9441068320       15.6686938905        0.9561550000  MEMB      41              0.0000000000
      4864        41  CHL1      H26C          -24.1232546732       14.3138853901        0.8449650000  MEMB      41              0.0000000000
      4865        41  CHL1      C27           -26.0409519095       15.3877696031        2.3365650000  MEMB      41              0.0000000000
      4866        41  CHL1      H27A          -26.1741221355       14.2929737650        2.4707350000  MEMB      41              0.0000000000
      4867        41  CHL1      H27B          -26.7112978448       15.8418113680        3.0973650000  MEMB      41              0.0000000000
      4868        41  CHL1      H27C          -26.5189527236       15.6290996962        1.3631250000  MEMB      41              0.0000000000
      4869        42  CHL1      C3             12.4026493141      -25.4936117169       17.3677900000  MEMB      42              0.0000000000
      4870        42  CHL1      H3             13.5095116522      -25.5838869263       17.3999300000  MEMB      42              0.0000000000
      4871        42  CHL1      O3             11.8834434074      -25.1148086866       18.6322100000  MEMB      42              0.0000000000
      4872        42  CHL1      H3'            12.1342561159      -24.1911344583       18.7065600000  MEMB      42              0.0000000000
      4873        42  CHL1      C4             11.9048772493      -24.5109263840       16.4268500000  MEMB      42              0.0000000000
      4874        42  CHL1      H4A            10.7946026861      -24.4886773373       16.4600000000  MEMB      42              0.0000000000
      4875        42  CHL1      H4B            12.2769030328      -23.4954353023       16.6812000000  MEMB      42              0.0000000000
      4876        42  CHL1      C5             12.3177950113      -24.8860707239       15.0036000000  MEMB      42              0.0000000000
      4877        42  CHL1      C6             13.0370123978      -23.9735977326       14.2513100000  MEMB      42              0.0000000000
      4878        42  CHL1      H6             13.3420863227      -22.9644977963       14.5653900000  MEMB      42              0.0000000000
      4879        42  CHL1      C7             13.4711308528      -24.2388843140       12.8222600000  MEMB      42              0.0000000000
      4880        42  CHL1      H7A            13.1695766459      -23.3921851650       12.1692100000  MEMB      42              0.0000000000
      4881        42  CHL1      H7B            14.5575640015      -24.4690870089       12.8536600000  MEMB      42              0.0000000000
      4882        42  CHL1      C8             12.8339202094      -25.5683355341       12.2626000000  MEMB      42              0.0000000000
      4883        42  CHL1      H8             11.7920495315      -25.2910899311       11.9943400000  MEMB      42              0.0000000000
      4884        42  CHL1      C14            13.5651260330      -26.1072804478       11.0330000000  MEMB      42              0.0000000000
      4885        42  CHL1      H14            14.4865002699      -26.5922040596       11.4206000000  MEMB      42              0.0000000000
      4886        42  CHL1      C15            14.0238357698      -25.0147779395        9.9728700000  MEMB      42              0.0000000000
      4887        42  CHL1      H15A           13.1829282717      -24.3086463576        9.8038400000  MEMB      42              0.0000000000
      4888        42  CHL1      H15B           14.9502650599      -24.6040318539       10.4282200000  MEMB      42              0.0000000000
      4889        42  CHL1      C16            14.0467741864      -25.7291563017        8.6946000000  MEMB      42              0.0000000000
      4890        42  CHL1      H16A           13.2405553806      -25.3301197576        8.0425900000  MEMB      42              0.0000000000
      4891        42  CHL1      H16B           15.0020788278      -25.6046745297        8.1412400000  MEMB      42              0.0000000000
      4892        42  CHL1      C17            13.6900618786      -27.2279934974        9.0250900000  MEMB      42              0.0000000000
      4893        42  CHL1      H17            14.6535820535      -27.6966928768        9.3188000000  MEMB      42              0.0000000000
      4894        42  CHL1      C13            12.7849971691      -27.2180833182       10.2980300000  MEMB      42              0.0000000000
      4895        42  CHL1      C18            11.3551151550      -26.8198483066        9.9108300000  MEMB      42              0.0000000000
      4896        42  CHL1      H18A           11.3695861982      -25.9694472918        9.1960400000  MEMB      42              0.0000000000
      4897        42  CHL1      H18B           10.7929696676      -27.7027132963        9.5381900000  MEMB      42              0.0000000000
      4898        42  CHL1      H18C           10.7622216477      -26.3905912812       10.7466200000  MEMB      42              0.0000000000
      4899        42  CHL1      C12            12.7759816730      -28.4134397369       11.2833700000  MEMB      42              0.0000000000
      4900        42  CHL1      H12A           12.4333473765      -29.3974369764       10.8977900000  MEMB      42              0.0000000000
      4901        42  CHL1      H12B           13.8099579846      -28.6998845997       11.5717800000  MEMB      42              0.0000000000
      4902        42  CHL1      C11            12.1659946933      -28.0734566405       12.7008500000  MEMB      42              0.0000000000
      4903        42  CHL1      H11A           11.0942878240      -28.1008827103       12.4092700000  MEMB      42              0.0000000000
      4904        42  CHL1      H11B           12.3281168744      -28.8627588367       13.4657300000  MEMB      42              0.0000000000
      4905        42  CHL1      C9             12.6842179730      -26.7256545711       13.2232600000  MEMB      42              0.0000000000
      4906        42  CHL1      H9             13.7142905878      -26.8895198314       13.6059000000  MEMB      42              0.0000000000
      4907        42  CHL1      C10            11.9419002275      -26.3152119110       14.4806200000  MEMB      42              0.0000000000
      4908        42  CHL1      C19            10.3966894923      -26.4469330514       14.2482900000  MEMB      42              0.0000000000
      4909        42  CHL1      H19A            9.8387094465      -25.9899113523       15.0933500000  MEMB      42              0.0000000000
      4910        42  CHL1      H19B            9.9888256060      -25.8868276181       13.3798100000  MEMB      42              0.0000000000
      4911        42  CHL1      H19C           10.0995187685      -27.5027327084       14.0714400000  MEMB      42              0.0000000000
      4912        42  CHL1      C1             12.2562352085      -27.3347655985       15.6311400000  MEMB      42              0.0000000000
      4913        42  CHL1      H1A            11.7917566018      -28.3054951823       15.3549700000  MEMB      42              0.0000000000
      4914        42  CHL1      H1B            13.3596154360      -27.4165140614       15.5302300000  MEMB      42              0.0000000000
      4915        42  CHL1      C2             11.7814720295      -26.8667782593       17.0471300000  MEMB      42              0.0000000000
      4916        42  CHL1      H2A            12.2580353297      -27.4475173239       17.8656400000  MEMB      42              0.0000000000
      4917        42  CHL1      H2B            10.6879496023      -26.8942095463       17.2414600000  MEMB      42              0.0000000000
      4918        42  CHL1      C20            13.3491101424      -28.1925344811        7.8176500000  MEMB      42              0.0000000000
      4919        42  CHL1      H20            12.2651533828      -27.9958377124        7.6738900000  MEMB      42              0.0000000000
      4920        42  CHL1      C21            13.6404526217      -29.6285648793        8.2776300000  MEMB      42              0.0000000000
      4921        42  CHL1      H21A           13.6605383143      -30.3717199972        7.4520200000  MEMB      42              0.0000000000
      4922        42  CHL1      H21B           12.8005514060      -29.9212269660        8.9434000000  MEMB      42              0.0000000000
      4923        42  CHL1      H21C           14.5541734774      -29.5671266540        8.9066400000  MEMB      42              0.0000000000
      4924        42  CHL1      C22            14.1182656858      -27.7921673108        6.5100500000  MEMB      42              0.0000000000
      4925        42  CHL1      H22A           14.4748163457      -26.7422409485        6.4404100000  MEMB      42              0.0000000000
      4926        42  CHL1      H22B           15.0963939871      -28.2959293589        6.6643100000  MEMB      42              0.0000000000
      4927        42  CHL1      C23            13.3947092458      -28.1192549575        5.1857600000  MEMB      42              0.0000000000
      4928        42  CHL1      H23A           12.9937547355      -29.1543123563        5.2325800000  MEMB      42              0.0000000000
      4929        42  CHL1      H23B           12.5242026316      -27.4294666075        5.1583500000  MEMB      42              0.0000000000
      4930        42  CHL1      C24            14.3414496011      -28.1107398079        3.9370400000  MEMB      42              0.0000000000
      4931        42  CHL1      H24A           14.7424669219      -27.0885910944        3.7675700000  MEMB      42              0.0000000000
      4932        42  CHL1      H24B           15.1807738891      -28.8177508475        4.1102300000  MEMB      42              0.0000000000
      4933        42  CHL1      C25            13.5741972383      -28.5121316264        2.6392400000  MEMB      42              0.0000000000
      4934        42  CHL1      H25            13.1533412948      -29.5232354564        2.8259800000  MEMB      42              0.0000000000
      4935        42  CHL1      C26            12.4888465537      -27.4498281339        2.4263100000  MEMB      42              0.0000000000
      4936        42  CHL1      H26A           12.1120986291      -27.5568933012        1.3866400000  MEMB      42              0.0000000000
      4937        42  CHL1      H26B           11.6534845363      -27.4801932364        3.1581300000  MEMB      42              0.0000000000
      4938        42  CHL1      H26C           12.9486713519      -26.4384580990        2.4240300000  MEMB      42              0.0000000000
      4939        42  CHL1      C27            14.6127432249      -28.5858016736        1.4951300000  MEMB      42              0.0000000000
      4940        42  CHL1      H27A           15.3895829116      -29.3442109214        1.7310600000  MEMB      42              0.0000000000
      4941        42  CHL1      H27B           14.1003498725      -28.6913140541        0.5150000000  MEMB      42              0.0000000000
      4942        42  CHL1      H27C           15.2343558874      -27.6810302650        1.6662600000  MEMB      42              0.0000000000
      4943        43  SAPC      N             -17.3798405747       19.9371223246       18.5126563070  MEMB      43              0.0000000000
      4944        43  SAPC      C12           -18.8071126652       20.2951945848       18.4335185898  MEMB      43              0.0000000000
      4945        43  SAPC      H12A          -19.2079904448       19.8119866168       17.5547653179  MEMB      43              0.0000000000
      4946        43  SAPC      H12B          -18.8031868766       21.3561463327       18.2316126610  MEMB      43              0.0000000000
      4947        43  SAPC      C13           -17.1959625113       18.5786731152       19.1372726124  MEMB      43              0.0000000000
      4948        43  SAPC      H13A          -17.9489480976       17.9022013520       18.7607108396  MEMB      43              0.0000000000
      4949        43  SAPC      H13B          -16.2534619444       18.2084711002       18.7617155086  MEMB      43              0.0000000000
      4950        43  SAPC      H13C          -17.3761392932       18.7129665445       20.1936349804  MEMB      43              0.0000000000
      4951        43  SAPC      C14           -16.9554089645       19.8855713061       17.0800608885  MEMB      43              0.0000000000
      4952        43  SAPC      H14A          -17.5592826738       19.1745832213       16.5357884881  MEMB      43              0.0000000000
      4953        43  SAPC      H14B          -17.2201216008       20.8620387847       16.7021208934  MEMB      43              0.0000000000
      4954        43  SAPC      H14C          -15.9095030947       19.6778851086       16.9087501562  MEMB      43              0.0000000000
      4955        43  SAPC      C15           -16.6371217396       20.9389853546       19.3280255607  MEMB      43              0.0000000000
      4956        43  SAPC      H15A          -17.2162592447       21.8234827455       19.1074259099  MEMB      43              0.0000000000
      4957        43  SAPC      H15B          -16.6917632406       20.6815236919       20.3754642943  MEMB      43              0.0000000000
      4958        43  SAPC      H15C          -15.5986341316       21.0745882371       19.0642918889  MEMB      43              0.0000000000
      4959        43  SAPC      C11           -19.7773792047       19.8117170489       19.6156141284  MEMB      43              0.0000000000
      4960        43  SAPC      H11A          -19.9129191218       18.7146182986       19.5045990137  MEMB      43              0.0000000000
      4961        43  SAPC      H11B          -20.7557920733       20.3085554858       19.4418875347  MEMB      43              0.0000000000
      4962        43  SAPC      P             -19.4942706374       21.3804184686       21.6831930518  MEMB      43              0.0000000000
      4963        43  SAPC      O13           -20.2963010651       21.0474699903       22.8572920113  MEMB      43              0.0000000000
      4964        43  SAPC      O14           -18.2072407848       22.1100858894       21.7825383354  MEMB      43              0.0000000000
      4965        43  SAPC      O12           -19.2644609313       20.0364541637       20.8966054369  MEMB      43              0.0000000000
      4966        43  SAPC      O11           -20.5072937275       22.1671354588       20.6732230560  MEMB      43              0.0000000000
      4967        43  SAPC      C1            -20.0516311213       23.3197357594       19.9682322384  MEMB      43              0.0000000000
      4968        43  SAPC      HA            -20.0855050818       24.3355307873       20.4169348516  MEMB      43              0.0000000000
      4969        43  SAPC      HB            -19.0278544736       23.2383680207       19.5444615755  MEMB      43              0.0000000000
      4970        43  SAPC      C2            -21.0397728307       23.5474751204       18.6906778758  MEMB      43              0.0000000000
      4971        43  SAPC      HS            -22.0060163700       23.8620569953       19.1398245852  MEMB      43              0.0000000000
      4972        43  SAPC      O21           -21.1023478914       22.4379808763       17.8513770186  MEMB      43              0.0000000000
      4973        43  SAPC      C21           -22.0984604924       22.3254419965       17.0306908523  MEMB      43              0.0000000000
      4974        43  SAPC      O22           -23.0861708168       23.1159038979       16.9289364232  MEMB      43              0.0000000000
      4975        43  SAPC      C22           -21.9379891325       21.0079111435       16.1499034090  MEMB      43              0.0000000000
      4976        43  SAPC      H2R           -21.1325477522       20.3862983869       16.5962024659  MEMB      43              0.0000000000
      4977        43  SAPC      H2S           -22.8038980093       20.3124245796       16.1212508395  MEMB      43              0.0000000000
      4978        43  SAPC      C3            -20.5586796951       24.6857607709       17.7735342558  MEMB      43              0.0000000000
      4979        43  SAPC      HX            -20.3732662597       25.5776645756       18.4094982456  MEMB      43              0.0000000000
      4980        43  SAPC      HY            -21.3140789952       24.9328037231       16.9972208045  MEMB      43              0.0000000000
      4981        43  SAPC      O31           -19.2987287945       24.2854811210       17.1715276002  MEMB      43              0.0000000000
      4982        43  SAPC      C31           -18.1965463164       25.0966420015       17.3739296661  MEMB      43              0.0000000000
      4983        43  SAPC      O32           -18.1738553622       26.0238310721       18.1285096030  MEMB      43              0.0000000000
      4984        43  SAPC      C32           -16.9275108750       24.5284517852       16.7207346763  MEMB      43              0.0000000000
      4985        43  SAPC      H2X           -16.2482933905       24.3699417572       17.5855231881  MEMB      43              0.0000000000
      4986        43  SAPC      H2Y           -16.4634691650       25.2493617828       16.0141405552  MEMB      43              0.0000000000
      4987        43  SAPC      C23           -21.5483136648       21.4126572697       14.7512091723  MEMB      43              0.0000000000
      4988        43  SAPC      H3R           -21.0774325393       20.5444739803       14.2424363070  MEMB      43              0.0000000000
      4989        43  SAPC      H3S           -20.9279106676       22.3339869693       14.7272762302  MEMB      43              0.0000000000
      4990        43  SAPC      C24           -22.6741598897       21.8389299564       13.8172761096  MEMB      43              0.0000000000
      4991        43  SAPC      H4R           -23.4320707357       21.0419558855       13.9745164804  MEMB      43              0.0000000000
      4992        43  SAPC      H4S           -22.2749705952       21.6706392780       12.7942184776  MEMB      43              0.0000000000
      4993        43  SAPC      C25           -23.3123343328       23.2088051350       13.7987691022  MEMB      43              0.0000000000
      4994        43  SAPC      H5R           -23.7780319511       23.4649346807       14.7618493699  MEMB      43              0.0000000000
      4995        43  SAPC      C26           -23.3435108639       24.1649194353       12.8198677469  MEMB      43              0.0000000000
      4996        43  SAPC      H6R           -23.9467834802       25.0833032586       12.8711801133  MEMB      43              0.0000000000
      4997        43  SAPC      C27           -22.7165735293       24.0060355815       11.4104332063  MEMB      43              0.0000000000
      4998        43  SAPC      H7R           -23.5020717267       23.4952981466       10.8133905214  MEMB      43              0.0000000000
      4999        43  SAPC      H7S           -21.7934009428       23.4100082885       11.5742155651  MEMB      43              0.0000000000
      5000        43  SAPC      C28           -22.4017841346       25.3415106250       10.6800164861  MEMB      43              0.0000000000
      5001        43  SAPC      H8R           -23.2572225751       26.0330489634       10.6793572190  MEMB      43              0.0000000000
      5002        43  SAPC      C29           -21.3022600421       25.7264100495       10.1173134652  MEMB      43              0.0000000000
      5003        43  SAPC      H9R           -21.1724690992       26.6678840779        9.5634343872  MEMB      43              0.0000000000
      5004        43  SAPC      C210          -20.0374233137       24.9100866138       10.1974539847  MEMB      43              0.0000000000
      5005        43  SAPC      H10R          -19.9306443081       24.4287400822       11.1930575198  MEMB      43              0.0000000000
      5006        43  SAPC      H10S          -19.1465591734       25.5418605698        9.9936317513  MEMB      43              0.0000000000
      5007        43  SAPC      C211          -20.2635198491       23.7123364767        9.2209271847  MEMB      43              0.0000000000
      5008        43  SAPC      H11R          -21.0749852352       23.0081145499        9.4567134473  MEMB      43              0.0000000000
      5009        43  SAPC      C212          -19.5080287653       23.3921156675        8.1330674389  MEMB      43              0.0000000000
      5010        43  SAPC      H12R          -19.6214762919       22.4965730240        7.5044711095  MEMB      43              0.0000000000
      5011        43  SAPC      C213          -18.2847762413       24.0999905814        7.6581012775  MEMB      43              0.0000000000
      5012        43  SAPC      H13R          -17.7269457226       23.3516827872        7.0554554455  MEMB      43              0.0000000000
      5013        43  SAPC      H13S          -17.6324367672       24.4815170227        8.4724792036  MEMB      43              0.0000000000
      5014        43  SAPC      C214          -18.8132742528       25.1949715074        6.8103348697  MEMB      43              0.0000000000
      5015        43  SAPC      H14R          -19.6725006334       25.8456171599        7.0303125927  MEMB      43              0.0000000000
      5016        43  SAPC      C215          -18.2349647364       25.6048338647        5.6844438925  MEMB      43              0.0000000000
      5017        43  SAPC      H15R          -18.6362870285       26.4625636136        5.1247648869  MEMB      43              0.0000000000
      5018        43  SAPC      C216          -16.9867379486       25.0626866666        5.0145653069  MEMB      43              0.0000000000
      5019        43  SAPC      H16R          -16.4576505218       24.2880918274        5.6098724537  MEMB      43              0.0000000000
      5020        43  SAPC      H16S          -16.2570188149       25.9001349683        4.9919525595  MEMB      43              0.0000000000
      5021        43  SAPC      C217          -17.0966794012       24.5002909533        3.5973151966  MEMB      43              0.0000000000
      5022        43  SAPC      H17R          -16.0174977819       24.3442942071        3.3843529966  MEMB      43              0.0000000000
      5023        43  SAPC      H17S          -17.5727878558       25.2173969294        2.8948919571  MEMB      43              0.0000000000
      5024        43  SAPC      C218          -17.8112369334       23.1467770787        3.4913680737  MEMB      43              0.0000000000
      5025        43  SAPC      H18R          -18.9020937761       23.3286106299        3.3851182673  MEMB      43              0.0000000000
      5026        43  SAPC      H18S          -17.6888476371       22.5624368310        4.4283257954  MEMB      43              0.0000000000
      5027        43  SAPC      C219          -17.3803797284       22.2863352352        2.3020833313  MEMB      43              0.0000000000
      5028        43  SAPC      H19R          -16.3476751039       21.9634210229        2.5542120440  MEMB      43              0.0000000000
      5029        43  SAPC      H19S          -17.4932746876       22.9752571234        1.4378154080  MEMB      43              0.0000000000
      5030        43  SAPC      C220          -18.2634489556       21.0323625587        2.0155709776  MEMB      43              0.0000000000
      5031        43  SAPC      H20R          -18.1994478690       20.2269612137        2.7781667229  MEMB      43              0.0000000000
      5032        43  SAPC      H20S          -17.8107508394       20.6044940839        1.0956166909  MEMB      43              0.0000000000
      5033        43  SAPC      H20T          -19.3373712244       21.2508495373        1.8331565296  MEMB      43              0.0000000000
      5034        43  SAPC      C33           -17.2255278185       23.2224552171       16.0358417475  MEMB      43              0.0000000000
      5035        43  SAPC      H3X           -18.0172737912       22.6417967793       16.5557405642  MEMB      43              0.0000000000
      5036        43  SAPC      H3Y           -16.2893950127       22.6383321940       16.1653665151  MEMB      43              0.0000000000
      5037        43  SAPC      C34           -17.6286303096       23.2833797952       14.5499320376  MEMB      43              0.0000000000
      5038        43  SAPC      H4X           -16.8929734444       23.9631781150       14.0693034849  MEMB      43              0.0000000000
      5039        43  SAPC      H4Y           -18.5570052088       23.8430512485       14.3066029844  MEMB      43              0.0000000000
      5040        43  SAPC      C35           -17.6296704563       21.9163789007       13.8265018500  MEMB      43              0.0000000000
      5041        43  SAPC      H5X           -18.4374071892       21.2610237173       14.2168759225  MEMB      43              0.0000000000
      5042        43  SAPC      H5Y           -16.7262611555       21.3107496079       14.0531861282  MEMB      43              0.0000000000
      5043        43  SAPC      C36           -17.7560806052       22.0518141067       12.2879629815  MEMB      43              0.0000000000
      5044        43  SAPC      H6X           -17.0612324953       22.8998510347       12.1081288056  MEMB      43              0.0000000000
      5045        43  SAPC      H6Y           -18.7038745472       22.4014083962       11.8255867268  MEMB      43              0.0000000000
      5046        43  SAPC      C37           -17.4124071330       20.7302771158       11.6022367240  MEMB      43              0.0000000000
      5047        43  SAPC      H7X           -18.2017960689       19.9612348480       11.7428073026  MEMB      43              0.0000000000
      5048        43  SAPC      H7Y           -16.5758981992       20.2171698643       12.1230958904  MEMB      43              0.0000000000
      5049        43  SAPC      C38           -16.9757853529       20.8325409694       10.1460666507  MEMB      43              0.0000000000
      5050        43  SAPC      H8X           -16.0558915510       21.4531697419       10.0918792511  MEMB      43              0.0000000000
      5051        43  SAPC      H8Y           -17.6455303288       21.4839213734        9.5448452631  MEMB      43              0.0000000000
      5052        43  SAPC      C39           -16.6309521362       19.5170954877        9.4341499546  MEMB      43              0.0000000000
      5053        43  SAPC      H9X           -16.2939454089       18.8253400574       10.2355369087  MEMB      43              0.0000000000
      5054        43  SAPC      H9Y           -15.6884731094       19.5155324431        8.8458884039  MEMB      43              0.0000000000
      5055        43  SAPC      C310          -17.7977665394       18.9495633141        8.5937465878  MEMB      43              0.0000000000
      5056        43  SAPC      H10X          -18.5858595512       18.6654402916        9.3234754903  MEMB      43              0.0000000000
      5057        43  SAPC      H10Y          -17.4616147430       18.0414564086        8.0490767941  MEMB      43              0.0000000000
      5058        43  SAPC      C311          -18.4948944421       19.9348841648        7.5669843158  MEMB      43              0.0000000000
      5059        43  SAPC      H11X          -17.7586691782       20.6384316850        7.1227833683  MEMB      43              0.0000000000
      5060        43  SAPC      H11Y          -19.2279851975       20.4443439650        8.2283082480  MEMB      43              0.0000000000
      5061        43  SAPC      C312          -19.2102764978       19.1200390789        6.5700436604  MEMB      43              0.0000000000
      5062        43  SAPC      H12X          -19.9823454142       18.4533998183        7.0102970992  MEMB      43              0.0000000000
      5063        43  SAPC      H12Y          -18.4675231538       18.4758474852        6.0526891265  MEMB      43              0.0000000000
      5064        43  SAPC      C313          -19.9085816395       19.9554390687        5.4819933290  MEMB      43              0.0000000000
      5065        43  SAPC      H13X          -20.0993268359       19.1996593547        4.6903279192  MEMB      43              0.0000000000
      5066        43  SAPC      H13Y          -19.3317270817       20.7797506653        5.0107500306  MEMB      43              0.0000000000
      5067        43  SAPC      C314          -21.2265125354       20.5585481881        5.8974526423  MEMB      43              0.0000000000
      5068        43  SAPC      H14X          -21.0935871443       21.1099180962        6.8527757598  MEMB      43              0.0000000000
      5069        43  SAPC      H14Y          -21.9568214685       19.7746253290        6.1914506199  MEMB      43              0.0000000000
      5070        43  SAPC      C315          -21.7357103699       21.4871244839        4.7311218581  MEMB      43              0.0000000000
      5071        43  SAPC      H15X          -21.6099727301       20.7946244240        3.8714968487  MEMB      43              0.0000000000
      5072        43  SAPC      H15Y          -21.0259345366       22.3413646243        4.7026075239  MEMB      43              0.0000000000
      5073        43  SAPC      C316          -23.1590268839       21.9705319442        4.7319838040  MEMB      43              0.0000000000
      5074        43  SAPC      H16X          -23.3588788502       22.4640045237        5.7071064812  MEMB      43              0.0000000000
      5075        43  SAPC      H16Y          -23.8537607488       21.1039340712        4.7579450614  MEMB      43              0.0000000000
      5076        43  SAPC      C317          -23.4989155611       22.9533295396        3.5469892726  MEMB      43              0.0000000000
      5077        43  SAPC      H17X          -23.3805317663       22.5362586836        2.5240726838  MEMB      43              0.0000000000
      5078        43  SAPC      H17Y          -22.7890223984       23.8055090931        3.6115110452  MEMB      43              0.0000000000
      5079        43  SAPC      C318          -24.9244440918       23.5273755280        3.4896956858  MEMB      43              0.0000000000
      5080        43  SAPC      H18X          -25.1829548532       24.0394314820        4.4411637387  MEMB      43              0.0000000000
      5081        43  SAPC      H18Y          -25.6371711411       22.6754971192        3.4643229484  MEMB      43              0.0000000000
      5082        43  SAPC      H18Z          -25.1029807285       24.1646920095        2.5973547788  MEMB      43              0.0000000000
      5083        44  CHL1      C3            -15.7872537661      -23.1571901639       17.4077050000  MEMB      44              0.0000000000
      5084        44  CHL1      H3            -15.9525857186      -22.0844817416       17.6449350000  MEMB      44              0.0000000000
      5085        44  CHL1      O3            -15.6038826935      -23.8862604803       18.5922950000  MEMB      44              0.0000000000
      5086        44  CHL1      H3'           -14.9091060252      -23.4101720035       19.0529850000  MEMB      44              0.0000000000
      5087        44  CHL1      C4            -17.0623127205      -23.6332793674       16.7945350000  MEMB      44              0.0000000000
      5088        44  CHL1      H4A           -17.1012690829      -24.7351836475       16.9309550000  MEMB      44              0.0000000000
      5089        44  CHL1      H4B           -18.0038523526      -23.2865031046       17.2715650000  MEMB      44              0.0000000000
      5090        44  CHL1      C5            -17.2423357723      -23.3070627723       15.3421250000  MEMB      44              0.0000000000
      5091        44  CHL1      C6            -18.3708809637      -22.6930246589       14.9087750000  MEMB      44              0.0000000000
      5092        44  CHL1      H6            -19.0895095620      -22.5109438711       15.7214350000  MEMB      44              0.0000000000
      5093        44  CHL1      C7            -18.7693989676      -22.4869473647       13.5356050000  MEMB      44              0.0000000000
      5094        44  CHL1      H7A           -19.8342198891      -22.7174930836       13.3180550000  MEMB      44              0.0000000000
      5095        44  CHL1      H7B           -18.6393827043      -21.4101924335       13.2947550000  MEMB      44              0.0000000000
      5096        44  CHL1      C8            -17.8915832768      -23.2581101421       12.5233550000  MEMB      44              0.0000000000
      5097        44  CHL1      H8            -18.2129677807      -24.3129775651       12.6585250000  MEMB      44              0.0000000000
      5098        44  CHL1      C14           -18.2024789182      -22.7911540000       11.0683650000  MEMB      44              0.0000000000
      5099        44  CHL1      H14           -17.9385479780      -21.7119998373       11.0778550000  MEMB      44              0.0000000000
      5100        44  CHL1      C15           -19.5939660282      -22.9244945163       10.5987450000  MEMB      44              0.0000000000
      5101        44  CHL1      H15A          -20.0061274781      -23.8959587705       10.9461550000  MEMB      44              0.0000000000
      5102        44  CHL1      H15B          -20.2117275952      -22.0724782044       10.9547750000  MEMB      44              0.0000000000
      5103        44  CHL1      C16           -19.4663083930      -23.0288069502        9.0259950000  MEMB      44              0.0000000000
      5104        44  CHL1      H16A          -19.9362761176      -23.9625708859        8.6497750000  MEMB      44              0.0000000000
      5105        44  CHL1      H16B          -20.1006266352      -22.2253248017        8.5942550000  MEMB      44              0.0000000000
      5106        44  CHL1      C17           -18.0041343627      -22.9977240097        8.6890450000  MEMB      44              0.0000000000
      5107        44  CHL1      H17           -17.6625733156      -21.9407201406        8.7091050000  MEMB      44              0.0000000000
      5108        44  CHL1      C13           -17.3449106326      -23.4848361709       10.0218050000  MEMB      44              0.0000000000
      5109        44  CHL1      C18           -17.5308293482      -25.0368372708       10.0878250000  MEMB      44              0.0000000000
      5110        44  CHL1      H18A          -17.1376509246      -25.6069463583        9.2190850000  MEMB      44              0.0000000000
      5111        44  CHL1      H18B          -17.0742987056      -25.3075884689       11.0638450000  MEMB      44              0.0000000000
      5112        44  CHL1      H18C          -18.5988635078      -25.3238838578        9.9819050000  MEMB      44              0.0000000000
      5113        44  CHL1      C12           -15.9009748864      -23.1166164275       10.3139650000  MEMB      44              0.0000000000
      5114        44  CHL1      H12A          -15.2514846023      -23.7524873600        9.6751050000  MEMB      44              0.0000000000
      5115        44  CHL1      H12B          -15.6943467989      -22.0471834622       10.0949850000  MEMB      44              0.0000000000
      5116        44  CHL1      C11           -15.4631257014      -23.4340162917       11.8137350000  MEMB      44              0.0000000000
      5117        44  CHL1      H11A          -15.2401730221      -24.5181588836       11.7176350000  MEMB      44              0.0000000000
      5118        44  CHL1      H11B          -14.5352926896      -22.8556285357       12.0109950000  MEMB      44              0.0000000000
      5119        44  CHL1      C9            -16.4744148870      -23.0713969515       12.9852950000  MEMB      44              0.0000000000
      5120        44  CHL1      H9            -16.4650400156      -21.9682997399       13.1172550000  MEMB      44              0.0000000000
      5121        44  CHL1      C10           -16.1661408895      -23.6881663180       14.3609350000  MEMB      44              0.0000000000
      5122        44  CHL1      C19           -16.0067490897      -25.1954154594       14.2677150000  MEMB      44              0.0000000000
      5123        44  CHL1      H19A          -15.1154161025      -25.4796433912       13.6684850000  MEMB      44              0.0000000000
      5124        44  CHL1      H19B          -15.9264511033      -25.6062307249       15.2968350000  MEMB      44              0.0000000000
      5125        44  CHL1      H19C          -16.8868203997      -25.7424229934       13.8669950000  MEMB      44              0.0000000000
      5126        44  CHL1      C1            -14.9294459667      -23.0392544378       14.9989650000  MEMB      44              0.0000000000
      5127        44  CHL1      H1A           -14.0700311616      -23.2495837685       14.3270450000  MEMB      44              0.0000000000
      5128        44  CHL1      H1B           -15.1092125499      -21.9430121434       15.0151750000  MEMB      44              0.0000000000
      5129        44  CHL1      C2            -14.6127398059      -23.3577149569       16.4623650000  MEMB      44              0.0000000000
      5130        44  CHL1      H2A           -13.7299783380      -22.7391872442       16.7315950000  MEMB      44              0.0000000000
      5131        44  CHL1      H2B           -14.2535238279      -24.4089149633       16.4462750000  MEMB      44              0.0000000000
      5132        44  CHL1      C20           -17.5508864335      -23.5896176284        7.3286050000  MEMB      44              0.0000000000
      5133        44  CHL1      H20           -17.5060966596      -24.6970459611        7.4055550000  MEMB      44              0.0000000000
      5134        44  CHL1      C21           -16.1484048852      -23.0800939657        6.9170950000  MEMB      44              0.0000000000
      5135        44  CHL1      H21A          -16.1778957751      -22.0133978064        6.6078850000  MEMB      44              0.0000000000
      5136        44  CHL1      H21B          -15.7970459731      -23.6499793249        6.0304750000  MEMB      44              0.0000000000
      5137        44  CHL1      H21C          -15.3325293824      -23.1661599183        7.6662750000  MEMB      44              0.0000000000
      5138        44  CHL1      C22           -18.6080321791      -23.2326182436        6.2557650000  MEMB      44              0.0000000000
      5139        44  CHL1      H22A          -19.6222301723      -23.6263880637        6.4808250000  MEMB      44              0.0000000000
      5140        44  CHL1      H22B          -18.6001362637      -22.1216633485        6.2627750000  MEMB      44              0.0000000000
      5141        44  CHL1      C23           -18.2689074516      -23.8532133980        4.8703550000  MEMB      44              0.0000000000
      5142        44  CHL1      H23A          -17.3826855845      -23.2899267655        4.5075150000  MEMB      44              0.0000000000
      5143        44  CHL1      H23B          -18.1022638489      -24.9354772990        5.0580850000  MEMB      44              0.0000000000
      5144        44  CHL1      C24           -19.3454192110      -23.5290379086        3.8442150000  MEMB      44              0.0000000000
      5145        44  CHL1      H24A          -20.3732445803      -23.7529259160        4.2016750000  MEMB      44              0.0000000000
      5146        44  CHL1      H24B          -19.3737460713      -22.4236593756        3.7362550000  MEMB      44              0.0000000000
      5147        44  CHL1      C25           -19.1081368288      -24.2715466959        2.4684750000  MEMB      44              0.0000000000
      5148        44  CHL1      H25           -18.0475863932      -24.1195213530        2.1744750000  MEMB      44              0.0000000000
      5149        44  CHL1      C26           -19.4740905492      -25.7707300068        2.5776050000  MEMB      44              0.0000000000
      5150        44  CHL1      H26A          -18.9997829035      -26.2468159710        3.4623050000  MEMB      44              0.0000000000
      5151        44  CHL1      H26B          -20.5795017439      -25.7349769004        2.6829450000  MEMB      44              0.0000000000
      5152        44  CHL1      H26C          -19.1013037294      -26.2892895735        1.6685150000  MEMB      44              0.0000000000
      5153        44  CHL1      C27           -19.9008085126      -23.5917304930        1.3653650000  MEMB      44              0.0000000000
      5154        44  CHL1      H27A          -20.9353316888      -23.4379632599        1.7401250000  MEMB      44              0.0000000000
      5155        44  CHL1      H27B          -19.3678257875      -22.6477016991        1.1223650000  MEMB      44              0.0000000000
      5156        44  CHL1      H27C          -19.8721100981      -24.2515946290        0.4720150000  MEMB      44              0.0000000000
      5157        45  SLPC      N              24.0949857890      -17.6271426794       16.4048433163  MEMB      45              0.0000000000
      5158        45  SLPC      C13            23.4972038215      -17.5262597527       17.7382386123  MEMB      45              0.0000000000
      5159        45  SLPC      H13A           22.5351182517      -18.0168193006       17.7262850184  MEMB      45              0.0000000000
      5160        45  SLPC      H13B           24.2061140542      -18.0388395334       18.3715695707  MEMB      45              0.0000000000
      5161        45  SLPC      H13C           23.3662119313      -16.4861644471       17.9979362496  MEMB      45              0.0000000000
      5162        45  SLPC      C14            25.3019999225      -16.6688217814       16.1308597894  MEMB      45              0.0000000000
      5163        45  SLPC      H14A           26.1170657909      -17.1339780480       16.6653663624  MEMB      45              0.0000000000
      5164        45  SLPC      H14B           25.3992451231      -16.6707532229       15.0552485265  MEMB      45              0.0000000000
      5165        45  SLPC      H14C           24.9466511553      -15.6974097749       16.4414818509  MEMB      45              0.0000000000
      5166        45  SLPC      C15            22.9903293489      -17.5245469479       15.3964457346  MEMB      45              0.0000000000
      5167        45  SLPC      H15A           22.4343061614      -18.4243961808       15.1784784435  MEMB      45              0.0000000000
      5168        45  SLPC      H15B           22.3765445644      -16.7586661293       15.8471060425  MEMB      45              0.0000000000
      5169        45  SLPC      H15C           23.3154405120      -17.0507418470       14.4819996873  MEMB      45              0.0000000000
      5170        45  SLPC      C12            24.6412678502      -19.0625437953       16.2070215155  MEMB      45              0.0000000000
      5171        45  SLPC      H12A           25.2604285166      -19.1013582848       15.3229777156  MEMB      45              0.0000000000
      5172        45  SLPC      H12B           23.8341510360      -19.7699489110       16.0864378943  MEMB      45              0.0000000000
      5173        45  SLPC      C11            25.4534490353      -19.7574925341       17.3213171649  MEMB      45              0.0000000000
      5174        45  SLPC      H11A           25.9604040692      -20.6224054266       16.8425236981  MEMB      45              0.0000000000
      5175        45  SLPC      H11B           24.8519956375      -20.1174154943       18.1833091530  MEMB      45              0.0000000000
      5176        45  SLPC      P              27.8694744560      -18.8448782741       17.5864068358  MEMB      45              0.0000000000
      5177        45  SLPC      O13            28.1453115001      -17.4184113253       17.2514973853  MEMB      45              0.0000000000
      5178        45  SLPC      O14            28.4888995845      -19.5300248296       18.7407353419  MEMB      45              0.0000000000
      5179        45  SLPC      O12            26.3374379236      -18.8263432083       17.9071001875  MEMB      45              0.0000000000
      5180        45  SLPC      O11            27.9630128869      -19.7904849013       16.3155341540  MEMB      45              0.0000000000
      5181        45  SLPC      C1             29.3063343125      -20.3450744421       15.9408901478  MEMB      45              0.0000000000
      5182        45  SLPC      HA             30.0998133639      -20.2535765676       16.7131207805  MEMB      45              0.0000000000
      5183        45  SLPC      HB             29.1518420233      -21.4449427182       15.9136354544  MEMB      45              0.0000000000
      5184        45  SLPC      C2             29.7628130539      -19.7481188529       14.6143202333  MEMB      45              0.0000000000
      5185        45  SLPC      HS             30.8160755166      -20.0948540954       14.5455166069  MEMB      45              0.0000000000
      5186        45  SLPC      O21            29.7187787829      -18.3323571912       14.7775181107  MEMB      45              0.0000000000
      5187        45  SLPC      C21            30.5961553267      -17.5820108594       14.0708973085  MEMB      45              0.0000000000
      5188        45  SLPC      O22            31.4644822853      -17.9365014431       13.2827177083  MEMB      45              0.0000000000
      5189        45  SLPC      C22            30.4837446193      -16.1162979914       14.5136550107  MEMB      45              0.0000000000
      5190        45  SLPC      H2R            30.7659515529      -15.9848449751       15.5801448425  MEMB      45              0.0000000000
      5191        45  SLPC      H2S            31.1624958298      -15.4395224149       13.9518784447  MEMB      45              0.0000000000
      5192        45  SLPC      C3             28.9416393930      -20.1899222167       13.3505326190  MEMB      45              0.0000000000
      5193        45  SLPC      HX             29.1711324257      -21.2147694850       12.9881214679  MEMB      45              0.0000000000
      5194        45  SLPC      HY             29.2772630952      -19.7151859506       12.4037999920  MEMB      45              0.0000000000
      5195        45  SLPC      O31            27.4834555526      -19.9745617367       13.5248315593  MEMB      45              0.0000000000
      5196        45  SLPC      C31            27.0903453952      -18.9867137310       12.7252278752  MEMB      45              0.0000000000
      5197        45  SLPC      O32            27.7750468117      -18.1572750596       12.1015107697  MEMB      45              0.0000000000
      5198        45  SLPC      C32            25.5768891418      -19.0510721299       12.7793854382  MEMB      45              0.0000000000
      5199        45  SLPC      H2X            25.1638447948      -18.6270809231       11.8392010208  MEMB      45              0.0000000000
      5200        45  SLPC      H2Y            25.2826877910      -18.4933568718       13.6941096103  MEMB      45              0.0000000000
      5201        45  SLPC      C23            29.1028572433      -15.4249578339       14.1614979821  MEMB      45              0.0000000000
      5202        45  SLPC      H3R            28.8791207491      -14.6751286612       14.9501801721  MEMB      45              0.0000000000
      5203        45  SLPC      H3S            28.2129467585      -16.0829326384       14.2587057061  MEMB      45              0.0000000000
      5204        45  SLPC      C24            28.9859930025      -14.5735261675       12.8419122336  MEMB      45              0.0000000000
      5205        45  SLPC      H4R            29.2831866401      -15.2124069438       11.9829431863  MEMB      45              0.0000000000
      5206        45  SLPC      H4S            29.7817123589      -13.8032287566       12.9301926397  MEMB      45              0.0000000000
      5207        45  SLPC      C25            27.6485429795      -13.9206201652       12.5189434408  MEMB      45              0.0000000000
      5208        45  SLPC      H5R            27.7621758887      -13.2997641031       11.6046419478  MEMB      45              0.0000000000
      5209        45  SLPC      H5S            27.3368654453      -13.2347792178       13.3355217687  MEMB      45              0.0000000000
      5210        45  SLPC      C26            26.4193270242      -14.8404447946       12.3794421163  MEMB      45              0.0000000000
      5211        45  SLPC      H6R            25.4419877621      -14.3334731866       12.5281323361  MEMB      45              0.0000000000
      5212        45  SLPC      H6S            26.4394964876      -15.7554884233       13.0092109453  MEMB      45              0.0000000000
      5213        45  SLPC      C27            26.4253493783      -15.4479839805       10.9544692243  MEMB      45              0.0000000000
      5214        45  SLPC      H7R            25.5240339842      -16.0974901748       10.9641241738  MEMB      45              0.0000000000
      5215        45  SLPC      H7S            27.3298834618      -16.0702924523       10.7845544408  MEMB      45              0.0000000000
      5216        45  SLPC      C28            26.2418110875      -14.4942625844        9.7920297382  MEMB      45              0.0000000000
      5217        45  SLPC      H8R            26.0155453670      -13.4914202593       10.2132575691  MEMB      45              0.0000000000
      5218        45  SLPC      H8S            25.4120175857      -14.7056087375        9.0841482864  MEMB      45              0.0000000000
      5219        45  SLPC      C29            27.4514010330      -14.4141413462        8.9737555492  MEMB      45              0.0000000000
      5220        45  SLPC      H9R            27.9309127726      -13.4260081693        8.9132502143  MEMB      45              0.0000000000
      5221        45  SLPC      C210           27.9573265269      -15.3662614135        8.1512058339  MEMB      45              0.0000000000
      5222        45  SLPC      H10R           28.9336251283      -15.2242173200        7.6647241253  MEMB      45              0.0000000000
      5223        45  SLPC      C211           27.3763916602      -16.7344217845        7.8489988002  MEMB      45              0.0000000000
      5224        45  SLPC      H11R           27.5383296078      -17.0649904133        6.8007525258  MEMB      45              0.0000000000
      5225        45  SLPC      H11S           26.2862558902      -16.8032927047        8.0519321855  MEMB      45              0.0000000000
      5226        45  SLPC      C212           28.0474398456      -17.8358613851        8.7145301165  MEMB      45              0.0000000000
      5227        45  SLPC      H12R           28.9208527004      -17.4696475537        9.2740269901  MEMB      45              0.0000000000
      5228        45  SLPC      C213           27.7110143403      -19.1541354733        8.7827936659  MEMB      45              0.0000000000
      5229        45  SLPC      H13R           28.3138663126      -19.8183311663        9.4195143618  MEMB      45              0.0000000000
      5230        45  SLPC      C214           26.6188229531      -19.8289618863        7.9733886537  MEMB      45              0.0000000000
      5231        45  SLPC      H14R           25.8887372595      -19.1254604120        7.5190959209  MEMB      45              0.0000000000
      5232        45  SLPC      H14S           26.0210218262      -20.5785159029        8.5347473072  MEMB      45              0.0000000000
      5233        45  SLPC      C215           27.1398802242      -20.7616256599        6.7707829694  MEMB      45              0.0000000000
      5234        45  SLPC      H15R           26.2441326514      -21.1878466815        6.2704901682  MEMB      45              0.0000000000
      5235        45  SLPC      H15S           27.5963608521      -21.6500891552        7.2571772577  MEMB      45              0.0000000000
      5236        45  SLPC      C216           27.9028868009      -20.1372029184        5.7315574126  MEMB      45              0.0000000000
      5237        45  SLPC      H16R           28.8217466414      -19.6848809098        6.1621646583  MEMB      45              0.0000000000
      5238        45  SLPC      H16S           27.1766165052      -19.3906615036        5.3448683077  MEMB      45              0.0000000000
      5239        45  SLPC      C217           28.2589177595      -21.1275432564        4.6035280555  MEMB      45              0.0000000000
      5240        45  SLPC      H17R           27.2731059283      -21.5518619724        4.3163871600  MEMB      45              0.0000000000
      5241        45  SLPC      H17S           28.7781003109      -21.9232196827        5.1794355393  MEMB      45              0.0000000000
      5242        45  SLPC      C218           28.9748620474      -20.7317711019        3.3333495740  MEMB      45              0.0000000000
      5243        45  SLPC      H18R           29.1992812146      -21.5991147813        2.6763323361  MEMB      45              0.0000000000
      5244        45  SLPC      H18S           30.0179853419      -20.4704366968        3.6124894597  MEMB      45              0.0000000000
      5245        45  SLPC      H18T           28.4262654089      -19.9404597960        2.7791032636  MEMB      45              0.0000000000
      5246        45  SLPC      C33            25.0185035139      -20.4760166881       12.8128454507  MEMB      45              0.0000000000
      5247        45  SLPC      H3X            25.3484063168      -20.9922574611       13.7396574256  MEMB      45              0.0000000000
      5248        45  SLPC      H3Y            25.3071938236      -21.1203104671       11.9550200995  MEMB      45              0.0000000000
      5249        45  SLPC      C34            23.4551126472      -20.4894015425       12.9046146649  MEMB      45              0.0000000000
      5250        45  SLPC      H4X            22.9443463065      -20.0815577440       13.8030034631  MEMB      45              0.0000000000
      5251        45  SLPC      H4Y            23.0853581271      -21.5370059365       12.8933068226  MEMB      45              0.0000000000
      5252        45  SLPC      C35            22.6611068168      -19.9584853671       11.6064597191  MEMB      45              0.0000000000
      5253        45  SLPC      H5X            22.7829216997      -18.8630303430       11.4669590945  MEMB      45              0.0000000000
      5254        45  SLPC      H5Y            21.6060568955      -20.1981364681       11.8589632276  MEMB      45              0.0000000000
      5255        45  SLPC      C36            22.9611888927      -20.6209376590       10.2959328427  MEMB      45              0.0000000000
      5256        45  SLPC      H6X            22.6711816847      -21.6898718549       10.2087767541  MEMB      45              0.0000000000
      5257        45  SLPC      H6Y            24.0435125563      -20.5557323679       10.0537652317  MEMB      45              0.0000000000
      5258        45  SLPC      C37            22.2339694248      -19.9093059282        9.1579875468  MEMB      45              0.0000000000
      5259        45  SLPC      H7X            22.4722875206      -18.8248471673        9.1195882002  MEMB      45              0.0000000000
      5260        45  SLPC      H7Y            21.1427817508      -20.0260816441        9.3311758478  MEMB      45              0.0000000000
      5261        45  SLPC      C38            22.6440309821      -20.4065911629        7.7397168172  MEMB      45              0.0000000000
      5262        45  SLPC      H8X            22.7760783596      -21.5090092477        7.7002347217  MEMB      45              0.0000000000
      5263        45  SLPC      H8Y            23.6561913110      -20.0246934307        7.4867211968  MEMB      45              0.0000000000
      5264        45  SLPC      C39            21.7252777327      -19.8162670985        6.6229351365  MEMB      45              0.0000000000
      5265        45  SLPC      H9X            21.6584437517      -18.7212717082        6.7985474360  MEMB      45              0.0000000000
      5266        45  SLPC      H9Y            20.7436110822      -20.3353727128        6.5885679641  MEMB      45              0.0000000000
      5267        45  SLPC      C310           22.3049485982      -20.2494834145        5.2515655898  MEMB      45              0.0000000000
      5268        45  SLPC      H10X           21.4333413818      -20.4796238407        4.6022142573  MEMB      45              0.0000000000
      5269        45  SLPC      H10Y           22.9308086594      -21.1655328655        5.3105030093  MEMB      45              0.0000000000
      5270        45  SLPC      C311           23.1940243334      -19.1673249398        4.6240237341  MEMB      45              0.0000000000
      5271        45  SLPC      H11X           23.9458519959      -18.7822809181        5.3457010163  MEMB      45              0.0000000000
      5272        45  SLPC      H11Y           22.5589606569      -18.3729206988        4.1768805812  MEMB      45              0.0000000000
      5273        45  SLPC      C312           24.0950958087      -19.6852040278        3.4342261137  MEMB      45              0.0000000000
      5274        45  SLPC      H12X           23.5454654301      -20.5716759740        3.0516101292  MEMB      45              0.0000000000
      5275        45  SLPC      H12Y           25.0773059602      -20.0275200530        3.8246159962  MEMB      45              0.0000000000
      5276        45  SLPC      C313           24.5723557260      -18.6355920114        2.4126806800  MEMB      45              0.0000000000
      5277        45  SLPC      H13X           23.7428371084      -17.9532924419        2.1286255308  MEMB      45              0.0000000000
      5278        45  SLPC      H13Y           24.8901409967      -19.1431634631        1.4768901549  MEMB      45              0.0000000000
      5279        45  SLPC      C314           25.8282829774      -17.8857986393        2.9192794056  MEMB      45              0.0000000000
      5280        45  SLPC      H14X           26.6743919919      -18.5897764548        3.0703939991  MEMB      45              0.0000000000
      5281        45  SLPC      H14Y           25.6459656235      -17.4627436245        3.9302720508  MEMB      45              0.0000000000
      5282        45  SLPC      C315           26.3292508036      -16.8159427511        1.9829664528  MEMB      45              0.0000000000
      5283        45  SLPC      H15X           25.5468025762      -16.0466324499        1.8090191237  MEMB      45              0.0000000000
      5284        45  SLPC      H15Y           26.6611209678      -17.1698032920        0.9834842776  MEMB      45              0.0000000000
      5285        45  SLPC      C316           27.5369351887      -16.0677864096        2.6247495527  MEMB      45              0.0000000000
      5286        45  SLPC      H16X           27.4592600667      -16.0881405511        3.7328439645  MEMB      45              0.0000000000
      5287        45  SLPC      H16Y           27.4675033916      -15.0404985284        2.2074005649  MEMB      45              0.0000000000
      5288        45  SLPC      C317           28.8964128070      -16.6985883329        2.2148793080  MEMB      45              0.0000000000
      5289        45  SLPC      H17X           28.9532281755      -16.6133752685        1.1086105926  MEMB      45              0.0000000000
      5290        45  SLPC      H17Y           28.9430940769      -17.7821708251        2.4556924247  MEMB      45              0.0000000000
      5291        45  SLPC      C318           30.0998644337      -16.0204233926        2.9419943617  MEMB      45              0.0000000000
      5292        45  SLPC      H18X           29.9971207570      -14.9200680588        3.0559366150  MEMB      45              0.0000000000
      5293        45  SLPC      H18Y           31.0169392724      -16.2789257467        2.3706178017  MEMB      45              0.0000000000
      5294        45  SLPC      H18Z           30.0891215002      -16.3570932684        4.0007006704  MEMB      45              0.0000000000
      5295        46  CHL1      C3             24.7122762136       19.9425266211       17.3357150000  MEMB      46              0.0000000000
      5296        46  CHL1      H3             24.4882083662       20.8112505156       16.6804050000  MEMB      46              0.0000000000
      5297        46  CHL1      O3             24.8453393864       20.3112879789       18.6642850000  MEMB      46              0.0000000000
      5298        46  CHL1      H3'            23.9884283272       20.6845318542       18.8833450000  MEMB      46              0.0000000000
      5299        46  CHL1      C4             23.6792322372       18.8150136294       17.2117750000  MEMB      46              0.0000000000
      5300        46  CHL1      H4A            24.0769128929       17.9725095145       17.8170450000  MEMB      46              0.0000000000
      5301        46  CHL1      H4B            22.7241482283       19.0166327322       17.7423350000  MEMB      46              0.0000000000
      5302        46  CHL1      C5             23.4621340031       18.5159774569       15.7374850000  MEMB      46              0.0000000000
      5303        46  CHL1      C6             22.2477190730       18.5687024115       15.1854750000  MEMB      46              0.0000000000
      5304        46  CHL1      H6             21.3775536817       18.7981179545       15.8180650000  MEMB      46              0.0000000000
      5305        46  CHL1      C7             22.0339666860       18.1099213981       13.7774050000  MEMB      46              0.0000000000
      5306        46  CHL1      H7A            21.2705328978       17.3645687792       13.4676450000  MEMB      46              0.0000000000
      5307        46  CHL1      H7B            21.6955866449       19.0697565985       13.3318350000  MEMB      46              0.0000000000
      5308        46  CHL1      C8             23.2733934958       17.5950592068       13.0023150000  MEMB      46              0.0000000000
      5309        46  CHL1      H8             23.3868666535       16.5007185287       13.1568250000  MEMB      46              0.0000000000
      5310        46  CHL1      C14            23.0743245273       17.8151671155       11.4720750000  MEMB      46              0.0000000000
      5311        46  CHL1      H14            23.2419618021       18.9040142011       11.3283750000  MEMB      46              0.0000000000
      5312        46  CHL1      C15            21.6977284564       17.4771123351       10.8453750000  MEMB      46              0.0000000000
      5313        46  CHL1      H15A           21.3181872604       16.5063087448       11.2298450000  MEMB      46              0.0000000000
      5314        46  CHL1      H15B           20.9708672910       18.2686923869       11.1271550000  MEMB      46              0.0000000000
      5315        46  CHL1      C16            22.1012238325       17.6148400021        9.3523750000  MEMB      46              0.0000000000
      5316        46  CHL1      H16A           21.7569820173       16.6276657393        8.9764650000  MEMB      46              0.0000000000
      5317        46  CHL1      H16B           21.4259447966       18.2879633088        8.7820950000  MEMB      46              0.0000000000
      5318        46  CHL1      C17            23.6106442137       17.8532411794        9.2483450000  MEMB      46              0.0000000000
      5319        46  CHL1      H17            23.8194897697       18.9436360578        9.2064950000  MEMB      46              0.0000000000
      5320        46  CHL1      C13            24.1478786017       17.3246426264       10.5478250000  MEMB      46              0.0000000000
      5321        46  CHL1      C18            24.2906956791       15.8248545840       10.5531350000  MEMB      46              0.0000000000
      5322        46  CHL1      H18A           24.7135287708       15.4270152582       11.5003750000  MEMB      46              0.0000000000
      5323        46  CHL1      H18B           23.2657881349       15.3964117400       10.5352650000  MEMB      46              0.0000000000
      5324        46  CHL1      H18C           24.8776912168       15.4505192219        9.6873250000  MEMB      46              0.0000000000
      5325        46  CHL1      C12            25.5075642888       18.0245965980       11.0000850000  MEMB      46              0.0000000000
      5326        46  CHL1      H12A           26.3790585867       17.5895352070       10.4657250000  MEMB      46              0.0000000000
      5327        46  CHL1      H12B           25.3643557193       19.0861084705       10.7051350000  MEMB      46              0.0000000000
      5328        46  CHL1      C11            25.8088339046       18.0308477331       12.5031050000  MEMB      46              0.0000000000
      5329        46  CHL1      H11A           26.3708379776       17.1121717370       12.7760550000  MEMB      46              0.0000000000
      5330        46  CHL1      H11B           26.5677743357       18.8371017399       12.5941050000  MEMB      46              0.0000000000
      5331        46  CHL1      C9             24.5599247811       18.2842498890       13.3738150000  MEMB      46              0.0000000000
      5332        46  CHL1      H9             24.4855440570       19.3870445448       13.2614350000  MEMB      46              0.0000000000
      5333        46  CHL1      C10            24.7516496018       18.2062948660       14.9154250000  MEMB      46              0.0000000000
      5334        46  CHL1      C19            25.1942925971       16.7204190705       15.2291850000  MEMB      46              0.0000000000
      5335        46  CHL1      H19A           25.4441849639       16.5075983206       16.2905950000  MEMB      46              0.0000000000
      5336        46  CHL1      H19B           24.4271554090       16.0700479916       14.7571250000  MEMB      46              0.0000000000
      5337        46  CHL1      H19C           26.1218528323       16.4986548349       14.6593050000  MEMB      46              0.0000000000
      5338        46  CHL1      C1             25.9277251400       19.1059076999       15.2831850000  MEMB      46              0.0000000000
      5339        46  CHL1      H1A            26.8470624914       18.5937395412       14.9270650000  MEMB      46              0.0000000000
      5340        46  CHL1      H1B            25.7787959216       20.0980191388       14.8058550000  MEMB      46              0.0000000000
      5341        46  CHL1      C2             26.0912224166       19.4789926931       16.8041850000  MEMB      46              0.0000000000
      5342        46  CHL1      H2A            26.8565037528       20.2634212326       16.9867850000  MEMB      46              0.0000000000
      5343        46  CHL1      H2B            26.3473291666       18.5734294335       17.3946750000  MEMB      46              0.0000000000
      5344        46  CHL1      C20            24.1875378901       17.3882148912        7.8580750000  MEMB      46              0.0000000000
      5345        46  CHL1      H20            23.9068896235       16.3145066075        7.8059550000  MEMB      46              0.0000000000
      5346        46  CHL1      C21            25.7150643916       17.3204855550        7.8216050000  MEMB      46              0.0000000000
      5347        46  CHL1      H21A           26.0055923631       16.7784953999        6.8963150000  MEMB      46              0.0000000000
      5348        46  CHL1      H21B           26.1220085793       16.7801073278        8.7029250000  MEMB      46              0.0000000000
      5349        46  CHL1      H21C           26.2753143488       18.2794989742        7.7944250000  MEMB      46              0.0000000000
      5350        46  CHL1      C22            23.6032689530       18.2183568017        6.7372750000  MEMB      46              0.0000000000
      5351        46  CHL1      H22A           22.4985935945       18.2341165871        6.6199150000  MEMB      46              0.0000000000
      5352        46  CHL1      H22B           23.9197714631       19.2606718357        6.9557350000  MEMB      46              0.0000000000
      5353        46  CHL1      C23            24.0520325661       17.9496172399        5.3144850000  MEMB      46              0.0000000000
      5354        46  CHL1      H23A           25.1534199494       17.8052886316        5.2935050000  MEMB      46              0.0000000000
      5355        46  CHL1      H23B           23.7005524893       17.0181362942        4.8214150000  MEMB      46              0.0000000000
      5356        46  CHL1      C24            23.9335584317       19.1575295519        4.3691650000  MEMB      46              0.0000000000
      5357        46  CHL1      H24A           22.9458887001       19.6646679289        4.4097550000  MEMB      46              0.0000000000
      5358        46  CHL1      H24B           24.6947381057       19.8985270510        4.6944950000  MEMB      46              0.0000000000
      5359        46  CHL1      C25            24.2145054129       18.9253120335        2.9443750000  MEMB      46              0.0000000000
      5360        46  CHL1      H25            24.1080208673       19.9014166693        2.4245650000  MEMB      46              0.0000000000
      5361        46  CHL1      C26            25.5618102751       18.3511818829        2.6159850000  MEMB      46              0.0000000000
      5362        46  CHL1      H26A           25.7189958922       18.2488529985        1.5209250000  MEMB      46              0.0000000000
      5363        46  CHL1      H26B           26.3213269150       19.0122069022        3.0855650000  MEMB      46              0.0000000000
      5364        46  CHL1      H26C           25.7229521188       17.3647066027        3.1009850000  MEMB      46              0.0000000000
      5365        46  CHL1      C27            23.1590931409       18.0930588625        2.2865350000  MEMB      46              0.0000000000
      5366        46  CHL1      H27A           22.1341064044       18.4961898587        2.4321350000  MEMB      46              0.0000000000
      5367        46  CHL1      H27B           23.2305556492       17.9036356780        1.1941350000  MEMB      46              0.0000000000
      5368        46  CHL1      H27C           23.1994900827       17.1200103572        2.8212050000  MEMB      46              0.0000000000
      5369        47  SLPC      N              19.8128086473      -26.7885812429       16.6889240573  MEMB      47              0.0000000000
      5370        47  SLPC      C13            19.3807922062      -27.7693382528       15.5772858133  MEMB      47              0.0000000000
      5371        47  SLPC      H13A           20.1146595330      -27.6117042353       14.8007613221  MEMB      47              0.0000000000
      5372        47  SLPC      H13B           19.3394726586      -28.7435071084       16.0417079191  MEMB      47              0.0000000000
      5373        47  SLPC      H13C           18.4519905773      -27.3761116038       15.1911506915  MEMB      47              0.0000000000
      5374        47  SLPC      C14            21.1743187828      -27.1179006071       17.1665844469  MEMB      47              0.0000000000
      5375        47  SLPC      H14A           21.2815637919      -28.0809606655       17.6434635379  MEMB      47              0.0000000000
      5376        47  SLPC      H14B           21.7329298494      -27.2152388572       16.2474115268  MEMB      47              0.0000000000
      5377        47  SLPC      H14C           21.5667310639      -26.3186037610       17.7777613054  MEMB      47              0.0000000000
      5378        47  SLPC      C15            18.8708317432      -26.7530765885       17.8764915528  MEMB      47              0.0000000000
      5379        47  SLPC      H15A           19.2057415038      -27.5637618364       18.5065907627  MEMB      47              0.0000000000
      5380        47  SLPC      H15B           18.9193726937      -25.8262238587       18.4287485459  MEMB      47              0.0000000000
      5381        47  SLPC      H15C           17.8541281876      -26.8893003203       17.5386210249  MEMB      47              0.0000000000
      5382        47  SLPC      C12            19.9205456131      -25.3713713222       16.2643522082  MEMB      47              0.0000000000
      5383        47  SLPC      H12A           18.9905993705      -25.2433806134       15.7302940845  MEMB      47              0.0000000000
      5384        47  SLPC      H12B           20.6341695786      -25.3292935146       15.4548027886  MEMB      47              0.0000000000
      5385        47  SLPC      C11            20.1236936260      -24.1609487428       17.2009264913  MEMB      47              0.0000000000
      5386        47  SLPC      H11A           19.2535357081      -24.0958124283       17.8886062593  MEMB      47              0.0000000000
      5387        47  SLPC      H11B           20.0201409490      -23.2041163843       16.6458862159  MEMB      47              0.0000000000
      5388        47  SLPC      P              22.7353045581      -23.7000952583       17.2499768799  MEMB      47              0.0000000000
      5389        47  SLPC      O13            23.8011422646      -23.4441428090       18.2105116880  MEMB      47              0.0000000000
      5390        47  SLPC      O14            23.1217374890      -24.5357779218       16.0989663559  MEMB      47              0.0000000000
      5391        47  SLPC      O12            21.3883888015      -24.1801988579       17.9713483219  MEMB      47              0.0000000000
      5392        47  SLPC      O11            22.2692136944      -22.2473019177       16.6946321753  MEMB      47              0.0000000000
      5393        47  SLPC      C1             22.0691380401      -21.2167598916       17.6396745591  MEMB      47              0.0000000000
      5394        47  SLPC      HA             21.3073344145      -21.4652656175       18.4092336450  MEMB      47              0.0000000000
      5395        47  SLPC      HB             23.0591748466      -21.0949278859       18.1288628014  MEMB      47              0.0000000000
      5396        47  SLPC      C2             21.7438843508      -19.8960402043       16.9421808666  MEMB      47              0.0000000000
      5397        47  SLPC      HS             21.4041752416      -19.2462153500       17.7768341264  MEMB      47              0.0000000000
      5398        47  SLPC      O21            20.7531011106      -20.0341482493       15.9146126209  MEMB      47              0.0000000000
      5399        47  SLPC      C21            19.5191270902      -20.2277599567       16.4122767845  MEMB      47              0.0000000000
      5400        47  SLPC      O22            19.1864543526      -20.3995979956       17.5463205676  MEMB      47              0.0000000000
      5401        47  SLPC      C22            18.5699182815      -20.2816448443       15.2527160223  MEMB      47              0.0000000000
      5402        47  SLPC      H2R            18.7120927283      -21.3039081632       14.8415156511  MEMB      47              0.0000000000
      5403        47  SLPC      H2S            17.5519913902      -19.9354327643       15.5325061435  MEMB      47              0.0000000000
      5404        47  SLPC      C3             23.0683366817      -19.3244864281       16.2096605484  MEMB      47              0.0000000000
      5405        47  SLPC      HX             23.7954057953      -19.1593313200       17.0333201403  MEMB      47              0.0000000000
      5406        47  SLPC      HY             22.8459043899      -18.2966847577       15.8512351530  MEMB      47              0.0000000000
      5407        47  SLPC      O31            23.7213263349      -20.1760628402       15.2244154856  MEMB      47              0.0000000000
      5408        47  SLPC      C31            23.3274510673      -19.9390444412       13.9627178125  MEMB      47              0.0000000000
      5409        47  SLPC      O32            22.4568789439      -19.0938756656       13.6745892250  MEMB      47              0.0000000000
      5410        47  SLPC      C32            24.1791822667      -20.8201398768       12.9749283976  MEMB      47              0.0000000000
      5411        47  SLPC      H2X            24.7906425533      -21.5692460434       13.5219904910  MEMB      47              0.0000000000
      5412        47  SLPC      H2Y            24.8334616550      -20.2384801314       12.2908878445  MEMB      47              0.0000000000
      5413        47  SLPC      C23            18.9611563436      -19.3714047056       14.0796938025  MEMB      47              0.0000000000
      5414        47  SLPC      H3R            19.9774464387      -19.5306779346       13.6600423657  MEMB      47              0.0000000000
      5415        47  SLPC      H3S            19.0461614992      -18.3168074335       14.4186916148  MEMB      47              0.0000000000
      5416        47  SLPC      C24            17.9179373707      -19.3681263440       12.9387799613  MEMB      47              0.0000000000
      5417        47  SLPC      H4R            17.1078016057      -18.6244031160       13.0965008541  MEMB      47              0.0000000000
      5418        47  SLPC      H4S            17.5259125119      -20.4038409551       12.8497129346  MEMB      47              0.0000000000
      5419        47  SLPC      C25            18.5772088421      -18.9756798035       11.5432318762  MEMB      47              0.0000000000
      5420        47  SLPC      H5R            18.7649139830      -17.8817251207       11.5917226606  MEMB      47              0.0000000000
      5421        47  SLPC      H5S            17.8273939208      -19.0329287226       10.7254168340  MEMB      47              0.0000000000
      5422        47  SLPC      C26            19.7727458252      -19.7974483229       11.0727686090  MEMB      47              0.0000000000
      5423        47  SLPC      H6R            19.5466126765      -20.8177530714       11.4498136714  MEMB      47              0.0000000000
      5424        47  SLPC      H6S            20.6384146079      -19.3472018762       11.6040091807  MEMB      47              0.0000000000
      5425        47  SLPC      C27            20.0899403678      -19.8070730298        9.5476108443  MEMB      47              0.0000000000
      5426        47  SLPC      H7R            19.2564467792      -20.2562961970        8.9663984249  MEMB      47              0.0000000000
      5427        47  SLPC      H7S            20.9682622107      -20.4392398583        9.2961416426  MEMB      47              0.0000000000
      5428        47  SLPC      C28            20.2668226316      -18.4473119000        8.9796755803  MEMB      47              0.0000000000
      5429        47  SLPC      H8R            19.3913470857      -17.7821912258        9.1392943658  MEMB      47              0.0000000000
      5430        47  SLPC      H8S            20.3360459118      -18.6210383503        7.8845277389  MEMB      47              0.0000000000
      5431        47  SLPC      C29            21.6357635826      -17.9723856898        9.4374164034  MEMB      47              0.0000000000
      5432        47  SLPC      H9R            21.4581550475      -17.4861260526       10.4079867788  MEMB      47              0.0000000000
      5433        47  SLPC      C210           22.8224359957      -18.1996164221        8.8435919350  MEMB      47              0.0000000000
      5434        47  SLPC      H10R           23.7027357811      -17.7395783617        9.3162834911  MEMB      47              0.0000000000
      5435        47  SLPC      C211           23.1336734453      -18.9271210380        7.5829779674  MEMB      47              0.0000000000
      5436        47  SLPC      H11R           23.7294946393      -18.3038207535        6.8823959459  MEMB      47              0.0000000000
      5437        47  SLPC      H11S           22.1601282889      -19.1368642778        7.0904960003  MEMB      47              0.0000000000
      5438        47  SLPC      C212           23.8360713805      -20.1795569703        7.7705079026  MEMB      47              0.0000000000
      5439        47  SLPC      H12R           23.8558242122      -20.5086247794        8.8199478522  MEMB      47              0.0000000000
      5440        47  SLPC      C213           24.2491701068      -20.9851106246        6.7504117937  MEMB      47              0.0000000000
      5441        47  SLPC      H13R           24.7445781605      -21.9104984408        7.0793923880  MEMB      47              0.0000000000
      5442        47  SLPC      C214           24.0542145074      -20.7872635971        5.2881017930  MEMB      47              0.0000000000
      5443        47  SLPC      H14R           24.9008281013      -21.1710301126        4.6795875390  MEMB      47              0.0000000000
      5444        47  SLPC      H14S           23.8571507480      -19.7177199327        5.0610256064  MEMB      47              0.0000000000
      5445        47  SLPC      C215           22.8727131641      -21.6130117090        4.6086456043  MEMB      47              0.0000000000
      5446        47  SLPC      H15R           21.9431925807      -21.3153752488        5.1394229784  MEMB      47              0.0000000000
      5447        47  SLPC      H15S           22.9327873142      -22.7223166824        4.5961994106  MEMB      47              0.0000000000
      5448        47  SLPC      C216           22.7324179623      -21.0299716383        3.1825857989  MEMB      47              0.0000000000
      5449        47  SLPC      H16R           22.4861819768      -19.9759040118        3.4328464575  MEMB      47              0.0000000000
      5450        47  SLPC      H16S           21.8622836855      -21.4541315917        2.6373557877  MEMB      47              0.0000000000
      5451        47  SLPC      C217           24.0302023851      -20.9180535998        2.2941226761  MEMB      47              0.0000000000
      5452        47  SLPC      H17R           24.7374118881      -20.1817585513        2.7323526728  MEMB      47              0.0000000000
      5453        47  SLPC      H17S           23.7367658747      -20.5110022214        1.3028989911  MEMB      47              0.0000000000
      5454        47  SLPC      C218           24.6297086323      -22.2581217806        1.9863326882  MEMB      47              0.0000000000
      5455        47  SLPC      H18R           25.5382507664      -22.0563106968        1.3795837285  MEMB      47              0.0000000000
      5456        47  SLPC      H18S           23.9575395080      -22.9293196371        1.4101357058  MEMB      47              0.0000000000
      5457        47  SLPC      H18T           24.8673188210      -22.8347695999        2.9057569846  MEMB      47              0.0000000000
      5458        47  SLPC      C33            23.2408735550      -21.6525200313       12.0826312993  MEMB      47              0.0000000000
      5459        47  SLPC      H3X            22.6140292756      -20.9241825548       11.5250366677  MEMB      47              0.0000000000
      5460        47  SLPC      H3Y            22.6441672058      -22.3000091631       12.7601420781  MEMB      47              0.0000000000
      5461        47  SLPC      C34            23.9654149711      -22.5051782119       10.9935013297  MEMB      47              0.0000000000
      5462        47  SLPC      H4X            24.3906620248      -21.7357659094       10.3141702176  MEMB      47              0.0000000000
      5463        47  SLPC      H4Y            23.1207200181      -22.9364132015       10.4148410127  MEMB      47              0.0000000000
      5464        47  SLPC      C35            24.9575320703      -23.5568995861       11.5062550072  MEMB      47              0.0000000000
      5465        47  SLPC      H5X            25.7073869009      -23.2476983946       12.2654870330  MEMB      47              0.0000000000
      5466        47  SLPC      H5Y            25.5210925271      -23.8142660552       10.5840383576  MEMB      47              0.0000000000
      5467        47  SLPC      C36            24.2826266625      -24.7989128178       11.9957557574  MEMB      47              0.0000000000
      5468        47  SLPC      H6X            23.7126306030      -24.4804975826       12.8946646377  MEMB      47              0.0000000000
      5469        47  SLPC      H6Y            24.9847534659      -25.5938477277       12.3265385945  MEMB      47              0.0000000000
      5470        47  SLPC      C37            23.4900953322      -25.6757859312       10.9537451239  MEMB      47              0.0000000000
      5471        47  SLPC      H7X            24.2723538392      -26.2050270819       10.3686843684  MEMB      47              0.0000000000
      5472        47  SLPC      H7Y            23.0407754361      -24.9418676104       10.2510386157  MEMB      47              0.0000000000
      5473        47  SLPC      C38            22.4355774577      -26.5791213270       11.6384224789  MEMB      47              0.0000000000
      5474        47  SLPC      H8X            21.8881606523      -25.8717001564       12.2973695533  MEMB      47              0.0000000000
      5475        47  SLPC      H8Y            22.9768716901      -27.2974090000       12.2906373485  MEMB      47              0.0000000000
      5476        47  SLPC      C39            21.4408580997      -27.3777897233       10.7790111454  MEMB      47              0.0000000000
      5477        47  SLPC      H9X            20.7208262376      -27.8205199550       11.5000276361  MEMB      47              0.0000000000
      5478        47  SLPC      H9Y            22.0800748766      -28.0893840550       10.2138947849  MEMB      47              0.0000000000
      5479        47  SLPC      C310           20.7086444879      -26.4581035907        9.7763295280  MEMB      47              0.0000000000
      5480        47  SLPC      H10X           19.9559639401      -27.1095467574        9.2829587320  MEMB      47              0.0000000000
      5481        47  SLPC      H10Y           21.2949830841      -26.1296164448        8.8916688361  MEMB      47              0.0000000000
      5482        47  SLPC      C311           19.9842054749      -25.3138072502       10.5419652554  MEMB      47              0.0000000000
      5483        47  SLPC      H11X           20.7898840789      -24.6007847064       10.8190965585  MEMB      47              0.0000000000
      5484        47  SLPC      H11Y           19.4980340385      -25.7786017399       11.4262299654  MEMB      47              0.0000000000
      5485        47  SLPC      C312           18.9729734709      -24.6099600252        9.5600081577  MEMB      47              0.0000000000
      5486        47  SLPC      H12X           18.4558361168      -23.8359750409       10.1665039312  MEMB      47              0.0000000000
      5487        47  SLPC      H12Y           18.3311215777      -25.3032508458        8.9754612225  MEMB      47              0.0000000000
      5488        47  SLPC      C313           19.8329252458      -23.9208214185        8.4148552162  MEMB      47              0.0000000000
      5489        47  SLPC      H13X           20.4792029888      -24.6683317954        7.9070413983  MEMB      47              0.0000000000
      5490        47  SLPC      H13Y           20.5359833165      -23.1722079807        8.8386573017  MEMB      47              0.0000000000
      5491        47  SLPC      C314           18.9094496892      -23.2650453598        7.3483066718  MEMB      47              0.0000000000
      5492        47  SLPC      H14X           18.1901234758      -22.5859503382        7.8539950954  MEMB      47              0.0000000000
      5493        47  SLPC      H14Y           18.3598622796      -24.0558158312        6.7942698365  MEMB      47              0.0000000000
      5494        47  SLPC      C315           19.5371495435      -22.3117711242        6.3523507290  MEMB      47              0.0000000000
      5495        47  SLPC      H15X           20.0729955422      -22.9784672962        5.6433327392  MEMB      47              0.0000000000
      5496        47  SLPC      H15Y           20.1689781382      -21.5655402701        6.8798474130  MEMB      47              0.0000000000
      5497        47  SLPC      C316           18.4863145145      -21.8750929110        5.3037009919  MEMB      47              0.0000000000
      5498        47  SLPC      H16X           17.5829400579      -21.5638567600        5.8705936977  MEMB      47              0.0000000000
      5499        47  SLPC      H16Y           18.2075433444      -22.8523066461        4.8546341622  MEMB      47              0.0000000000
      5500        47  SLPC      C317           18.9167147477      -20.8338291448        4.2733641299  MEMB      47              0.0000000000
      5501        47  SLPC      H17X           19.7553346155      -21.1587432920        3.6210841971  MEMB      47              0.0000000000
      5502        47  SLPC      H17Y           19.3703970956      -19.9735605637        4.8104219578  MEMB      47              0.0000000000
      5503        47  SLPC      C318           17.7729910213      -20.4903666969        3.3935623821  MEMB      47              0.0000000000
      5504        47  SLPC      H18X           16.9123443466      -20.3678082892        4.0853634446  MEMB      47              0.0000000000
      5505        47  SLPC      H18Y           17.4618933696      -21.3015748006        2.7011169998  MEMB      47              0.0000000000
      5506        47  SLPC      H18Z           17.9278222168      -19.5304609618        2.8560411190  MEMB      47              0.0000000000
      5507        48  CHL1      C3            -23.1713189836      -25.2270061515       17.3696750000  MEMB      48              0.0000000000
      5508        48  CHL1      H3            -22.2558577171      -25.8467413076       17.2592450000  MEMB      48              0.0000000000
      5509        48  CHL1      O3            -23.2113128164      -24.7477176485       18.6303250000  MEMB      48              0.0000000000
      5510        48  CHL1      H3'           -22.8658685220      -25.4453023888       19.1921450000  MEMB      48              0.0000000000
      5511        48  CHL1      C4            -23.1915567242      -24.0007756389       16.4373850000  MEMB      48              0.0000000000
      5512        48  CHL1      H4A           -23.9937037994      -23.3894909898       16.9034250000  MEMB      48              0.0000000000
      5513        48  CHL1      H4B           -22.2395246347      -23.4705068035       16.6536750000  MEMB      48              0.0000000000
      5514        48  CHL1      C5            -23.3707334412      -24.3106091621       14.9938650000  MEMB      48              0.0000000000
      5515        48  CHL1      C6            -22.4430094606      -23.9183304609       14.1048650000  MEMB      48              0.0000000000
      5516        48  CHL1      H6            -21.5556881580      -23.3968273575       14.4930450000  MEMB      48              0.0000000000
      5517        48  CHL1      C7            -22.4279101199      -24.3305461656       12.6678950000  MEMB      48              0.0000000000
      5518        48  CHL1      H7A           -22.0672342534      -23.4457307036       12.1010350000  MEMB      48              0.0000000000
      5519        48  CHL1      H7B           -21.6986896467      -25.1458053124       12.4731850000  MEMB      48              0.0000000000
      5520        48  CHL1      C8            -23.7564691316      -24.7473085172       12.1430250000  MEMB      48              0.0000000000
      5521        48  CHL1      H8            -24.4555016698      -23.8975551407       12.2966750000  MEMB      48              0.0000000000
      5522        48  CHL1      C14           -23.8724945063      -25.1735043753       10.6517250000  MEMB      48              0.0000000000
      5523        48  CHL1      H14           -23.2426156046      -26.0769748585       10.5057450000  MEMB      48              0.0000000000
      5524        48  CHL1      C15           -23.4305979464      -24.2535872688        9.6301450000  MEMB      48              0.0000000000
      5525        48  CHL1      H15A          -23.7916623533      -23.2220912764        9.8300650000  MEMB      48              0.0000000000
      5526        48  CHL1      H15B          -22.3276477600      -24.1233225383        9.6592850000  MEMB      48              0.0000000000
      5527        48  CHL1      C16           -23.9479580846      -24.7667854718        8.3066850000  MEMB      48              0.0000000000
      5528        48  CHL1      H16A          -24.7509367232      -24.1049983069        7.9173350000  MEMB      48              0.0000000000
      5529        48  CHL1      H16B          -23.1775629475      -24.9794561918        7.5349450000  MEMB      48              0.0000000000
      5530        48  CHL1      C17           -24.8498152945      -26.0133773821        8.7138050000  MEMB      48              0.0000000000
      5531        48  CHL1      H17           -24.0557137574      -26.7869824036        8.7862950000  MEMB      48              0.0000000000
      5532        48  CHL1      C13           -25.2217175448      -25.7791139734       10.2094850000  MEMB      48              0.0000000000
      5533        48  CHL1      C18           -26.3452461851      -24.7222327972       10.3060150000  MEMB      48              0.0000000000
      5534        48  CHL1      H18A          -26.0298205592      -23.8274289307        9.7279550000  MEMB      48              0.0000000000
      5535        48  CHL1      H18B          -27.2931028831      -24.9654627501        9.7799450000  MEMB      48              0.0000000000
      5536        48  CHL1      H18C          -26.6486533714      -24.4767424074       11.3462050000  MEMB      48              0.0000000000
      5537        48  CHL1      C12           -25.5390097002      -27.0197353236       11.0776750000  MEMB      48              0.0000000000
      5538        48  CHL1      H12A          -26.4866393768      -27.5368086841       10.8151050000  MEMB      48              0.0000000000
      5539        48  CHL1      H12B          -24.6802524646      -27.7146871009       10.9597650000  MEMB      48              0.0000000000
      5540        48  CHL1      C11           -25.6441434565      -26.5844581247       12.5464550000  MEMB      48              0.0000000000
      5541        48  CHL1      H11A          -26.5598786022      -26.0178895783       12.8198550000  MEMB      48              0.0000000000
      5542        48  CHL1      H11B          -25.7874374919      -27.4113207713       13.2745250000  MEMB      48              0.0000000000
      5543        48  CHL1      C9            -24.4100461737      -25.7951132911       13.1320850000  MEMB      48              0.0000000000
      5544        48  CHL1      H9            -23.5840340166      -26.5343671070       13.2064150000  MEMB      48              0.0000000000
      5545        48  CHL1      C10           -24.5336426386      -25.1855272731       14.5623750000  MEMB      48              0.0000000000
      5546        48  CHL1      C19           -25.8607704602      -24.4100383801       14.7273550000  MEMB      48              0.0000000000
      5547        48  CHL1      H19A          -25.8812473664      -24.0245367146       15.7691250000  MEMB      48              0.0000000000
      5548        48  CHL1      H19B          -25.9324988308      -23.6216643738       13.9478450000  MEMB      48              0.0000000000
      5549        48  CHL1      H19C          -26.7399471815      -25.0831386414       14.6361950000  MEMB      48              0.0000000000
      5550        48  CHL1      C1            -24.5219265702      -26.3733562792       15.5934950000  MEMB      48              0.0000000000
      5551        48  CHL1      H1A           -25.4613611761      -26.9375886304       15.4106550000  MEMB      48              0.0000000000
      5552        48  CHL1      H1B           -23.6344605174      -26.9868445068       15.3282350000  MEMB      48              0.0000000000
      5553        48  CHL1      C2            -24.4625027290      -25.9933269046       17.0815050000  MEMB      48              0.0000000000
      5554        48  CHL1      H2A           -24.5124266122      -26.9153904560       17.6992650000  MEMB      48              0.0000000000
      5555        48  CHL1      H2B           -25.3480895702      -25.3701529678       17.3299550000  MEMB      48              0.0000000000
      5556        48  CHL1      C20           -25.9154569317      -26.3837618607        7.6539750000  MEMB      48              0.0000000000
      5557        48  CHL1      H20           -26.5337205695      -25.4772852930        7.4796950000  MEMB      48              0.0000000000
      5558        48  CHL1      C21           -26.8994070515      -27.5049087543        8.0109750000  MEMB      48              0.0000000000
      5559        48  CHL1      H21A          -27.4834751924      -27.8582680831        7.1344450000  MEMB      48              0.0000000000
      5560        48  CHL1      H21B          -27.6063962195      -27.1614361766        8.7961550000  MEMB      48              0.0000000000
      5561        48  CHL1      H21C          -26.2629571550      -28.3240832826        8.4087250000  MEMB      48              0.0000000000
      5562        48  CHL1      C22           -25.2018519155      -26.7493130673        6.3639750000  MEMB      48              0.0000000000
      5563        48  CHL1      H22A          -24.3214754778      -27.3880087533        6.5905650000  MEMB      48              0.0000000000
      5564        48  CHL1      H22B          -25.8997144847      -27.3380982099        5.7310150000  MEMB      48              0.0000000000
      5565        48  CHL1      C23           -24.8660704472      -25.6316649247        5.3363250000  MEMB      48              0.0000000000
      5566        48  CHL1      H23A          -25.7923259675      -25.0485410795        5.1456750000  MEMB      48              0.0000000000
      5567        48  CHL1      H23B          -24.1194225664      -25.0456874782        5.9137950000  MEMB      48              0.0000000000
      5568        48  CHL1      C24           -24.2480890718      -26.1443334462        4.0268650000  MEMB      48              0.0000000000
      5569        48  CHL1      H24A          -23.7189446874      -25.2902287977        3.5527050000  MEMB      48              0.0000000000
      5570        48  CHL1      H24B          -23.4829657940      -26.8769434023        4.3618150000  MEMB      48              0.0000000000
      5571        48  CHL1      C25           -25.3008851221      -26.9287879201        3.1779850000  MEMB      48              0.0000000000
      5572        48  CHL1      H25           -25.4725034179      -27.8915016527        3.7052950000  MEMB      48              0.0000000000
      5573        48  CHL1      C26           -26.6685685544      -26.2539131585        3.1875150000  MEMB      48              0.0000000000
      5574        48  CHL1      H26A          -27.4566204596      -26.7451163654        2.5775850000  MEMB      48              0.0000000000
      5575        48  CHL1      H26B          -27.0690397346      -26.2732130638        4.2236450000  MEMB      48              0.0000000000
      5576        48  CHL1      H26C          -26.4541063508      -25.2046681243        2.8918650000  MEMB      48              0.0000000000
      5577        48  CHL1      C27           -24.7817006804      -27.1639145198        1.7777150000  MEMB      48              0.0000000000
      5578        48  CHL1      H27A          -25.5761525923      -27.7176889663        1.2331950000  MEMB      48              0.0000000000
      5579        48  CHL1      H27B          -24.7026858550      -26.1795451583        1.2687050000  MEMB      48              0.0000000000
      5580        48  CHL1      H27C          -23.7875505847      -27.6594910623        1.7978250000  MEMB      48              0.0000000000
      5581        49  OSM       N               1.8089758637        0.9714108829      -22.2184614633  MEMB      49              0.0000000000
      5582        49  OSM       C15             3.0990501331        1.7835442251      -22.2443531378  MEMB      49              0.0000000000
      5583        49  OSM       H15A            3.7675351150        1.5627705446      -23.0633689061  MEMB      49              0.0000000000
      5584        49  OSM       H15B            3.6028804828        1.5494567660      -21.3182008597  MEMB      49              0.0000000000
      5585        49  OSM       H15C            2.7396110225        2.7974284526      -22.3404900644  MEMB      49              0.0000000000
      5586        49  OSM       C14             1.0165460765        1.2563604415      -23.4035957915  MEMB      49              0.0000000000
      5587        49  OSM       H14A            0.1883333197        0.5698485520      -23.4993310777  MEMB      49              0.0000000000
      5588        49  OSM       H14B            1.6533815804        1.2561401289      -24.2758576343  MEMB      49              0.0000000000
      5589        49  OSM       H14C            0.6056140298        2.2549793951      -23.4207760689  MEMB      49              0.0000000000
      5590        49  OSM       C13             2.2569963671       -0.4948702380      -22.3505112514  MEMB      49              0.0000000000
      5591        49  OSM       H13A            2.7839058205       -0.4966096429      -23.2932537413  MEMB      49              0.0000000000
      5592        49  OSM       H13B            1.4383933739       -1.1938368215      -22.2625632804  MEMB      49              0.0000000000
      5593        49  OSM       H13C            2.9853613355       -0.7675904360      -21.6011726769  MEMB      49              0.0000000000
      5594        49  OSM       C12             0.9907831496        1.2692346027      -20.9468163292  MEMB      49              0.0000000000
      5595        49  OSM       H12A            0.8598732477        2.3224072968      -20.7465916940  MEMB      49              0.0000000000
      5596        49  OSM       H12B            1.5752492916        0.8648314948      -20.1336389710  MEMB      49              0.0000000000
      5597        49  OSM       C11            -0.4075381972        0.5176134249      -20.7108886951  MEMB      49              0.0000000000
      5598        49  OSM       H11A           -1.0269715229        0.8813229102      -21.5584373380  MEMB      49              0.0000000000
      5599        49  OSM       H11B           -0.8361840775        0.9878764225      -19.8001546754  MEMB      49              0.0000000000
      5600        49  OSM       P              -1.3410743516       -1.7060738681      -19.8702834764  MEMB      49              0.0000000000
      5601        49  OSM       O13            -2.7012995374       -1.7816784865      -20.4639135552  MEMB      49              0.0000000000
      5602        49  OSM       O14            -0.6660773283       -2.9952134937      -19.6907655503  MEMB      49              0.0000000000
      5603        49  OSM       O11            -1.3075595995       -0.9122802973      -18.4127175738  MEMB      49              0.0000000000
      5604        49  OSM       O12            -0.2941354467       -0.8724683566      -20.6876931723  MEMB      49              0.0000000000
      5605        49  OSM       C1S            -0.1662561990       -0.9020002523      -17.5869441228  MEMB      49              0.0000000000
      5606        49  OSM       H1S             0.4543849152       -0.0573837576      -17.9553848546  MEMB      49              0.0000000000
      5607        49  OSM       H1T             0.3371961598       -1.8884496032      -17.6751167862  MEMB      49              0.0000000000
      5608        49  OSM       NF              0.5915409835       -0.7831281544      -15.3729498880  MEMB      49              0.0000000000
      5609        49  OSM       HNF             0.7354160070       -1.6985067374      -15.0049946381  MEMB      49              0.0000000000
      5610        49  OSM       C2S            -0.6360772418       -0.7484080054      -16.1414723974  MEMB      49              0.0000000000
      5611        49  OSM       H2S            -1.1569244806        0.2209560491      -15.9885914798  MEMB      49              0.0000000000
      5612        49  OSM       C3S            -1.5467143437       -1.9400369828      -15.9015667378  MEMB      49              0.0000000000
      5613        49  OSM       H3S            -1.0812164503       -2.8888135564      -16.2442853706  MEMB      49              0.0000000000
      5614        49  OSM       O3             -2.8442710440       -1.7016533229      -16.4531024898  MEMB      49              0.0000000000
      5615        49  OSM       HO3            -2.7848297538       -0.7512485347      -16.5747475162  MEMB      49              0.0000000000
      5616        49  OSM       C4S            -1.7686686149       -2.1748285845      -14.4562141445  MEMB      49              0.0000000000
      5617        49  OSM       H4S            -2.3648940735       -1.4201187050      -13.9224273156  MEMB      49              0.0000000000
      5618        49  OSM       C5S            -1.1391889645       -3.1971380928      -13.7861941277  MEMB      49              0.0000000000
      5619        49  OSM       H5S            -0.4491823610       -3.8686026448      -14.3181959017  MEMB      49              0.0000000000
      5620        49  OSM       C6S            -1.3141237957       -3.5043749018      -12.3452957562  MEMB      49              0.0000000000
      5621        49  OSM       H6S            -0.7769316211       -4.4712656450      -12.2410471605  MEMB      49              0.0000000000
      5622        49  OSM       H6T            -2.4200549367       -3.5467766527      -12.2481396921  MEMB      49              0.0000000000
      5623        49  OSM       C7S            -0.7341656389       -2.4570960002      -11.3661093574  MEMB      49              0.0000000000
      5624        49  OSM       H7S            -1.3436947743       -1.5289657770      -11.4031165244  MEMB      49              0.0000000000
      5625        49  OSM       H7T             0.2382810518       -2.1548673596      -11.8103238430  MEMB      49              0.0000000000
      5626        49  OSM       C8S            -0.4367873631       -3.0514319440       -9.9216507232  MEMB      49              0.0000000000
      5627        49  OSM       H8S             0.1486194559       -3.9913009687      -10.0125692961  MEMB      49              0.0000000000
      5628        49  OSM       H8T            -1.4467301391       -3.3852241063       -9.6008406658  MEMB      49              0.0000000000
      5629        49  OSM       C9S             0.0824227946       -2.0165878957       -8.9580626856  MEMB      49              0.0000000000
      5630        49  OSM       H9S             0.8090905396       -1.3578696504       -9.4799488591  MEMB      49              0.0000000000
      5631        49  OSM       H9T             0.7220998534       -2.5346941891       -8.2119394846  MEMB      49              0.0000000000
      5632        49  OSM       C10S           -1.0482695296       -1.1712495941       -8.3318111365  MEMB      49              0.0000000000
      5633        49  OSM       H10S           -1.6974566483       -1.8443632052       -7.7319814638  MEMB      49              0.0000000000
      5634        49  OSM       H10T           -1.7454013144       -0.7482593992       -9.0864015441  MEMB      49              0.0000000000
      5635        49  OSM       C11S           -0.5125407142       -0.0308622294       -7.6236452350  MEMB      49              0.0000000000
      5636        49  OSM       H11S           -1.1983391960        0.4995078326       -6.9288726381  MEMB      49              0.0000000000
      5637        49  OSM       H11T           -0.2237091223        0.7780763588       -8.3282837229  MEMB      49              0.0000000000
      5638        49  OSM       C12S            0.6535423310       -0.2937474270       -6.7007822192  MEMB      49              0.0000000000
      5639        49  OSM       H12S            1.5811393946       -0.2219846718       -7.3080175245  MEMB      49              0.0000000000
      5640        49  OSM       H12T            0.6906915213       -1.3045499056       -6.2411962465  MEMB      49              0.0000000000
      5641        49  OSM       C13S            0.7878187552        0.8520692614       -5.7196181616  MEMB      49              0.0000000000
      5642        49  OSM       H13S            0.7595353117        1.7834190054       -6.3246867785  MEMB      49              0.0000000000
      5643        49  OSM       H13T            1.7629061559        0.8097449708       -5.1888312705  MEMB      49              0.0000000000
      5644        49  OSM       C14S           -0.2338760148        1.0605191975       -4.6214857387  MEMB      49              0.0000000000
      5645        49  OSM       H14S           -1.0287320818        0.3219192756       -4.8602219405  MEMB      49              0.0000000000
      5646        49  OSM       H14T           -0.6509356422        2.0902659242       -4.6233708961  MEMB      49              0.0000000000
      5647        49  OSM       C15S            0.3805047741        0.8126356995       -3.2651385378  MEMB      49              0.0000000000
      5648        49  OSM       H15S            1.3503866689        1.3176924439       -3.0687518346  MEMB      49              0.0000000000
      5649        49  OSM       H15T            0.6794486497       -0.2541345418       -3.1817447403  MEMB      49              0.0000000000
      5650        49  OSM       C16S           -0.5166541526        1.1512353994       -2.0519991200  MEMB      49              0.0000000000
      5651        49  OSM       H16S           -0.0790273920        0.9143728249       -1.0586713791  MEMB      49              0.0000000000
      5652        49  OSM       H16T           -1.4930869635        0.6332295798       -2.1641160418  MEMB      49              0.0000000000
      5653        49  OSM       C17S           -0.9057297808        2.6363016651       -1.9333164727  MEMB      49              0.0000000000
      5654        49  OSM       H17S           -1.6506282532        2.7184294388       -1.1131326363  MEMB      49              0.0000000000
      5655        49  OSM       H17T           -1.4504363354        2.9530497581       -2.8483507299  MEMB      49              0.0000000000
      5656        49  OSM       C18S            0.3072251626        3.4979738994       -1.8157105238  MEMB      49              0.0000000000
      5657        49  OSM       H18S            0.9252046952        3.1692443973       -0.9529485188  MEMB      49              0.0000000000
      5658        49  OSM       H18T            0.0034710329        4.5426298439       -1.5904365670  MEMB      49              0.0000000000
      5659        49  OSM       H18U            0.9432617732        3.5499285847       -2.7251497860  MEMB      49              0.0000000000
      5660        49  OSM       C1F             1.4444212753        0.2365573460      -15.2179163485  MEMB      49              0.0000000000
      5661        49  OSM       OF              1.3297423028        1.3168982027      -15.8353605912  MEMB      49              0.0000000000
      5662        49  OSM       C2F             2.5981074852       -0.0148692500      -14.3555694069  MEMB      49              0.0000000000
      5663        49  OSM       H2F             3.4940804921        0.6099908575      -14.5583078846  MEMB      49              0.0000000000
      5664        49  OSM       H2G             2.9221579145       -1.0770703676      -14.3878352844  MEMB      49              0.0000000000
      5665        49  OSM       C3F             2.1146072705        0.4196431686      -12.9322003035  MEMB      49              0.0000000000
      5666        49  OSM       H3F             1.0511035926        0.1404155211      -12.7731001732  MEMB      49              0.0000000000
      5667        49  OSM       H3G             2.2439921591        1.5230799772      -12.9350011811  MEMB      49              0.0000000000
      5668        49  OSM       C4F             2.9556809452       -0.1435428962      -11.8053863544  MEMB      49              0.0000000000
      5669        49  OSM       H4F             2.9858909591       -1.2092154104      -12.1180367474  MEMB      49              0.0000000000
      5670        49  OSM       H4G             2.3885949153       -0.0770086266      -10.8523341914  MEMB      49              0.0000000000
      5671        49  OSM       C5F             4.3509758117        0.4991885640      -11.6808302126  MEMB      49              0.0000000000
      5672        49  OSM       H5F             4.1821731617        1.5957446707      -11.7390667577  MEMB      49              0.0000000000
      5673        49  OSM       H5G             4.9544246195        0.2443688914      -12.5781798884  MEMB      49              0.0000000000
      5674        49  OSM       C6F             5.2022771459        0.0964599259      -10.4285890958  MEMB      49              0.0000000000
      5675        49  OSM       H6F             6.2350367031        0.5042415526      -10.4665723592  MEMB      49              0.0000000000
      5676        49  OSM       H6G             5.2982027142       -1.0079223081      -10.3547034649  MEMB      49              0.0000000000
      5677        49  OSM       C7F             4.5421701926        0.7293785251       -9.1436924731  MEMB      49              0.0000000000
      5678        49  OSM       H7F             3.6100356509        0.1508448776       -8.9683493531  MEMB      49              0.0000000000
      5679        49  OSM       H7G             4.4429846699        1.8153632823       -9.3561075427  MEMB      49              0.0000000000
      5680        49  OSM       C8F             5.4560596121        0.6201794394       -7.8930204813  MEMB      49              0.0000000000
      5681        49  OSM       H8F             6.4636042058        0.9896411978       -8.1805493793  MEMB      49              0.0000000000
      5682        49  OSM       H8G             5.5801584956       -0.4757880258       -7.7596943428  MEMB      49              0.0000000000
      5683        49  OSM       C9F             4.9462280101        1.2361696198       -6.6002963270  MEMB      49              0.0000000000
      5684        49  OSM       H9F             5.1291748549        2.3182231819       -6.5248604503  MEMB      49              0.0000000000
      5685        49  OSM       C10F            4.4131438432        0.6063474331       -5.4726328702  MEMB      49              0.0000000000
      5686        49  OSM       H10F            3.8405228174        1.2045474364       -4.7485732697  MEMB      49              0.0000000000
      5687        49  OSM       C11F            4.2599372483       -0.8715970453       -5.2713470047  MEMB      49              0.0000000000
      5688        49  OSM       H11F            4.8964117882       -1.2906717011       -6.0798012248  MEMB      49              0.0000000000
      5689        49  OSM       H11G            3.1931564769       -1.1791748189       -5.3125311133  MEMB      49              0.0000000000
      5690        49  OSM       C12F            4.7097616750       -1.2690970702       -3.8826746741  MEMB      49              0.0000000000
      5691        49  OSM       H12F            5.6088443396       -0.7232231678       -3.5249128943  MEMB      49              0.0000000000
      5692        49  OSM       H12G            5.0327221784       -2.3296063937       -3.9557324235  MEMB      49              0.0000000000
      5693        49  OSM       C13F            3.6002934661       -1.0958740040       -2.8182772388  MEMB      49              0.0000000000
      5694        49  OSM       H13F            2.7864115934       -1.8157510807       -3.0499979326  MEMB      49              0.0000000000
      5695        49  OSM       H13G            3.0105464432       -0.1545587340       -2.7971843916  MEMB      49              0.0000000000
      5696        49  OSM       C14F            4.0239031042       -1.2986756251       -1.3471069546  MEMB      49              0.0000000000
      5697        49  OSM       H14F            4.5213263802       -0.3687538215       -0.9976274234  MEMB      49              0.0000000000
      5698        49  OSM       H14G            4.7747499241       -2.1055127693       -1.2072378587  MEMB      49              0.0000000000
      5699        49  OSM       C15F            2.8631200995       -1.5751292831       -0.3129299706  MEMB      49              0.0000000000
      5700        49  OSM       H15F            2.1742236569       -0.7036066964       -0.2991063886  MEMB      49              0.0000000000
      5701        49  OSM       H15G            3.3305662780       -1.5259332021        0.6937459199  MEMB      49              0.0000000000
      5702        49  OSM       C16F            2.2411368517       -2.9031742192       -0.4820587463  MEMB      49              0.0000000000
      5703        49  OSM       H16F            2.9154448458       -3.6662614602       -0.0378444763  MEMB      49              0.0000000000
      5704        49  OSM       H16G            1.9236655116       -3.2612556975       -1.4847109786  MEMB      49              0.0000000000
      5705        49  OSM       C17F            0.9000559827       -3.1110880634        0.3135294733  MEMB      49              0.0000000000
      5706        49  OSM       H17F            1.1878701109       -2.6570246453        1.2858005136  MEMB      49              0.0000000000
      5707        49  OSM       H17G            0.6853076799       -4.2002088777        0.3584718664  MEMB      49              0.0000000000
      5708        49  OSM       C18F           -0.2286094940       -2.2571898427       -0.1040702357  MEMB      49              0.0000000000
      5709        49  OSM       H18F           -1.2076702244       -2.4964729256        0.3633745427  MEMB      49              0.0000000000
      5710        49  OSM       H18G           -0.3461811894       -2.4522202737       -1.1914811377  MEMB      49              0.0000000000
      5711        49  OSM       H18H            0.0196337169       -1.1983468010        0.1229702326  MEMB      49              0.0000000000
      5712        50  CHL1      C3             -7.4239752884       -0.0533072097      -17.3048700000  MEMB      50              0.0000000000
      5713        50  CHL1      H3             -8.4048351242       -0.5740559678      -17.2721500000  MEMB      50              0.0000000000
      5714        50  CHL1      O3             -7.1398385516        0.1307630683      -18.6951300000  MEMB      50              0.0000000000
      5715        50  CHL1      H3'            -7.6727443803        0.8990649622      -18.9126700000  MEMB      50              0.0000000000
      5716        50  CHL1      C4             -7.5172037697        1.2841840682      -16.6483600000  MEMB      50              0.0000000000
      5717        50  CHL1      H4A            -6.6308561869        1.7948142569      -17.0819000000  MEMB      50              0.0000000000
      5718        50  CHL1      H4B            -8.4351361743        1.7032052131      -17.1132500000  MEMB      50              0.0000000000
      5719        50  CHL1      C5             -7.6028635665        1.2050031095      -15.1147400000  MEMB      50              0.0000000000
      5720        50  CHL1      C6             -8.6268445360        1.8257059174      -14.5429100000  MEMB      50              0.0000000000
      5721        50  CHL1      H6             -9.2330833516        2.4757250336      -15.1909500000  MEMB      50              0.0000000000
      5722        50  CHL1      C7             -8.6845499982        1.7750490272      -13.0440000000  MEMB      50              0.0000000000
      5723        50  CHL1      H7A            -8.7849957389        2.8279353115      -12.7039200000  MEMB      50              0.0000000000
      5724        50  CHL1      H7B            -9.5532168650        1.1787781432      -12.6915700000  MEMB      50              0.0000000000
      5725        50  CHL1      C8             -7.4479181054        1.2043456243      -12.3194100000  MEMB      50              0.0000000000
      5726        50  CHL1      H8             -6.6870691446        2.0138885954      -12.3280300000  MEMB      50              0.0000000000
      5727        50  CHL1      C14            -7.6304917382        0.8945438192      -10.7506000000  MEMB      50              0.0000000000
      5728        50  CHL1      H14            -8.3683265504        0.0640349957      -10.7373400000  MEMB      50              0.0000000000
      5729        50  CHL1      C15            -8.2763814970        2.0860040226       -9.9301000000  MEMB      50              0.0000000000
      5730        50  CHL1      H15A           -7.8107107136        3.0798194241      -10.1027500000  MEMB      50              0.0000000000
      5731        50  CHL1      H15B           -9.3592248951        2.1442800010      -10.1716800000  MEMB      50              0.0000000000
      5732        50  CHL1      C16            -7.9650020085        1.6349140873       -8.4792100000  MEMB      50              0.0000000000
      5733        50  CHL1      H16A           -7.4597598085        2.4482741717       -7.9157500000  MEMB      50              0.0000000000
      5734        50  CHL1      H16B           -8.9001073995        1.3233760263       -7.9665200000  MEMB      50              0.0000000000
      5735        50  CHL1      C17            -6.9367713096        0.4118207125       -8.5915900000  MEMB      50              0.0000000000
      5736        50  CHL1      H17            -7.3875794057       -0.6035650072       -8.5823100000  MEMB      50              0.0000000000
      5737        50  CHL1      C13            -6.3553121945        0.4612205863      -10.0318300000  MEMB      50              0.0000000000
      5738        50  CHL1      C18            -5.2398967998        1.4894466286      -10.0974900000  MEMB      50              0.0000000000
      5739        50  CHL1      H18A           -4.4605337024        1.1443825903       -9.3848600000  MEMB      50              0.0000000000
      5740        50  CHL1      H18B           -4.8065224461        1.3779935669      -11.1143800000  MEMB      50              0.0000000000
      5741        50  CHL1      H18C           -5.5440614188        2.5321332450       -9.8638000000  MEMB      50              0.0000000000
      5742        50  CHL1      C12            -5.8789755074       -0.7956812008      -10.6174200000  MEMB      50              0.0000000000
      5743        50  CHL1      H12A           -4.8705461096       -1.0949619697      -10.2599000000  MEMB      50              0.0000000000
      5744        50  CHL1      H12B           -6.5397010859       -1.6314577061      -10.3024100000  MEMB      50              0.0000000000
      5745        50  CHL1      C11            -5.7722600502       -0.7591448381      -12.1629800000  MEMB      50              0.0000000000
      5746        50  CHL1      H11A           -4.8021039505       -0.2834535648      -12.4215200000  MEMB      50              0.0000000000
      5747        50  CHL1      H11B           -5.6929083449       -1.7680029703      -12.6214900000  MEMB      50              0.0000000000
      5748        50  CHL1      C9             -6.8917363149       -0.0759509822      -12.9057400000  MEMB      50              0.0000000000
      5749        50  CHL1      H9             -7.7299975895       -0.8050542040      -12.8991500000  MEMB      50              0.0000000000
      5750        50  CHL1      C10            -6.5105848743        0.2773106621      -14.4332900000  MEMB      50              0.0000000000
      5751        50  CHL1      C19            -5.1353636570        1.0283661846      -14.5447100000  MEMB      50              0.0000000000
      5752        50  CHL1      H19A           -5.0221433419        1.3569276678      -15.5999600000  MEMB      50              0.0000000000
      5753        50  CHL1      H19B           -5.0533268949        1.8721326920      -13.8266200000  MEMB      50              0.0000000000
      5754        50  CHL1      H19C           -4.4195298340        0.2294184504      -14.2555900000  MEMB      50              0.0000000000
      5755        50  CHL1      C1             -6.5170742485       -1.1174850325      -15.2071100000  MEMB      50              0.0000000000
      5756        50  CHL1      H1A            -5.7529631667       -1.8673459664      -14.9101900000  MEMB      50              0.0000000000
      5757        50  CHL1      H1B            -7.5022717671       -1.6055216781      -15.0473200000  MEMB      50              0.0000000000
      5758        50  CHL1      C2             -6.3942291179       -0.9620094512      -16.7475700000  MEMB      50              0.0000000000
      5759        50  CHL1      H2A            -6.4265962597       -1.9099037441      -17.3261700000  MEMB      50              0.0000000000
      5760        50  CHL1      H2B            -5.4365178464       -0.4210434611      -16.9040000000  MEMB      50              0.0000000000
      5761        50  CHL1      C20            -6.0291120445        0.3507035110       -7.2753400000  MEMB      50              0.0000000000
      5762        50  CHL1      H20            -5.5364825093        1.3399158046       -7.3897800000  MEMB      50              0.0000000000
      5763        50  CHL1      C21            -5.0593029824       -0.8608482500       -7.2896800000  MEMB      50              0.0000000000
      5764        50  CHL1      H21A           -4.3423434162       -0.6793277229       -8.1187400000  MEMB      50              0.0000000000
      5765        50  CHL1      H21B           -5.5278628097       -1.8206244576       -7.5956100000  MEMB      50              0.0000000000
      5766        50  CHL1      H21C           -4.6088836642       -0.9947733318       -6.2829500000  MEMB      50              0.0000000000
      5767        50  CHL1      C22            -6.8305772071        0.2557739805       -6.0195100000  MEMB      50              0.0000000000
      5768        50  CHL1      H22A           -6.1396207277        0.6050059859       -5.2226900000  MEMB      50              0.0000000000
      5769        50  CHL1      H22B           -7.6764780428        0.9702188705       -6.1108100000  MEMB      50              0.0000000000
      5770        50  CHL1      C23            -7.4413933301       -1.0906873082       -5.5022800000  MEMB      50              0.0000000000
      5771        50  CHL1      H23A           -8.2385357101       -1.4489839150       -6.1882100000  MEMB      50              0.0000000000
      5772        50  CHL1      H23B           -6.6578573915       -1.8776864346       -5.4702400000  MEMB      50              0.0000000000
      5773        50  CHL1      C24            -7.9345432241       -0.9421603503       -4.0278800000  MEMB      50              0.0000000000
      5774        50  CHL1      H24A           -7.1390169159       -0.6726526409       -3.3006800000  MEMB      50              0.0000000000
      5775        50  CHL1      H24B           -8.6655404103       -0.1071067382       -3.9764200000  MEMB      50              0.0000000000
      5776        50  CHL1      C25            -8.7908005286       -2.1488787688       -3.4811300000  MEMB      50              0.0000000000
      5777        50  CHL1      H25            -9.4496957214       -2.4706368228       -4.3157800000  MEMB      50              0.0000000000
      5778        50  CHL1      C26            -7.8000720671       -3.3042028246       -3.2907400000  MEMB      50              0.0000000000
      5779        50  CHL1      H26A           -6.9854120746       -3.0123973883       -2.5939700000  MEMB      50              0.0000000000
      5780        50  CHL1      H26B           -8.4012405641       -4.0914936160       -2.7876600000  MEMB      50              0.0000000000
      5781        50  CHL1      H26C           -7.3756648199       -3.7086123669       -4.2344800000  MEMB      50              0.0000000000
      5782        50  CHL1      C27            -9.6482830183       -1.8834509919       -2.2259700000  MEMB      50              0.0000000000
      5783        50  CHL1      H27A           -8.9411928120       -1.5909829085       -1.4204900000  MEMB      50              0.0000000000
      5784        50  CHL1      H27B          -10.3917935296       -1.1005462599       -2.4878200000  MEMB      50              0.0000000000
      5785        50  CHL1      H27C          -10.1644891465       -2.8586166929       -2.0959200000  MEMB      50              0.0000000000
      5786        51  OSM       N               2.0735397641        5.3815381949      -22.2483384490  MEMB      51              0.0000000000
      5787        51  OSM       C15             3.0027440932        6.3819511481      -22.9836381173  MEMB      51              0.0000000000
      5788        51  OSM       H15A            2.6766313189        7.3518131869      -22.6380690204  MEMB      51              0.0000000000
      5789        51  OSM       H15B            2.8369070750        6.2388579664      -24.0411931243  MEMB      51              0.0000000000
      5790        51  OSM       H15C            4.0202682047        6.2189880428      -22.6603925891  MEMB      51              0.0000000000
      5791        51  OSM       C14             0.6578387054        5.6031910948      -22.7186147757  MEMB      51              0.0000000000
      5792        51  OSM       H14A            0.2377014644        6.4895278232      -22.2666282426  MEMB      51              0.0000000000
      5793        51  OSM       H14B           -0.0124036935        4.7854690906      -22.4983743191  MEMB      51              0.0000000000
      5794        51  OSM       H14C            0.7133365566        5.7194671557      -23.7909019386  MEMB      51              0.0000000000
      5795        51  OSM       C13             2.6287271941        4.0391618613      -22.6781859878  MEMB      51              0.0000000000
      5796        51  OSM       H13A            3.6898075877        4.0821677130      -22.4815672456  MEMB      51              0.0000000000
      5797        51  OSM       H13B            2.5707828876        4.0351397752      -23.7566231354  MEMB      51              0.0000000000
      5798        51  OSM       H13C            2.1934822973        3.2386079019      -22.0984661021  MEMB      51              0.0000000000
      5799        51  OSM       C12             2.2670470440        5.3473891325      -20.7427800038  MEMB      51              0.0000000000
      5800        51  OSM       H12A            3.2611992383        4.9485415257      -20.6050046050  MEMB      51              0.0000000000
      5801        51  OSM       H12B            1.5479908115        4.6669920816      -20.3110186127  MEMB      51              0.0000000000
      5802        51  OSM       C11             2.2283574907        6.6820549086      -19.9508662273  MEMB      51              0.0000000000
      5803        51  OSM       H11A            2.2632922193        6.4522036160      -18.8644643139  MEMB      51              0.0000000000
      5804        51  OSM       H11B            1.1546481991        6.9309292238      -20.0906194226  MEMB      51              0.0000000000
      5805        51  OSM       P               4.7979875003        7.5587106017      -19.9581207878  MEMB      51              0.0000000000
      5806        51  OSM       O13             5.1995015755        6.1286624553      -20.1020975792  MEMB      51              0.0000000000
      5807        51  OSM       O14             5.5470677861        8.5064183548      -20.7812410212  MEMB      51              0.0000000000
      5808        51  OSM       O11             4.9374276145        8.0373780209      -18.4763560782  MEMB      51              0.0000000000
      5809        51  OSM       O12             3.2368647159        7.7075509711      -20.3597609781  MEMB      51              0.0000000000
      5810        51  OSM       C1S             4.7187718129        9.3408008236      -18.0190565671  MEMB      51              0.0000000000
      5811        51  OSM       H1S             3.8257100672        9.7290595519      -18.5538620564  MEMB      51              0.0000000000
      5812        51  OSM       H1T             5.6202788983        9.9573213822      -18.2227929117  MEMB      51              0.0000000000
      5813        51  OSM       NF              5.5458237809        8.9980210081      -15.6629741623  MEMB      51              0.0000000000
      5814        51  OSM       HNF             5.4795599652        8.0875965514      -15.2620435034  MEMB      51              0.0000000000
      5815        51  OSM       C2S             4.3889263153        9.3023894431      -16.5024950037  MEMB      51              0.0000000000
      5816        51  OSM       H2S             4.0175793949       10.3320581308      -16.3122188200  MEMB      51              0.0000000000
      5817        51  OSM       C3S             3.2767961839        8.2942829303      -16.1852121927  MEMB      51              0.0000000000
      5818        51  OSM       H3S             3.6516135979        7.2540105522      -16.2932229164  MEMB      51              0.0000000000
      5819        51  OSM       O3              2.1431486416        8.5984923824      -17.0026152611  MEMB      51              0.0000000000
      5820        51  OSM       HO3             2.5035416027        9.1174448325      -17.7253912376  MEMB      51              0.0000000000
      5821        51  OSM       C4S             3.0065331171        8.3457831545      -14.6650561081  MEMB      51              0.0000000000
      5822        51  OSM       H4S             3.6455996061        7.6989489791      -14.0460245931  MEMB      51              0.0000000000
      5823        51  OSM       C5S             2.0964956863        9.1499120839      -14.0523114782  MEMB      51              0.0000000000
      5824        51  OSM       H5S             1.5413140158        9.9327956583      -14.5897751080  MEMB      51              0.0000000000
      5825        51  OSM       C6S             1.8905862871        9.1249600182      -12.5597253362  MEMB      51              0.0000000000
      5826        51  OSM       H6S             1.2690827096        8.2556096293      -12.2559426506  MEMB      51              0.0000000000
      5827        51  OSM       H6T             1.4770949400       10.1223117762      -12.2977416775  MEMB      51              0.0000000000
      5828        51  OSM       C7S             3.1044656337        9.1511647447      -11.6168907133  MEMB      51              0.0000000000
      5829        51  OSM       H7S             3.8430221622        9.8976076503      -11.9797654402  MEMB      51              0.0000000000
      5830        51  OSM       H7T             3.5405884123        8.1413861779      -11.7733031709  MEMB      51              0.0000000000
      5831        51  OSM       C8S             2.9164225060        9.5748014950      -10.1371904523  MEMB      51              0.0000000000
      5832        51  OSM       H8S             2.4299147120       10.5679163508      -10.0306354761  MEMB      51              0.0000000000
      5833        51  OSM       H8T             3.9409284561        9.6732830495       -9.7188479268  MEMB      51              0.0000000000
      5834        51  OSM       C9S             2.1298534441        8.5612727107       -9.2982819351  MEMB      51              0.0000000000
      5835        51  OSM       H9S             2.6569442214        7.5993525475       -9.4749342056  MEMB      51              0.0000000000
      5836        51  OSM       H9T             1.1866253483        8.3770604031       -9.8556934468  MEMB      51              0.0000000000
      5837        51  OSM       C10S            1.8647404130        8.9714742496       -7.8770488201  MEMB      51              0.0000000000
      5838        51  OSM       H10S            1.2565666469        8.1780490121       -7.3923612511  MEMB      51              0.0000000000
      5839        51  OSM       H10T            1.3211299331        9.9290591246       -7.7292660675  MEMB      51              0.0000000000
      5840        51  OSM       C11S            3.1796990878        9.1729222202       -7.0041572762  MEMB      51              0.0000000000
      5841        51  OSM       H11S            3.7274724840       10.1032441401       -7.2663901612  MEMB      51              0.0000000000
      5842        51  OSM       H11T            3.8498196227        8.2924654717       -7.1044343932  MEMB      51              0.0000000000
      5843        51  OSM       C12S            2.7891792402        9.2270603914       -5.5196363783  MEMB      51              0.0000000000
      5844        51  OSM       H12S            2.0378254834       10.0331901795       -5.3784154550  MEMB      51              0.0000000000
      5845        51  OSM       H12T            3.7250543718        9.4908792432       -4.9821804508  MEMB      51              0.0000000000
      5846        51  OSM       C13S            2.1828036867        7.9646708951       -4.9513774651  MEMB      51              0.0000000000
      5847        51  OSM       H13S            2.8176081089        7.1235894463       -5.3034097595  MEMB      51              0.0000000000
      5848        51  OSM       H13T            1.1693003673        7.7361838420       -5.3449838864  MEMB      51              0.0000000000
      5849        51  OSM       C14S            1.9927134478        7.8629279072       -3.4014949007  MEMB      51              0.0000000000
      5850        51  OSM       H14S            2.9564247836        8.1795780617       -2.9483787173  MEMB      51              0.0000000000
      5851        51  OSM       H14T            1.8011235051        6.7801783502       -3.2425367551  MEMB      51              0.0000000000
      5852        51  OSM       C15S            0.8946095433        8.6883189148       -2.8588018989  MEMB      51              0.0000000000
      5853        51  OSM       H15S            0.0489919777        8.5952503222       -3.5733574803  MEMB      51              0.0000000000
      5854        51  OSM       H15T            1.3260336712        9.7121319287       -2.8597149632  MEMB      51              0.0000000000
      5855        51  OSM       C16S            0.4200253553        8.3374579680       -1.4076086298  MEMB      51              0.0000000000
      5856        51  OSM       H16S            1.2319365254        7.7115476501       -0.9794059347  MEMB      51              0.0000000000
      5857        51  OSM       H16T           -0.5224965313        7.7572070793       -1.5039521634  MEMB      51              0.0000000000
      5858        51  OSM       C17S           -0.0095661905        9.5919581776       -0.6303822027  MEMB      51              0.0000000000
      5859        51  OSM       H17S           -0.8643715943        9.1888899228       -0.0462894230  MEMB      51              0.0000000000
      5860        51  OSM       H17T           -0.4642704766       10.4199263960       -1.2152183285  MEMB      51              0.0000000000
      5861        51  OSM       C18S            1.0828174396       10.1744276421        0.2447810385  MEMB      51              0.0000000000
      5862        51  OSM       H18S            2.0538414512       10.2921659362       -0.2820696008  MEMB      51              0.0000000000
      5863        51  OSM       H18T            1.2996000729        9.5372991046        1.1287442185  MEMB      51              0.0000000000
      5864        51  OSM       H18U            0.7161136932       11.1777544553        0.5500420613  MEMB      51              0.0000000000
      5865        51  OSM       C1F             6.5433323403        9.8198084598      -15.2452805473  MEMB      51              0.0000000000
      5866        51  OSM       OF              6.5797462506       11.0113575877      -15.5780790776  MEMB      51              0.0000000000
      5867        51  OSM       C2F             7.4849126575        9.2017363667      -14.3023221256  MEMB      51              0.0000000000
      5868        51  OSM       H2F             8.4277594254        9.7880903912      -14.2629543015  MEMB      51              0.0000000000
      5869        51  OSM       H2G             7.7954404976        8.1942899801      -14.6529571312  MEMB      51              0.0000000000
      5870        51  OSM       C3F             6.8712488551        8.9552150497      -12.8678291020  MEMB      51              0.0000000000
      5871        51  OSM       H3F             6.1566695469        8.1083451228      -12.7871522199  MEMB      51              0.0000000000
      5872        51  OSM       H3G             6.3582861883        9.8677597490      -12.4957367285  MEMB      51              0.0000000000
      5873        51  OSM       C4F             7.9138831194        8.5897719228      -11.8131149450  MEMB      51              0.0000000000
      5874        51  OSM       H4F             8.7288058489        9.3394203883      -11.9039396987  MEMB      51              0.0000000000
      5875        51  OSM       H4G             8.2969037833        7.5585569048      -11.9687161700  MEMB      51              0.0000000000
      5876        51  OSM       C5F             7.3781812870        8.4095720533      -10.3516660486  MEMB      51              0.0000000000
      5877        51  OSM       H5F             6.9130743668        9.3662217815      -10.0310141162  MEMB      51              0.0000000000
      5878        51  OSM       H5G             8.2853396540        8.2213912433       -9.7384993895  MEMB      51              0.0000000000
      5879        51  OSM       C6F             6.3048895110        7.3244177015      -10.1932214508  MEMB      51              0.0000000000
      5880        51  OSM       H6F             6.6432788655        6.3933299397      -10.6961027442  MEMB      51              0.0000000000
      5881        51  OSM       H6G             5.3814445039        7.7419202895      -10.6484816273  MEMB      51              0.0000000000
      5882        51  OSM       C7F             5.9198032567        6.9480735632       -8.7592561051  MEMB      51              0.0000000000
      5883        51  OSM       H7F             5.3760415889        7.8142488587       -8.3252239698  MEMB      51              0.0000000000
      5884        51  OSM       H7G             6.8774091758        6.8091146170       -8.2133607152  MEMB      51              0.0000000000
      5885        51  OSM       C8F             5.2480189206        5.5815604110       -8.7121641665  MEMB      51              0.0000000000
      5886        51  OSM       H8F             5.9428489505        4.7459174964       -8.9428869284  MEMB      51              0.0000000000
      5887        51  OSM       H8G             4.5146284729        5.6193192779       -9.5458506214  MEMB      51              0.0000000000
      5888        51  OSM       C9F             4.5584013408        5.3401856714       -7.3620792048  MEMB      51              0.0000000000
      5889        51  OSM       H9F             3.8160191303        6.1040029702       -7.0873947673  MEMB      51              0.0000000000
      5890        51  OSM       C10F            4.9552279654        4.4821910887       -6.4341229899  MEMB      51              0.0000000000
      5891        51  OSM       H10F            4.4496849801        4.5646086795       -5.4606588351  MEMB      51              0.0000000000
      5892        51  OSM       C11F            6.1655181163        3.5524412023       -6.4559837441  MEMB      51              0.0000000000
      5893        51  OSM       H11F            6.9986482197        4.2067341299       -6.1211460219  MEMB      51              0.0000000000
      5894        51  OSM       H11G            6.3822057266        3.2805817784       -7.5111895440  MEMB      51              0.0000000000
      5895        51  OSM       C12F            5.7878417566        2.2544553902       -5.6142819066  MEMB      51              0.0000000000
      5896        51  OSM       H12F            6.7453815616        1.7029352749       -5.4991129559  MEMB      51              0.0000000000
      5897        51  OSM       H12G            5.0076638713        1.6481243048       -6.1222249176  MEMB      51              0.0000000000
      5898        51  OSM       C13F            5.5090700891        2.5255318603       -4.1100505107  MEMB      51              0.0000000000
      5899        51  OSM       H13F            5.3018061236        1.5375981107       -3.6459937912  MEMB      51              0.0000000000
      5900        51  OSM       H13G            4.6641804276        3.2201493842       -3.9151442030  MEMB      51              0.0000000000
      5901        51  OSM       C14F            6.7402680351        3.0859988326       -3.2558050775  MEMB      51              0.0000000000
      5902        51  OSM       H14F            7.2454952589        3.8550671835       -3.8783804749  MEMB      51              0.0000000000
      5903        51  OSM       H14G            7.4723033121        2.2577121190       -3.1445091947  MEMB      51              0.0000000000
      5904        51  OSM       C15F            6.3961269815        3.5882633842       -1.8179119927  MEMB      51              0.0000000000
      5905        51  OSM       H15F            7.3653720999        3.7019153107       -1.2869048133  MEMB      51              0.0000000000
      5906        51  OSM       H15G            5.7521842430        2.8346125160       -1.3162457277  MEMB      51              0.0000000000
      5907        51  OSM       C16F            5.7370848646        4.9657465963       -1.8372730339  MEMB      51              0.0000000000
      5908        51  OSM       H16F            4.8196359500        4.9081218231       -2.4612024245  MEMB      51              0.0000000000
      5909        51  OSM       H16G            6.4752106249        5.6841621466       -2.2536512034  MEMB      51              0.0000000000
      5910        51  OSM       C17F            5.4842090176        5.4612191079       -0.3723730083  MEMB      51              0.0000000000
      5911        51  OSM       H17F            6.2490688671        5.2112160721        0.3936608588  MEMB      51              0.0000000000
      5912        51  OSM       H17G            4.5385008864        5.0252292612        0.0147585313  MEMB      51              0.0000000000
      5913        51  OSM       C18F            5.3516198017        6.9748811663       -0.3758029526  MEMB      51              0.0000000000
      5914        51  OSM       H18F            6.2891163866        7.5001869650       -0.6577168159  MEMB      51              0.0000000000
      5915        51  OSM       H18G            4.9698217921        7.3955317741        0.5789768144  MEMB      51              0.0000000000
      5916        51  OSM       H18H            4.5089934685        7.3392672059       -1.0015229533  MEMB      51              0.0000000000
      5917        52  CHL1      C3             -2.7745929637       -7.1105875729      -17.3399800000  MEMB      52              0.0000000000
      5918        52  CHL1      H3             -1.6695933984       -7.1817994898      -17.2494100000  MEMB      52              0.0000000000
      5919        52  CHL1      O3             -3.0661469363       -7.2919461671      -18.6600200000  MEMB      52              0.0000000000
      5920        52  CHL1      H3'            -3.3597908242       -6.4444471791      -19.0022400000  MEMB      52              0.0000000000
      5921        52  CHL1      C4             -3.6193965829       -8.1726577653      -16.5738900000  MEMB      52              0.0000000000
      5922        52  CHL1      H4A            -4.6606440688       -7.9632091681      -16.8998500000  MEMB      52              0.0000000000
      5923        52  CHL1      H4B            -3.3140304809       -9.1502019539      -17.0045600000  MEMB      52              0.0000000000
      5924        52  CHL1      C5             -3.5031399313       -8.0575524597      -15.0624300000  MEMB      52              0.0000000000
      5925        52  CHL1      C6             -3.2043673350       -9.1794966431      -14.3777200000  MEMB      52              0.0000000000
      5926        52  CHL1      H6             -3.0408731781      -10.1163123783      -14.9305700000  MEMB      52              0.0000000000
      5927        52  CHL1      C7             -2.9910934997       -9.2359674681      -12.8922900000  MEMB      52              0.0000000000
      5928        52  CHL1      H7A            -3.6871610986       -9.9708367052      -12.4342700000  MEMB      52              0.0000000000
      5929        52  CHL1      H7B            -1.9122903207       -9.4664159585      -12.7604400000  MEMB      52              0.0000000000
      5930        52  CHL1      C8             -3.3515742747       -7.8334419641      -12.2184400000  MEMB      52              0.0000000000
      5931        52  CHL1      H8             -4.4562764921       -7.9338387526      -12.1562200000  MEMB      52              0.0000000000
      5932        52  CHL1      C14            -2.7606267068       -7.7522058607      -10.7880700000  MEMB      52              0.0000000000
      5933        52  CHL1      H14            -1.6593127457       -7.6093014232      -10.8199300000  MEMB      52              0.0000000000
      5934        52  CHL1      C15            -3.0922754774       -8.8865430680       -9.9310300000  MEMB      52              0.0000000000
      5935        52  CHL1      H15A           -4.1778746034       -9.1109204756      -10.0049000000  MEMB      52              0.0000000000
      5936        52  CHL1      H15B           -2.4399318431       -9.7771973234      -10.0555700000  MEMB      52              0.0000000000
      5937        52  CHL1      C16            -2.8501436919       -8.3537051863       -8.4940100000  MEMB      52              0.0000000000
      5938        52  CHL1      H16A           -3.7240928434       -8.5023643286       -7.8243600000  MEMB      52              0.0000000000
      5939        52  CHL1      H16B           -2.0152125702       -8.7638366350       -7.8865700000  MEMB      52              0.0000000000
      5940        52  CHL1      C17            -2.6122215078       -6.7902633459       -8.7365800000  MEMB      52              0.0000000000
      5941        52  CHL1      H17            -1.5397566453       -6.6926456671       -9.0097400000  MEMB      52              0.0000000000
      5942        52  CHL1      C13            -3.3121699523       -6.5005426429      -10.0070100000  MEMB      52              0.0000000000
      5943        52  CHL1      C18            -4.8168675563       -6.4551826323       -9.9132300000  MEMB      52              0.0000000000
      5944        52  CHL1      H18A           -5.2292735014       -7.3066963855       -9.3308600000  MEMB      52              0.0000000000
      5945        52  CHL1      H18B           -5.0943499018       -5.4891732357       -9.4397900000  MEMB      52              0.0000000000
      5946        52  CHL1      H18C           -5.3760638969       -6.4062110571      -10.8720000000  MEMB      52              0.0000000000
      5947        52  CHL1      C12            -2.6867318161       -5.3096528410      -10.8011000000  MEMB      52              0.0000000000
      5948        52  CHL1      H12A           -3.0443049141       -4.3810636977      -10.3069600000  MEMB      52              0.0000000000
      5949        52  CHL1      H12B           -1.5762268741       -5.2981487642      -10.7698900000  MEMB      52              0.0000000000
      5950        52  CHL1      C11            -3.0968343694       -5.3292592470      -12.2798700000  MEMB      52              0.0000000000
      5951        52  CHL1      H11A           -4.2014159160       -5.2151892939      -12.3146600000  MEMB      52              0.0000000000
      5952        52  CHL1      H11B           -2.6120844028       -4.4814135376      -12.8094900000  MEMB      52              0.0000000000
      5953        52  CHL1      C9             -2.9319156001       -6.6641043054      -13.0489500000  MEMB      52              0.0000000000
      5954        52  CHL1      H9             -1.8361253552       -6.7866545600      -13.1851900000  MEMB      52              0.0000000000
      5955        52  CHL1      C10            -3.5959720916       -6.6469861704      -14.4926300000  MEMB      52              0.0000000000
      5956        52  CHL1      C19            -5.0759613081       -6.3487533591      -14.4544300000  MEMB      52              0.0000000000
      5957        52  CHL1      H19A           -5.2474533320       -5.2598733193      -14.3157300000  MEMB      52              0.0000000000
      5958        52  CHL1      H19B           -5.5652137968       -6.6302834148      -15.4113500000  MEMB      52              0.0000000000
      5959        52  CHL1      H19C           -5.5418424081       -6.9554252631      -13.6486900000  MEMB      52              0.0000000000
      5960        52  CHL1      C1             -2.9306707466       -5.5391911132      -15.3255100000  MEMB      52              0.0000000000
      5961        52  CHL1      H1A            -3.2120577991       -4.4836031267      -15.1233500000  MEMB      52              0.0000000000
      5962        52  CHL1      H1B            -1.8281680866       -5.5184498677      -15.1899300000  MEMB      52              0.0000000000
      5963        52  CHL1      C2             -3.1097281808       -5.6661925610      -16.8998000000  MEMB      52              0.0000000000
      5964        52  CHL1      H2A            -2.4176556000       -4.9840511764      -17.4383600000  MEMB      52              0.0000000000
      5965        52  CHL1      H2B            -4.1722583746       -5.4086362166      -17.0972800000  MEMB      52              0.0000000000
      5966        52  CHL1      C20            -2.9256999728       -5.9057191835       -7.4167400000  MEMB      52              0.0000000000
      5967        52  CHL1      H20            -4.0322596757       -5.9973579444       -7.3785000000  MEMB      52              0.0000000000
      5968        52  CHL1      C21            -2.6416182473       -4.4612603113       -7.5983700000  MEMB      52              0.0000000000
      5969        52  CHL1      H21A           -1.6470951596       -4.3647918657       -8.0841000000  MEMB      52              0.0000000000
      5970        52  CHL1      H21B           -2.7877398504       -3.9339818821       -6.6314400000  MEMB      52              0.0000000000
      5971        52  CHL1      H21C           -3.3156708825       -4.0197642715       -8.3632700000  MEMB      52              0.0000000000
      5972        52  CHL1      C22            -2.3381712153       -6.4026736860       -6.0469800000  MEMB      52              0.0000000000
      5973        52  CHL1      H22A           -1.9278533639       -7.4351214635       -6.0424300000  MEMB      52              0.0000000000
      5974        52  CHL1      H22B           -1.4277167488       -5.7816229988       -5.9066400000  MEMB      52              0.0000000000
      5975        52  CHL1      C23            -3.3248049899       -6.0794378160       -4.9122100000  MEMB      52              0.0000000000
      5976        52  CHL1      H23A           -3.5686725923       -5.0093094627       -5.0844500000  MEMB      52              0.0000000000
      5977        52  CHL1      H23B           -4.2189979455       -6.7375805625       -4.9519100000  MEMB      52              0.0000000000
      5978        52  CHL1      C24            -2.7547410514       -6.2757523036       -3.5578400000  MEMB      52              0.0000000000
      5979        52  CHL1      H24A           -2.6587810117       -7.3286595708       -3.2165500000  MEMB      52              0.0000000000
      5980        52  CHL1      H24B           -1.7534219703       -5.7979714315       -3.4995600000  MEMB      52              0.0000000000
      5981        52  CHL1      C25            -3.5855211849       -5.5507440330       -2.4333700000  MEMB      52              0.0000000000
      5982        52  CHL1      H25            -3.7902770729       -4.5021011632       -2.7379100000  MEMB      52              0.0000000000
      5983        52  CHL1      C26            -4.8796086301       -6.3725715129       -2.2812300000  MEMB      52              0.0000000000
      5984        52  CHL1      H26A           -5.5702867306       -5.9144498873       -1.5413600000  MEMB      52              0.0000000000
      5985        52  CHL1      H26B           -5.4837857059       -6.5106446166       -3.2033100000  MEMB      52              0.0000000000
      5986        52  CHL1      H26C           -4.7154509563       -7.4153872138       -1.9349500000  MEMB      52              0.0000000000
      5987        52  CHL1      C27            -2.7227648466       -5.6030505152       -1.1947600000  MEMB      52              0.0000000000
      5988        52  CHL1      H27A           -1.6411343585       -5.3668909213       -1.2877000000  MEMB      52              0.0000000000
      5989        52  CHL1      H27B           -3.0614156302       -4.9331310377       -0.3757100000  MEMB      52              0.0000000000
      5990        52  CHL1      H27C           -2.8385405602       -6.5875186617       -0.6930300000  MEMB      52              0.0000000000
      5991        53  CHL1      C3              8.0088824139        0.7494356036      -17.4608800000  MEMB      53              0.0000000000
      5992        53  CHL1      H3              7.9259489231        1.7702880780      -17.8913500000  MEMB      53              0.0000000000
      5993        53  CHL1      O3              8.0712619661       -0.1255170436      -18.5391200000  MEMB      53              0.0000000000
      5994        53  CHL1      H3'             8.7007606137        0.2934860173      -19.1305300000  MEMB      53              0.0000000000
      5995        53  CHL1      C4              9.3182328041        0.5619926104      -16.6561500000  MEMB      53              0.0000000000
      5996        53  CHL1      H4A             9.5478551399       -0.5190337096      -16.5422300000  MEMB      53              0.0000000000
      5997        53  CHL1      H4B            10.1693104749        0.8400850238      -17.3139000000  MEMB      53              0.0000000000
      5998        53  CHL1      C5              9.3492990152        1.2823291739      -15.3827600000  MEMB      53              0.0000000000
      5999        53  CHL1      C6             10.3510478964        2.0857848166      -14.9602400000  MEMB      53              0.0000000000
      6000        53  CHL1      H6             11.2662931152        2.1285722485      -15.5689300000  MEMB      53              0.0000000000
      6001        53  CHL1      C7             10.5639075622        2.5744557070      -13.5741700000  MEMB      53              0.0000000000
      6002        53  CHL1      H7A            11.5803556557        2.4017443375      -13.1602600000  MEMB      53              0.0000000000
      6003        53  CHL1      H7B            10.4050513421        3.6716849332      -13.5021600000  MEMB      53              0.0000000000
      6004        53  CHL1      C8              9.4740673853        1.9938665852      -12.5779400000  MEMB      53              0.0000000000
      6005        53  CHL1      H8              9.7984150837        0.9697527610      -12.2945200000  MEMB      53              0.0000000000
      6006        53  CHL1      C14             9.3169085605        2.7592889413      -11.2927000000  MEMB      53              0.0000000000
      6007        53  CHL1      H14             8.9354998479        3.7556811358      -11.6026100000  MEMB      53              0.0000000000
      6008        53  CHL1      C15            10.6295949002        3.0926011231      -10.4694200000  MEMB      53              0.0000000000
      6009        53  CHL1      H15A           11.2933327381        2.2095729225      -10.3509300000  MEMB      53              0.0000000000
      6010        53  CHL1      H15B           11.2554461726        3.9109690713      -10.8852400000  MEMB      53              0.0000000000
      6011        53  CHL1      C16            10.0956576798        3.4305714526       -9.0542400000  MEMB      53              0.0000000000
      6012        53  CHL1      H16A           10.4222187557        2.7390183265       -8.2483700000  MEMB      53              0.0000000000
      6013        53  CHL1      H16B           10.5038525798        4.4026887908       -8.7039700000  MEMB      53              0.0000000000
      6014        53  CHL1      C17             8.5995441453        3.3759940152       -9.1069300000  MEMB      53              0.0000000000
      6015        53  CHL1      H17             8.2824114270        4.3401921240       -9.5586600000  MEMB      53              0.0000000000
      6016        53  CHL1      C13             8.3225155778        2.3573890000      -10.2163300000  MEMB      53              0.0000000000
      6017        53  CHL1      C18             8.7029739740        0.9549801717       -9.6803400000  MEMB      53              0.0000000000
      6018        53  CHL1      H18A            8.6909508278        0.2693975574      -10.5545000000  MEMB      53              0.0000000000
      6019        53  CHL1      H18B            9.7716995630        1.0081778759       -9.3815000000  MEMB      53              0.0000000000
      6020        53  CHL1      H18C            8.0459342778        0.6767476501       -8.8287500000  MEMB      53              0.0000000000
      6021        53  CHL1      C12             6.9449205337        2.3631265386      -10.8868900000  MEMB      53              0.0000000000
      6022        53  CHL1      H12A            6.2298479451        1.9481761711      -10.1447300000  MEMB      53              0.0000000000
      6023        53  CHL1      H12B            6.6003726621        3.3983981943      -11.0962000000  MEMB      53              0.0000000000
      6024        53  CHL1      C11             6.9623686989        1.6389080564      -12.2501400000  MEMB      53              0.0000000000
      6025        53  CHL1      H11A            6.8176019049        0.5462191234      -12.1109000000  MEMB      53              0.0000000000
      6026        53  CHL1      H11B            6.0119780588        1.9409400481      -12.7398900000  MEMB      53              0.0000000000
      6027        53  CHL1      C9              8.1053341710        1.9635171114      -13.2382900000  MEMB      53              0.0000000000
      6028        53  CHL1      H9              7.9173358506        2.9918299999      -13.6145000000  MEMB      53              0.0000000000
      6029        53  CHL1      C10             8.0867669089        1.0414245273      -14.5041600000  MEMB      53              0.0000000000
      6030        53  CHL1      C19             8.2154476634       -0.4501299187      -13.9287900000  MEMB      53              0.0000000000
      6031        53  CHL1      H19A            9.2714969297       -0.6473412865      -13.6456000000  MEMB      53              0.0000000000
      6032        53  CHL1      H19B            7.4558392384       -0.8187239137      -13.2066700000  MEMB      53              0.0000000000
      6033        53  CHL1      H19C            8.0323304905       -1.1590400652      -14.7643900000  MEMB      53              0.0000000000
      6034        53  CHL1      C1              6.8064755867        1.2421822141      -15.3278900000  MEMB      53              0.0000000000
      6035        53  CHL1      H1A             5.9531456449        0.9680717695      -14.6713800000  MEMB      53              0.0000000000
      6036        53  CHL1      H1B             6.6220240540        2.3245213740      -15.4976900000  MEMB      53              0.0000000000
      6037        53  CHL1      C2              6.7343502246        0.4252196468      -16.6515400000  MEMB      53              0.0000000000
      6038        53  CHL1      H2A             5.7460406202        0.7154447701      -17.0678800000  MEMB      53              0.0000000000
      6039        53  CHL1      H2B             6.6958355100       -0.6605156226      -16.4191300000  MEMB      53              0.0000000000
      6040        53  CHL1      C20             7.9181743630        3.0864372095       -7.7162700000  MEMB      53              0.0000000000
      6041        53  CHL1      H20             8.2174073881        2.0655243523       -7.3961000000  MEMB      53              0.0000000000
      6042        53  CHL1      C21             6.4542581040        3.1529756853       -7.8802400000  MEMB      53              0.0000000000
      6043        53  CHL1      H21A            6.0125340462        2.2181619673       -8.2868600000  MEMB      53              0.0000000000
      6044        53  CHL1      H21B            6.1700425394        3.9686217386       -8.5789800000  MEMB      53              0.0000000000
      6045        53  CHL1      H21C            5.8881862095        3.3697234195       -6.9491600000  MEMB      53              0.0000000000
      6046        53  CHL1      C22             8.4883109682        4.0114058605       -6.5285800000  MEMB      53              0.0000000000
      6047        53  CHL1      H22A            9.5267365840        3.6894006381       -6.2998300000  MEMB      53              0.0000000000
      6048        53  CHL1      H22B            8.3596313170        5.0292327593       -6.9549400000  MEMB      53              0.0000000000
      6049        53  CHL1      C23             7.6526554442        3.9926339753       -5.2672600000  MEMB      53              0.0000000000
      6050        53  CHL1      H23A            6.7957609093        4.6799087042       -5.4337100000  MEMB      53              0.0000000000
      6051        53  CHL1      H23B            7.3003499449        2.9665961929       -5.0276000000  MEMB      53              0.0000000000
      6052        53  CHL1      C24             8.4747224222        4.6304278151       -4.1585500000  MEMB      53              0.0000000000
      6053        53  CHL1      H24A            9.3066995610        3.9165744431       -3.9781300000  MEMB      53              0.0000000000
      6054        53  CHL1      H24B            8.8582465894        5.6150053276       -4.5018200000  MEMB      53              0.0000000000
      6055        53  CHL1      C25             7.6902335486        4.7896812221       -2.8473600000  MEMB      53              0.0000000000
      6056        53  CHL1      H25             7.3324931865        3.7929367421       -2.5114300000  MEMB      53              0.0000000000
      6057        53  CHL1      C26             8.5036293665        5.4200640038       -1.7665400000  MEMB      53              0.0000000000
      6058        53  CHL1      H26A            9.4274719175        4.8258390425       -1.6000100000  MEMB      53              0.0000000000
      6059        53  CHL1      H26B            8.8064156569        6.4774447048       -1.9233200000  MEMB      53              0.0000000000
      6060        53  CHL1      H26C            7.8987853159        5.3673241419       -0.8361100000  MEMB      53              0.0000000000
      6061        53  CHL1      C27             6.4834073040        5.7990370717       -3.0241100000  MEMB      53              0.0000000000
      6062        53  CHL1      H27A            6.1129022793        5.8919014094       -1.9808400000  MEMB      53              0.0000000000
      6063        53  CHL1      H27B            6.7083276873        6.8706346293       -3.2123300000  MEMB      53              0.0000000000
      6064        53  CHL1      H27C            5.6162364586        5.4638445652       -3.6323700000  MEMB      53              0.0000000000
      6065        54  OSM       N               7.0268381950       -6.8715901419      -20.6526534048  MEMB      54              0.0000000000
      6066        54  OSM       C15             7.9617847823       -7.8026494003      -19.9695585723  MEMB      54              0.0000000000
      6067        54  OSM       H15A            8.8241589673       -8.0063989755      -20.5869698583  MEMB      54              0.0000000000
      6068        54  OSM       H15B            7.4670225667       -8.7051832108      -19.6423847042  MEMB      54              0.0000000000
      6069        54  OSM       H15C            8.4075353148       -7.3371058674      -19.1029701379  MEMB      54              0.0000000000
      6070        54  OSM       C14             7.7337147270       -5.6703025150      -21.2331913173  MEMB      54              0.0000000000
      6071        54  OSM       H14A            8.3281698661       -6.0180202746      -22.0651261785  MEMB      54              0.0000000000
      6072        54  OSM       H14B            8.3147511212       -5.1404094330      -20.4929142578  MEMB      54              0.0000000000
      6073        54  OSM       H14C            7.0707330627       -4.9234711487      -21.6444069377  MEMB      54              0.0000000000
      6074        54  OSM       C13             6.4659704921       -7.6475924527      -21.9003904254  MEMB      54              0.0000000000
      6075        54  OSM       H13A            6.0639238778       -8.6094220171      -21.6181804354  MEMB      54              0.0000000000
      6076        54  OSM       H13B            7.3671723202       -7.7900945863      -22.4782557507  MEMB      54              0.0000000000
      6077        54  OSM       H13C            5.7933509344       -7.0726710198      -22.5196223762  MEMB      54              0.0000000000
      6078        54  OSM       C12             5.8834048955       -6.4783235158      -19.7154832507  MEMB      54              0.0000000000
      6079        54  OSM       H12A            6.4388451482       -6.1606747791      -18.8454341125  MEMB      54              0.0000000000
      6080        54  OSM       H12B            5.3175807514       -7.3570006511      -19.4431422898  MEMB      54              0.0000000000
      6081        54  OSM       C11             4.8332184588       -5.4066805248      -20.1589298280  MEMB      54              0.0000000000
      6082        54  OSM       H11A            5.3147368178       -4.4054517816      -20.1603306567  MEMB      54              0.0000000000
      6083        54  OSM       H11B            3.9998058941       -5.3582442526      -19.4258551412  MEMB      54              0.0000000000
      6084        54  OSM       P               3.0656017898       -6.7476100038      -21.5646880226  MEMB      54              0.0000000000
      6085        54  OSM       O13             1.7968738120       -6.0219341098      -21.9267038034  MEMB      54              0.0000000000
      6086        54  OSM       O14             3.4852000821       -7.9617150767      -22.3572665575  MEMB      54              0.0000000000
      6087        54  OSM       O11             2.8764480642       -7.2242621804      -20.0732728303  MEMB      54              0.0000000000
      6088        54  OSM       O12             4.2696710842       -5.6710082954      -21.4478620050  MEMB      54              0.0000000000
      6089        54  OSM       C1S             2.6777733624       -8.6222628431      -19.7997279132  MEMB      54              0.0000000000
      6090        54  OSM       H1S             3.6527692104       -9.0856331165      -20.0623913171  MEMB      54              0.0000000000
      6091        54  OSM       H1T             1.8142189432       -9.1361800548      -20.2735250883  MEMB      54              0.0000000000
      6092        54  OSM       NF              3.1204553018       -9.8885168229      -17.7488612111  MEMB      54              0.0000000000
      6093        54  OSM       HNF             2.5014294252      -10.5467763707      -17.3275411723  MEMB      54              0.0000000000
      6094        54  OSM       C2S             2.5107877748       -8.7059727820      -18.2599839067  MEMB      54              0.0000000000
      6095        54  OSM       H2S             3.0276553703       -7.7816005183      -17.9242683879  MEMB      54              0.0000000000
      6096        54  OSM       C3S             1.0426888170       -8.7102771342      -17.9374060863  MEMB      54              0.0000000000
      6097        54  OSM       H3S             0.6218867254       -9.5983075633      -18.4557191732  MEMB      54              0.0000000000
      6098        54  OSM       O3              0.3910807128       -7.5402809158      -18.4926420585  MEMB      54              0.0000000000
      6099        54  OSM       HO3             1.0848358225       -7.2344040597      -19.0814912059  MEMB      54              0.0000000000
      6100        54  OSM       C4S             0.8127140015       -8.8456721142      -16.4007758139  MEMB      54              0.0000000000
      6101        54  OSM       H4S             0.4588889881       -9.8394604265      -16.0890185310  MEMB      54              0.0000000000
      6102        54  OSM       C5S             0.7357144881       -7.8004470751      -15.5213490421  MEMB      54              0.0000000000
      6103        54  OSM       H5S             0.8019656218       -6.7710512581      -15.9033897996  MEMB      54              0.0000000000
      6104        54  OSM       C6S             0.4524857723       -7.8830761130      -14.0559782029  MEMB      54              0.0000000000
      6105        54  OSM       H6S            -0.4397668562       -7.3484504263      -13.6656171070  MEMB      54              0.0000000000
      6106        54  OSM       H6T             1.2732895123       -7.3651456322      -13.5152840823  MEMB      54              0.0000000000
      6107        54  OSM       C7S             0.2923669822       -9.3179739091      -13.4744337438  MEMB      54              0.0000000000
      6108        54  OSM       H7S             1.1778527342       -9.9849181026      -13.5480664676  MEMB      54              0.0000000000
      6109        54  OSM       H7T            -0.3768699111       -9.8493221949      -14.1844422895  MEMB      54              0.0000000000
      6110        54  OSM       C8S            -0.1685647875       -9.4013126594      -11.9957300832  MEMB      54              0.0000000000
      6111        54  OSM       H8S            -0.0943138137      -10.4849365199      -11.7621337673  MEMB      54              0.0000000000
      6112        54  OSM       H8T            -1.2580430060       -9.2181925754      -11.8781498593  MEMB      54              0.0000000000
      6113        54  OSM       C9S             0.7479340298       -8.5924706618      -10.9691905939  MEMB      54              0.0000000000
      6114        54  OSM       H9S             0.5113685341       -7.5196890752      -11.1350145494  MEMB      54              0.0000000000
      6115        54  OSM       H9T             1.8536315971       -8.6059773347      -11.0767594725  MEMB      54              0.0000000000
      6116        54  OSM       C10S            0.3756613826       -8.7723532424       -9.4754997942  MEMB      54              0.0000000000
      6117        54  OSM       H10S            0.7281949522       -9.7661833331       -9.1257249323  MEMB      54              0.0000000000
      6118        54  OSM       H10T           -0.7304611618       -8.7358448697       -9.3781269000  MEMB      54              0.0000000000
      6119        54  OSM       C11S            1.0379026709       -7.7792856885       -8.4807974007  MEMB      54              0.0000000000
      6120        54  OSM       H11S            0.8584907373       -8.2931268114       -7.5122422177  MEMB      54              0.0000000000
      6121        54  OSM       H11T            0.5055947719       -6.8060296068       -8.5419679719  MEMB      54              0.0000000000
      6122        54  OSM       C12S            2.5594517872       -7.5979263434       -8.5383113121  MEMB      54              0.0000000000
      6123        54  OSM       H12S            2.7992688170       -7.3742098184       -9.5998000554  MEMB      54              0.0000000000
      6124        54  OSM       H12T            3.0055392547       -8.6064654344       -8.4034933366  MEMB      54              0.0000000000
      6125        54  OSM       C13S            3.0707712739       -6.4272056675       -7.5817397446  MEMB      54              0.0000000000
      6126        54  OSM       H13S            2.5837375033       -5.4785123055       -7.8933476818  MEMB      54              0.0000000000
      6127        54  OSM       H13T            4.1383291699       -6.2715984256       -7.8471209081  MEMB      54              0.0000000000
      6128        54  OSM       C14S            2.9173948196       -6.7427687540       -6.0776941021  MEMB      54              0.0000000000
      6129        54  OSM       H14S            3.1608617556       -7.8267532517       -6.0824243744  MEMB      54              0.0000000000
      6130        54  OSM       H14T            1.8537077923       -6.5780267575       -5.8024645273  MEMB      54              0.0000000000
      6131        54  OSM       C15S            3.8277405640       -5.9616915373       -4.9525344694  MEMB      54              0.0000000000
      6132        54  OSM       H15S            4.8922508312       -5.8302012805       -5.2421027629  MEMB      54              0.0000000000
      6133        54  OSM       H15T            3.8139001440       -6.5405343604       -4.0043429588  MEMB      54              0.0000000000
      6134        54  OSM       C16S            3.3719750134       -4.5237000533       -4.7239624884  MEMB      54              0.0000000000
      6135        54  OSM       H16S            2.3340048052       -4.4085819161       -4.3449034521  MEMB      54              0.0000000000
      6136        54  OSM       H16T            3.5303221179       -3.9084043474       -5.6353677997  MEMB      54              0.0000000000
      6137        54  OSM       C17S            4.1938480191       -3.7643080946       -3.7628822496  MEMB      54              0.0000000000
      6138        54  OSM       H17S            3.7943133230       -2.7386435806       -3.9135631880  MEMB      54              0.0000000000
      6139        54  OSM       H17T            5.2271153246       -3.8306374910       -4.1657222968  MEMB      54              0.0000000000
      6140        54  OSM       C18S            4.1066042286       -4.2104412210       -2.2786013451  MEMB      54              0.0000000000
      6141        54  OSM       H18S            4.4545132188       -5.2545483410       -2.1265461852  MEMB      54              0.0000000000
      6142        54  OSM       H18T            3.0509904701       -4.2798345681       -1.9392115020  MEMB      54              0.0000000000
      6143        54  OSM       H18U            4.7623867833       -3.6007385844       -1.6209287205  MEMB      54              0.0000000000
      6144        54  OSM       C1F             4.4609012189      -10.0810282583      -17.6693472605  MEMB      54              0.0000000000
      6145        54  OSM       OF              5.2671975176       -9.3012226275      -18.1378753121  MEMB      54              0.0000000000
      6146        54  OSM       C2F             4.8716704775      -11.3171496965      -16.9463811654  MEMB      54              0.0000000000
      6147        54  OSM       H2F             5.9696062229      -11.4078215776      -17.0900359846  MEMB      54              0.0000000000
      6148        54  OSM       H2G             4.3375475680      -12.2605520701      -17.1893342612  MEMB      54              0.0000000000
      6149        54  OSM       C3F             4.6688607893      -11.0994892198      -15.4306036276  MEMB      54              0.0000000000
      6150        54  OSM       H3F             5.1688206459      -11.7968643179      -14.7248918024  MEMB      54              0.0000000000
      6151        54  OSM       H3G             3.6011805108      -11.1902537818      -15.1371045489  MEMB      54              0.0000000000
      6152        54  OSM       C4F             5.1484837289       -9.7191133931      -14.9412726597  MEMB      54              0.0000000000
      6153        54  OSM       H4F             4.4102376324       -9.0250122620      -15.3968354630  MEMB      54              0.0000000000
      6154        54  OSM       H4G             6.1950806854       -9.4337860912      -15.1811566337  MEMB      54              0.0000000000
      6155        54  OSM       C5F             4.8962209883       -9.4232522924      -13.4360570797  MEMB      54              0.0000000000
      6156        54  OSM       H5F             5.8036306821       -9.7980355551      -12.9159937936  MEMB      54              0.0000000000
      6157        54  OSM       H5G             3.9778286472       -9.9512273287      -13.1012160113  MEMB      54              0.0000000000
      6158        54  OSM       C6F             4.8368394874       -7.9297636970      -13.0828908499  MEMB      54              0.0000000000
      6159        54  OSM       H6F             4.7379440982       -7.8984218901      -11.9767449572  MEMB      54              0.0000000000
      6160        54  OSM       H6G             4.0302393391       -7.4434590527      -13.6721484584  MEMB      54              0.0000000000
      6161        54  OSM       C7F             6.1234651445       -7.0904988982      -13.3793522116  MEMB      54              0.0000000000
      6162        54  OSM       H7F             5.9667074604       -5.9997000656      -13.5204408494  MEMB      54              0.0000000000
      6163        54  OSM       H7G             6.3694015685       -7.3635123828      -14.4278272013  MEMB      54              0.0000000000
      6164        54  OSM       C8F             7.3153700762       -7.3779249945      -12.3736328970  MEMB      54              0.0000000000
      6165        54  OSM       H8F             8.2892136956       -7.0402506183      -12.7882713220  MEMB      54              0.0000000000
      6166        54  OSM       H8G             7.3916182162       -8.4441640362      -12.0709092273  MEMB      54              0.0000000000
      6167        54  OSM       C9F             6.9633708895       -6.4692089195      -11.2221012993  MEMB      54              0.0000000000
      6168        54  OSM       H9F             6.4907292057       -5.5016951632      -11.4468833948  MEMB      54              0.0000000000
      6169        54  OSM       C10F            6.9074809255       -6.7622019705       -9.9026056186  MEMB      54              0.0000000000
      6170        54  OSM       H10F            6.6093995653       -5.9465997813       -9.2273723730  MEMB      54              0.0000000000
      6171        54  OSM       C11F            7.2214412072       -8.0803632233       -9.2273151642  MEMB      54              0.0000000000
      6172        54  OSM       H11F            8.0637715372       -7.9261993435       -8.5194779277  MEMB      54              0.0000000000
      6173        54  OSM       H11G            7.5797719140       -8.8191961672       -9.9756774243  MEMB      54              0.0000000000
      6174        54  OSM       C12F            5.9434286185       -8.8269560391       -8.7122868464  MEMB      54              0.0000000000
      6175        54  OSM       H12F            5.1288295411       -8.8988248235       -9.4643396647  MEMB      54              0.0000000000
      6176        54  OSM       H12G            5.5750637528       -8.1863582410       -7.8826706944  MEMB      54              0.0000000000
      6177        54  OSM       C13F            6.2304349649      -10.3144515974       -8.3227284278  MEMB      54              0.0000000000
      6178        54  OSM       H13F            6.5955886368      -10.9147888163       -9.1832981716  MEMB      54              0.0000000000
      6179        54  OSM       H13G            5.3457155050      -10.8714676506       -7.9467960627  MEMB      54              0.0000000000
      6180        54  OSM       C14F            7.3202489498      -10.5110959402       -7.2833892247  MEMB      54              0.0000000000
      6181        54  OSM       H14F            8.1580547882       -9.7939086664       -7.4177223416  MEMB      54              0.0000000000
      6182        54  OSM       H14G            7.7359382455      -11.5143839500       -7.5177742882  MEMB      54              0.0000000000
      6183        54  OSM       C15F            6.9678653520      -10.4792508600       -5.7512435180  MEMB      54              0.0000000000
      6184        54  OSM       H15F            7.1784623155       -9.4674358114       -5.3435663657  MEMB      54              0.0000000000
      6185        54  OSM       H15G            7.6063087778      -11.1466188622       -5.1337232458  MEMB      54              0.0000000000
      6186        54  OSM       C16F            5.4854026970      -10.5320475697       -5.3340249054  MEMB      54              0.0000000000
      6187        54  OSM       H16F            5.0345459361      -11.5056348315       -5.6224294331  MEMB      54              0.0000000000
      6188        54  OSM       H16G            4.9003288222       -9.6888636113       -5.7595249314  MEMB      54              0.0000000000
      6189        54  OSM       C17F            5.3505785502      -10.5274916437       -3.8316058740  MEMB      54              0.0000000000
      6190        54  OSM       H17F            4.2686919079      -10.5709935939       -3.5827070997  MEMB      54              0.0000000000
      6191        54  OSM       H17G            5.6755690544       -9.5906395089       -3.3305958212  MEMB      54              0.0000000000
      6192        54  OSM       C18F            5.9973569056      -11.6867076252       -3.0845925172  MEMB      54              0.0000000000
      6193        54  OSM       H18F            5.5915346709      -11.6891666720       -2.0503670605  MEMB      54              0.0000000000
      6194        54  OSM       H18G            7.0831024868      -11.4582030409       -3.1417162874  MEMB      54              0.0000000000
      6195        54  OSM       H18H            5.7533391479      -12.5386793503       -3.7546087658  MEMB      54              0.0000000000
      6196        55  SAPC      N              -2.4980361294        7.1436382844      -21.6378378972  MEMB      55              0.0000000000
      6197        55  SAPC      C12            -3.1964411012        6.2545837777      -20.5342986304  MEMB      55              0.0000000000
      6198        55  SAPC      H12A           -2.4085039151        5.6336368159      -20.1343237380  MEMB      55              0.0000000000
      6199        55  SAPC      H12B           -3.8475524958        5.6001763102      -21.0948383238  MEMB      55              0.0000000000
      6200        55  SAPC      C13            -3.5065528418        8.1243525308      -22.2901587700  MEMB      55              0.0000000000
      6201        55  SAPC      H13A           -4.2709972842        7.5082900530      -22.7401496666  MEMB      55              0.0000000000
      6202        55  SAPC      H13B           -3.8896589065        8.8782667175      -21.6184126133  MEMB      55              0.0000000000
      6203        55  SAPC      H13C           -3.0873865797        8.5155433979      -23.2054016160  MEMB      55              0.0000000000
      6204        55  SAPC      C14            -1.4440920281        7.9098611595      -20.9251324427  MEMB      55              0.0000000000
      6205        55  SAPC      H14A           -1.9747609924        8.3340237316      -20.0855632391  MEMB      55              0.0000000000
      6206        55  SAPC      H14B           -0.6656215352        7.2299098517      -20.6120037482  MEMB      55              0.0000000000
      6207        55  SAPC      H14C           -0.9969274274        8.7076766588      -21.4995315461  MEMB      55              0.0000000000
      6208        55  SAPC      C15            -2.0547640579        6.2189898522      -22.6854213254  MEMB      55              0.0000000000
      6209        55  SAPC      H15A           -2.9744477276        5.7038761849      -22.9204529592  MEMB      55              0.0000000000
      6210        55  SAPC      H15B           -1.6355362401        6.6622126027      -23.5766011941  MEMB      55              0.0000000000
      6211        55  SAPC      H15C           -1.2839402412        5.5522103790      -22.3281599306  MEMB      55              0.0000000000
      6212        55  SAPC      C11            -3.8501563983        6.9639526114      -19.2942520365  MEMB      55              0.0000000000
      6213        55  SAPC      H11A           -3.0910794493        7.6166762748      -18.8125103254  MEMB      55              0.0000000000
      6214        55  SAPC      H11B           -4.1596557154        6.1515306248      -18.6025140286  MEMB      55              0.0000000000
      6215        55  SAPC      P              -5.6450407319        8.7375923898      -18.4988571336  MEMB      55              0.0000000000
      6216        55  SAPC      O13            -6.8072655399        9.4870827694      -19.0248634576  MEMB      55              0.0000000000
      6217        55  SAPC      O14            -5.9475871638        7.8856072297      -17.3670739532  MEMB      55              0.0000000000
      6218        55  SAPC      O12            -4.9107145206        7.8811762639      -19.6723539302  MEMB      55              0.0000000000
      6219        55  SAPC      O11            -4.5885341536        9.7700185313      -18.0697504471  MEMB      55              0.0000000000
      6220        55  SAPC      C1             -4.1016790192       10.7964794262      -18.9054298104  MEMB      55              0.0000000000
      6221        55  SAPC      HA             -3.3473758857       10.4077680912      -19.6225429743  MEMB      55              0.0000000000
      6222        55  SAPC      HB             -4.9770688952       11.2419105615      -19.4246646777  MEMB      55              0.0000000000
      6223        55  SAPC      C2             -3.2664335045       11.8376624225      -18.0376273158  MEMB      55              0.0000000000
      6224        55  SAPC      HS             -2.6261734928       12.4686016258      -18.6905465779  MEMB      55              0.0000000000
      6225        55  SAPC      O21            -2.3266741421       11.1018387332      -17.2229414533  MEMB      55              0.0000000000
      6226        55  SAPC      C21            -1.3098391538       10.5288043806      -17.8073931863  MEMB      55              0.0000000000
      6227        55  SAPC      O22            -1.1067583936       10.5435051126      -18.9881938439  MEMB      55              0.0000000000
      6228        55  SAPC      C22            -0.4228622955        9.7986107033      -16.8609236123  MEMB      55              0.0000000000
      6229        55  SAPC      H2R             0.5677095144        9.6415555699      -17.3388590465  MEMB      55              0.0000000000
      6230        55  SAPC      H2S            -0.3622041600       10.3580428255      -15.9029689079  MEMB      55              0.0000000000
      6231        55  SAPC      C3             -4.0667626059       12.8318684968      -17.1305501257  MEMB      55              0.0000000000
      6232        55  SAPC      HX             -4.6983259132       13.3588462867      -17.8773722545  MEMB      55              0.0000000000
      6233        55  SAPC      HY             -3.3439930587       13.4590283572      -16.5661072095  MEMB      55              0.0000000000
      6234        55  SAPC      O31            -4.8846120790       11.9340516621      -16.3171731179  MEMB      55              0.0000000000
      6235        55  SAPC      C31            -5.4945660109       12.4505831460      -15.3474996385  MEMB      55              0.0000000000
      6236        55  SAPC      O32            -5.3073596028       13.5448013339      -14.8143993337  MEMB      55              0.0000000000
      6237        55  SAPC      C32            -6.4998038634       11.3363380382      -14.8564711674  MEMB      55              0.0000000000
      6238        55  SAPC      H2X            -5.8600770106       10.4542912023      -14.6395292304  MEMB      55              0.0000000000
      6239        55  SAPC      H2Y            -7.2442346147       11.1343961831      -15.6560732650  MEMB      55              0.0000000000
      6240        55  SAPC      C23            -0.9251446421        8.3439549380      -16.6617767576  MEMB      55              0.0000000000
      6241        55  SAPC      H3R             0.0596371038        7.8682332604      -16.4662912124  MEMB      55              0.0000000000
      6242        55  SAPC      H3S            -1.3110026366        7.8292696873      -17.5676098918  MEMB      55              0.0000000000
      6243        55  SAPC      C24            -1.6502852588        8.0683011792      -15.2956637948  MEMB      55              0.0000000000
      6244        55  SAPC      H4R            -2.1757428121        7.0899957515      -15.3293351634  MEMB      55              0.0000000000
      6245        55  SAPC      H4S            -2.4517970110        8.8237093528      -15.1498612136  MEMB      55              0.0000000000
      6246        55  SAPC      C25            -0.7200027161        8.1352137272      -14.0834977403  MEMB      55              0.0000000000
      6247        55  SAPC      H5R             0.2554848736        7.6392836949      -14.1951980298  MEMB      55              0.0000000000
      6248        55  SAPC      C26            -0.9470845500        8.9618360977      -13.1083547506  MEMB      55              0.0000000000
      6249        55  SAPC      H6R            -0.2383844553        8.9011706131      -12.2692693517  MEMB      55              0.0000000000
      6250        55  SAPC      C27            -1.9837008670       10.0591765614      -12.7118785976  MEMB      55              0.0000000000
      6251        55  SAPC      H7R            -2.3850903794        9.8138780997      -11.7053819215  MEMB      55              0.0000000000
      6252        55  SAPC      H7S            -2.7587154733        9.8588856265      -13.4823049888  MEMB      55              0.0000000000
      6253        55  SAPC      C28            -1.6921380278       11.4724053954      -12.6950118381  MEMB      55              0.0000000000
      6254        55  SAPC      H8R            -1.7410870375       12.0670259213      -13.6191492501  MEMB      55              0.0000000000
      6255        55  SAPC      C29            -1.3168866795       12.3033387894      -11.7135606039  MEMB      55              0.0000000000
      6256        55  SAPC      H9R            -0.9547427359       13.3146233730      -11.9505311358  MEMB      55              0.0000000000
      6257        55  SAPC      C210           -1.1306905073       11.9423240698      -10.2605115210  MEMB      55              0.0000000000
      6258        55  SAPC      H10R           -2.1214243687       11.5431626110       -9.9548354264  MEMB      55              0.0000000000
      6259        55  SAPC      H10S           -0.9326727096       12.9398062629       -9.8131420755  MEMB      55              0.0000000000
      6260        55  SAPC      C211           -0.1028397235       10.9056736163       -9.9427390433  MEMB      55              0.0000000000
      6261        55  SAPC      H11R            0.9611666895       11.1846413853       -9.9509272902  MEMB      55              0.0000000000
      6262        55  SAPC      C212           -0.3784139072        9.5852616129       -9.5646128027  MEMB      55              0.0000000000
      6263        55  SAPC      H12R            0.4564478233        8.8728920276       -9.4902108627  MEMB      55              0.0000000000
      6264        55  SAPC      C213           -1.6970792209        8.8800501872       -9.2904835690  MEMB      55              0.0000000000
      6265        55  SAPC      H13R           -1.8268640408        8.0598061397      -10.0285057583  MEMB      55              0.0000000000
      6266        55  SAPC      H13S           -2.5419680632        9.5115001649       -9.6394173356  MEMB      55              0.0000000000
      6267        55  SAPC      C214           -2.0192821398        8.3242805696       -7.9336910928  MEMB      55              0.0000000000
      6268        55  SAPC      H14R           -2.2968705323        7.2612529631       -7.9877004248  MEMB      55              0.0000000000
      6269        55  SAPC      C215           -2.0312757380        8.9045520263       -6.6590733892  MEMB      55              0.0000000000
      6270        55  SAPC      H15R           -2.1903093432        8.3296955466       -5.7348173782  MEMB      55              0.0000000000
      6271        55  SAPC      C216           -1.6978098872       10.3387010008       -6.3795120237  MEMB      55              0.0000000000
      6272        55  SAPC      H16R           -2.6140518466       10.7006163372       -5.8658591807  MEMB      55              0.0000000000
      6273        55  SAPC      H16S           -1.4185635297       11.0236769934       -7.2084572513  MEMB      55              0.0000000000
      6274        55  SAPC      C217           -0.5333095408       10.7735778516       -5.4028259181  MEMB      55              0.0000000000
      6275        55  SAPC      H17R           -0.2760092647       11.8518165499       -5.3285347483  MEMB      55              0.0000000000
      6276        55  SAPC      H17S            0.3370634245       10.1934233758       -5.7772488044  MEMB      55              0.0000000000
      6277        55  SAPC      C218           -0.6099026448       10.0480153021       -3.9985381506  MEMB      55              0.0000000000
      6278        55  SAPC      H18R           -0.2559900107        8.9949699671       -4.0112849114  MEMB      55              0.0000000000
      6279        55  SAPC      H18S           -1.6366932829       10.2646541020       -3.6337248606  MEMB      55              0.0000000000
      6280        55  SAPC      C219            0.3664454479       10.7943593650       -3.0314642373  MEMB      55              0.0000000000
      6281        55  SAPC      H19R            0.4228545791       11.9019227945       -3.0981123648  MEMB      55              0.0000000000
      6282        55  SAPC      H19S            1.3604840267       10.3358624777       -3.2211703968  MEMB      55              0.0000000000
      6283        55  SAPC      C220           -0.0017761934       10.4416805746       -1.5593922000  MEMB      55              0.0000000000
      6284        55  SAPC      H20R           -1.0380183593       10.6813439875       -1.2383238817  MEMB      55              0.0000000000
      6285        55  SAPC      H20S            0.6675638832       11.0127714106       -0.8810399504  MEMB      55              0.0000000000
      6286        55  SAPC      H20T            0.2337523278        9.3995389401       -1.2547811383  MEMB      55              0.0000000000
      6287        55  SAPC      C33            -7.2510210197       11.8473657916      -13.5888528570  MEMB      55              0.0000000000
      6288        55  SAPC      H3X            -7.9312642949       12.5043330115      -14.1719336974  MEMB      55              0.0000000000
      6289        55  SAPC      H3Y            -6.6250857792       12.4306204991      -12.8800929896  MEMB      55              0.0000000000
      6290        55  SAPC      C34            -7.9832652146       10.7146441725      -12.9191128947  MEMB      55              0.0000000000
      6291        55  SAPC      H4X            -8.4592835586       10.2520855286      -13.8100487898  MEMB      55              0.0000000000
      6292        55  SAPC      H4Y            -8.7561102121       11.1647591505      -12.2600011627  MEMB      55              0.0000000000
      6293        55  SAPC      C35            -7.1121124954        9.6167192549      -12.3186732003  MEMB      55              0.0000000000
      6294        55  SAPC      H5X            -6.5036581331        9.1395254856      -13.1164141207  MEMB      55              0.0000000000
      6295        55  SAPC      H5Y            -7.6892282867        8.7780881365      -11.8737507024  MEMB      55              0.0000000000
      6296        55  SAPC      C36            -6.3098186859       10.2382751447      -11.1392707500  MEMB      55              0.0000000000
      6297        55  SAPC      H6X            -6.9001016203       10.9863229259      -10.5680343196  MEMB      55              0.0000000000
      6298        55  SAPC      H6Y            -5.5575709515       10.8810345073      -11.6445477755  MEMB      55              0.0000000000
      6299        55  SAPC      C37            -5.5470080160        9.2723215605      -10.2359906005  MEMB      55              0.0000000000
      6300        55  SAPC      H7X            -4.9586579652        9.8254805943       -9.4729837354  MEMB      55              0.0000000000
      6301        55  SAPC      H7Y            -4.7888874800        8.6946847697      -10.8068756068  MEMB      55              0.0000000000
      6302        55  SAPC      C38            -6.4918276213        8.2540046613       -9.4355770096  MEMB      55              0.0000000000
      6303        55  SAPC      H8X            -5.9322125562        7.4535344193       -8.9060495338  MEMB      55              0.0000000000
      6304        55  SAPC      H8Y            -7.0901958996        7.7672048076      -10.2351410928  MEMB      55              0.0000000000
      6305        55  SAPC      C39            -7.4753296152        8.9566895976       -8.4568796892  MEMB      55              0.0000000000
      6306        55  SAPC      H9X            -8.2685597185        9.5021791635       -9.0114502024  MEMB      55              0.0000000000
      6307        55  SAPC      H9Y            -6.9220884293        9.8331259970       -8.0567490390  MEMB      55              0.0000000000
      6308        55  SAPC      C310           -8.1436280338        8.1088603268       -7.3377315302  MEMB      55              0.0000000000
      6309        55  SAPC      H10X           -8.5634806438        7.1174469580       -7.6118560800  MEMB      55              0.0000000000
      6310        55  SAPC      H10Y           -8.9598014452        8.7896510605       -7.0141478272  MEMB      55              0.0000000000
      6311        55  SAPC      C311           -7.1249073044        7.7743476544       -6.2186611960  MEMB      55              0.0000000000
      6312        55  SAPC      H11X           -6.3409465856        8.5603924010       -6.1755321267  MEMB      55              0.0000000000
      6313        55  SAPC      H11Y           -6.5416632944        6.8961424899       -6.5692366398  MEMB      55              0.0000000000
      6314        55  SAPC      C312           -7.8500525653        7.4166259406       -4.8741815643  MEMB      55              0.0000000000
      6315        55  SAPC      H12X           -6.9865928013        7.0563595219       -4.2750441531  MEMB      55              0.0000000000
      6316        55  SAPC      H12Y           -8.4267400676        6.4830703717       -5.0480402886  MEMB      55              0.0000000000
      6317        55  SAPC      C313           -8.6398496079        8.5163316949       -4.1582554333  MEMB      55              0.0000000000
      6318        55  SAPC      H13X           -8.6321531384        8.2289558755       -3.0850944571  MEMB      55              0.0000000000
      6319        55  SAPC      H13Y           -9.6904682895        8.2819617633       -4.4331970732  MEMB      55              0.0000000000
      6320        55  SAPC      C314           -8.1301997604        9.9502646656       -4.4284326374  MEMB      55              0.0000000000
      6321        55  SAPC      H14X           -8.9078093007       10.7104972247       -4.2010773659  MEMB      55              0.0000000000
      6322        55  SAPC      H14Y           -8.0636626818       10.0673401857       -5.5312411341  MEMB      55              0.0000000000
      6323        55  SAPC      C315           -6.7864518052       10.1893804778       -3.7761208217  MEMB      55              0.0000000000
      6324        55  SAPC      H15X           -6.2465770681        9.2203356423       -3.7144090174  MEMB      55              0.0000000000
      6325        55  SAPC      H15Y           -6.8590817801       10.4507490520       -2.6987481910  MEMB      55              0.0000000000
      6326        55  SAPC      C316           -5.9387097795       11.2360049705       -4.5608710306  MEMB      55              0.0000000000
      6327        55  SAPC      H16X           -6.3242260569       12.2672106778       -4.4114950366  MEMB      55              0.0000000000
      6328        55  SAPC      H16Y           -5.9874912633       10.9054582516       -5.6204372906  MEMB      55              0.0000000000
      6329        55  SAPC      C317           -4.4957350648       11.4071806759       -4.0002679081  MEMB      55              0.0000000000
      6330        55  SAPC      H17X           -3.9698129384       12.1474532932       -4.6403645698  MEMB      55              0.0000000000
      6331        55  SAPC      H17Y           -3.9117043445       10.4622098066       -3.9841599305  MEMB      55              0.0000000000
      6332        55  SAPC      C318           -4.4428410676       11.8771858098       -2.5151950991  MEMB      55              0.0000000000
      6333        55  SAPC      H18X           -5.1868824766       12.6560862765       -2.2430969461  MEMB      55              0.0000000000
      6334        55  SAPC      H18Y           -3.4429452849       12.3406368219       -2.3746853329  MEMB      55              0.0000000000
      6335        55  SAPC      H18Z           -4.6092500095       10.9528342284       -1.9217284767  MEMB      55              0.0000000000
      6336        56  OSM       N             -11.4633922845       -5.8454645434      -20.5692569672  MEMB      56              0.0000000000
      6337        56  OSM       C15           -12.6924338651       -5.4515533300      -19.8925438715  MEMB      56              0.0000000000
      6338        56  OSM       H15A          -12.2953955808       -5.1105663548      -18.9478279017  MEMB      56              0.0000000000
      6339        56  OSM       H15B          -13.3838199203       -6.2812401643      -19.8947929646  MEMB      56              0.0000000000
      6340        56  OSM       H15C          -13.1662782690       -4.6303169439      -20.4096920874  MEMB      56              0.0000000000
      6341        56  OSM       C14           -11.9276310997       -6.2506801340      -21.9289503769  MEMB      56              0.0000000000
      6342        56  OSM       H14A          -12.7165495475       -5.5852780908      -22.2471449499  MEMB      56              0.0000000000
      6343        56  OSM       H14B          -12.3008779186       -7.2626924856      -21.8749322885  MEMB      56              0.0000000000
      6344        56  OSM       H14C          -11.0884101884       -6.1184512945      -22.5957515195  MEMB      56              0.0000000000
      6345        56  OSM       C13           -10.5603817271       -4.6410347556      -20.7246869507  MEMB      56              0.0000000000
      6346        56  OSM       H13A          -11.0500135144       -3.8177142619      -21.2234897677  MEMB      56              0.0000000000
      6347        56  OSM       H13B           -9.5980554363       -4.9434726372      -21.1105098881  MEMB      56              0.0000000000
      6348        56  OSM       H13C          -10.3620961199       -4.1993192016      -19.7593009259  MEMB      56              0.0000000000
      6349        56  OSM       C12           -10.6943710542       -6.8997707818      -19.7838288149  MEMB      56              0.0000000000
      6350        56  OSM       H12A          -11.2247401971       -7.8397393244      -19.8234230137  MEMB      56              0.0000000000
      6351        56  OSM       H12B          -10.7447148483       -6.5576404682      -18.7606902801  MEMB      56              0.0000000000
      6352        56  OSM       C11            -9.2866734000       -7.2883681626      -20.3797166462  MEMB      56              0.0000000000
      6353        56  OSM       H11A           -8.7772670230       -7.7572432089      -19.5108195253  MEMB      56              0.0000000000
      6354        56  OSM       H11B           -8.6527020306       -6.4271012695      -20.6807491589  MEMB      56              0.0000000000
      6355        56  OSM       P              -9.8803515343       -9.5023448594      -21.6094446355  MEMB      56              0.0000000000
      6356        56  OSM       O13           -11.3054198466       -9.5631451289      -22.0023115948  MEMB      56              0.0000000000
      6357        56  OSM       O14            -8.9397088474      -10.2546176255      -22.4132973826  MEMB      56              0.0000000000
      6358        56  OSM       O11            -9.7016592624       -9.9658825588      -20.1187311148  MEMB      56              0.0000000000
      6359        56  OSM       O12            -9.3596863324       -8.0669729777      -21.5772316460  MEMB      56              0.0000000000
      6360        56  OSM       C1S           -10.4039843898      -11.0661828165      -19.5344344898  MEMB      56              0.0000000000
      6361        56  OSM       H1S           -10.0441512167      -11.9870168616      -20.0412934536  MEMB      56              0.0000000000
      6362        56  OSM       H1T           -11.4862968168      -11.0795626803      -19.7849176058  MEMB      56              0.0000000000
      6363        56  OSM       NF            -10.8346993221      -10.2819950959      -17.1675123462  MEMB      56              0.0000000000
      6364        56  OSM       HNF           -10.3404153363       -9.6268544350      -16.6014004630  MEMB      56              0.0000000000
      6365        56  OSM       C2S            -9.9755829251      -11.0912233307      -18.0503329747  MEMB      56              0.0000000000
      6366        56  OSM       H2S           -10.1934679128      -12.1173784931      -17.6844740334  MEMB      56              0.0000000000
      6367        56  OSM       C3S            -8.5031112658      -10.6493495454      -17.7596454753  MEMB      56              0.0000000000
      6368        56  OSM       H3S            -8.5280181339       -9.5457172143      -17.8849310467  MEMB      56              0.0000000000
      6369        56  OSM       O3             -7.5352737227      -11.2500860994      -18.5338044402  MEMB      56              0.0000000000
      6370        56  OSM       HO3            -7.9642610862      -11.5186546974      -19.3495500836  MEMB      56              0.0000000000
      6371        56  OSM       C4S            -8.2210345423      -11.1081659922      -16.2802219675  MEMB      56              0.0000000000
      6372        56  OSM       H4S            -8.5611793516      -12.1213017579      -16.0197276228  MEMB      56              0.0000000000
      6373        56  OSM       C5S            -7.9088637910      -10.2715066831      -15.2926715750  MEMB      56              0.0000000000
      6374        56  OSM       H5S            -7.8878342857       -9.1903430284      -15.4942724441  MEMB      56              0.0000000000
      6375        56  OSM       C6S            -7.6904583444      -10.7483439682      -13.8688689862  MEMB      56              0.0000000000
      6376        56  OSM       H6S            -7.6184434568       -9.9138451759      -13.1389733475  MEMB      56              0.0000000000
      6377        56  OSM       H6T            -6.8239614127      -11.4235748588      -13.7028335104  MEMB      56              0.0000000000
      6378        56  OSM       C7S            -8.9655551975      -11.5366574706      -13.2896643782  MEMB      56              0.0000000000
      6379        56  OSM       H7S            -9.0078778434      -12.4724268998      -13.8870467874  MEMB      56              0.0000000000
      6380        56  OSM       H7T            -9.8930547491      -10.9780118847      -13.5386240598  MEMB      56              0.0000000000
      6381        56  OSM       C8S            -8.9125312865      -11.9450836432      -11.7709568917  MEMB      56              0.0000000000
      6382        56  OSM       H8S            -8.5660620364      -11.0452560866      -11.2190600715  MEMB      56              0.0000000000
      6383        56  OSM       H8T            -8.0863223712      -12.6415397718      -11.5127946708  MEMB      56              0.0000000000
      6384        56  OSM       C9S           -10.2473361074      -12.4033327392      -11.2775236596  MEMB      56              0.0000000000
      6385        56  OSM       H9S           -10.6144913755      -13.3534120574      -11.7212205689  MEMB      56              0.0000000000
      6386        56  OSM       H9T           -10.9457698247      -11.5717163087      -11.5118838834  MEMB      56              0.0000000000
      6387        56  OSM       C10S          -10.2323130648      -12.6972839074       -9.7935983203  MEMB      56              0.0000000000
      6388        56  OSM       H10S           -9.6513316167      -13.6097019561       -9.5400726249  MEMB      56              0.0000000000
      6389        56  OSM       H10T          -11.2871414600      -13.0413270668       -9.7362210514  MEMB      56              0.0000000000
      6390        56  OSM       C11S          -10.0000121937      -11.5000555291       -8.8761507304  MEMB      56              0.0000000000
      6391        56  OSM       H11S          -10.5202669555      -10.6056179971       -9.2806721428  MEMB      56              0.0000000000
      6392        56  OSM       H11T           -8.8994462879      -11.3557671928       -8.9236543001  MEMB      56              0.0000000000
      6393        56  OSM       C12S          -10.3393512752      -11.8809907932       -7.3533484693  MEMB      56              0.0000000000
      6394        56  OSM       H12S           -9.7464032833      -12.7939413045       -7.1314141834  MEMB      56              0.0000000000
      6395        56  OSM       H12T          -11.4003867189      -12.1988550540       -7.2668193629  MEMB      56              0.0000000000
      6396        56  OSM       C13S          -10.1692450472      -10.7115804993       -6.3467739975  MEMB      56              0.0000000000
      6397        56  OSM       H13S          -10.7161164726      -10.9668761746       -5.4139947404  MEMB      56              0.0000000000
      6398        56  OSM       H13T          -10.6720096763       -9.8511946751       -6.8379808815  MEMB      56              0.0000000000
      6399        56  OSM       C14S           -8.6587746627      -10.4619992416       -5.9699685225  MEMB      56              0.0000000000
      6400        56  OSM       H14S           -8.0008489353      -10.3615595373       -6.8595560393  MEMB      56              0.0000000000
      6401        56  OSM       H14T           -8.1996593839      -11.2460964504       -5.3306517749  MEMB      56              0.0000000000
      6402        56  OSM       C15S           -8.4378942663       -9.0675758942       -5.2587790346  MEMB      56              0.0000000000
      6403        56  OSM       H15S           -8.5648366116       -8.3331958975       -6.0827279107  MEMB      56              0.0000000000
      6404        56  OSM       H15T           -7.3717734717       -9.0021457418       -4.9531211676  MEMB      56              0.0000000000
      6405        56  OSM       C16S           -9.4283525476       -8.8116279386       -4.1145381212  MEMB      56              0.0000000000
      6406        56  OSM       H16S          -10.4907579392       -8.7994459856       -4.4392957219  MEMB      56              0.0000000000
      6407        56  OSM       H16T           -9.2798335235       -7.7631215516       -3.7785359658  MEMB      56              0.0000000000
      6408        56  OSM       C17S           -9.1977504342       -9.7639215036       -2.9263490959  MEMB      56              0.0000000000
      6409        56  OSM       H17S           -9.0036717310       -9.1082077964       -2.0507369617  MEMB      56              0.0000000000
      6410        56  OSM       H17T           -8.2337273450      -10.2984558843       -3.0651053786  MEMB      56              0.0000000000
      6411        56  OSM       C18S          -10.2681803579      -10.7010599209       -2.5898927460  MEMB      56              0.0000000000
      6412        56  OSM       H18S          -10.4588459809      -11.4014695390       -3.4309600402  MEMB      56              0.0000000000
      6413        56  OSM       H18T          -11.2288338286      -10.1811621821       -2.3869826506  MEMB      56              0.0000000000
      6414        56  OSM       H18U           -9.9660959160      -11.3216673573       -1.7193115239  MEMB      56              0.0000000000
      6415        56  OSM       C1F           -12.2039900771      -10.3300670402      -17.1716216240  MEMB      56              0.0000000000
      6416        56  OSM       OF            -12.8854557311      -11.0053223707      -17.9322717587  MEMB      56              0.0000000000
      6417        56  OSM       C2F           -12.7907231034       -9.4137243566      -16.1669802904  MEMB      56              0.0000000000
      6418        56  OSM       H2F           -13.0283355813       -8.3958212370      -16.5434570842  MEMB      56              0.0000000000
      6419        56  OSM       H2G           -12.0441559482       -9.3246502463      -15.3490414935  MEMB      56              0.0000000000
      6420        56  OSM       C3F           -14.1714607881       -9.8249612392      -15.7397620607  MEMB      56              0.0000000000
      6421        56  OSM       H3F           -14.2738362235      -10.9102534683      -15.5253298286  MEMB      56              0.0000000000
      6422        56  OSM       H3G           -14.8347691669       -9.4879988136      -16.5648678067  MEMB      56              0.0000000000
      6423        56  OSM       C4F           -14.5525247272       -9.0159880631      -14.4899451456  MEMB      56              0.0000000000
      6424        56  OSM       H4F           -15.6602662754       -8.9324750321      -14.4739757706  MEMB      56              0.0000000000
      6425        56  OSM       H4G           -14.1908978886       -7.9800071413      -14.6639861323  MEMB      56              0.0000000000
      6426        56  OSM       C5F           -14.1307328987       -9.5653194891      -13.1075003407  MEMB      56              0.0000000000
      6427        56  OSM       H5F           -13.0540817257       -9.8351293840      -13.0590650546  MEMB      56              0.0000000000
      6428        56  OSM       H5G           -14.6925554936      -10.5089155378      -12.9392663403  MEMB      56              0.0000000000
      6429        56  OSM       C6F           -14.4397807235       -8.6450326021      -11.9443095037  MEMB      56              0.0000000000
      6430        56  OSM       H6F           -15.5287040210       -8.4252266913      -11.9284285411  MEMB      56              0.0000000000
      6431        56  OSM       H6G           -14.0549603391       -7.6287150057      -12.1752482237  MEMB      56              0.0000000000
      6432        56  OSM       C7F           -14.1599608193       -9.1473995484      -10.4834397769  MEMB      56              0.0000000000
      6433        56  OSM       H7F           -13.0788303729       -9.3281723289      -10.3023348059  MEMB      56              0.0000000000
      6434        56  OSM       H7G           -14.7528748438      -10.0857750259      -10.4362644748  MEMB      56              0.0000000000
      6435        56  OSM       C8F           -14.7657662327       -8.2547206010       -9.4116595601  MEMB      56              0.0000000000
      6436        56  OSM       H8F           -14.5597329993       -8.6557010568       -8.3962350537  MEMB      56              0.0000000000
      6437        56  OSM       H8G           -15.8316793746       -8.3491110769       -9.7103909129  MEMB      56              0.0000000000
      6438        56  OSM       C9F           -14.4980238457       -6.8047563757       -9.6446653938  MEMB      56              0.0000000000
      6439        56  OSM       H9F           -15.3013170058       -6.1590996982      -10.0291758275  MEMB      56              0.0000000000
      6440        56  OSM       C10F          -13.3129533462       -6.2057131697       -9.3826413959  MEMB      56              0.0000000000
      6441        56  OSM       H10F          -13.3415397792       -5.1109481208       -9.4859498569  MEMB      56              0.0000000000
      6442        56  OSM       C11F          -12.0308169824       -6.7521981602       -8.7864809669  MEMB      56              0.0000000000
      6443        56  OSM       H11F          -11.1804625899       -6.0475542113       -8.9077043179  MEMB      56              0.0000000000
      6444        56  OSM       H11G          -11.7375470905       -7.6808095355       -9.3212660795  MEMB      56              0.0000000000
      6445        56  OSM       C12F          -12.1181834416       -7.1495918329       -7.2908929405  MEMB      56              0.0000000000
      6446        56  OSM       H12F          -11.1112080800       -7.5139966391       -6.9950373507  MEMB      56              0.0000000000
      6447        56  OSM       H12G          -12.9275668734       -7.9060948390       -7.2076911943  MEMB      56              0.0000000000
      6448        56  OSM       C13F          -12.4220066349       -5.8752566112       -6.3928063207  MEMB      56              0.0000000000
      6449        56  OSM       H13F          -13.2896693940       -5.2701518527       -6.7324096158  MEMB      56              0.0000000000
      6450        56  OSM       H13G          -11.5276704225       -5.2191186756       -6.3298238735  MEMB      56              0.0000000000
      6451        56  OSM       C14F          -12.7573392146       -6.3089321202       -4.9302797926  MEMB      56              0.0000000000
      6452        56  OSM       H14F          -12.1336614446       -7.2109527162       -4.7522185717  MEMB      56              0.0000000000
      6453        56  OSM       H14G          -13.8295326525       -6.5987409275       -4.9032106382  MEMB      56              0.0000000000
      6454        56  OSM       C15F          -12.5078881332       -5.2681636130       -3.8228423019  MEMB      56              0.0000000000
      6455        56  OSM       H15F          -12.8862822252       -5.7529970945       -2.8975989675  MEMB      56              0.0000000000
      6456        56  OSM       H15G          -13.0684085002       -4.3404828496       -4.0668632192  MEMB      56              0.0000000000
      6457        56  OSM       C16F          -11.0755266300       -4.6874344112       -3.7139060978  MEMB      56              0.0000000000
      6458        56  OSM       H16F          -10.9974185715       -3.8881676918       -4.4816250212  MEMB      56              0.0000000000
      6459        56  OSM       H16G          -10.4438267145       -5.5140382315       -4.1037814396  MEMB      56              0.0000000000
      6460        56  OSM       C17F          -10.5052317432       -4.0930250691       -2.3894626112  MEMB      56              0.0000000000
      6461        56  OSM       H17F           -9.3945109470       -4.1095166199       -2.4081238576  MEMB      56              0.0000000000
      6462        56  OSM       H17G          -10.8242694716       -4.8668869859       -1.6589320383  MEMB      56              0.0000000000
      6463        56  OSM       C18F          -11.0797633292       -2.7907568154       -1.9702851828  MEMB      56              0.0000000000
      6464        56  OSM       H18F          -10.5998296413       -2.4490615247       -1.0283580528  MEMB      56              0.0000000000
      6465        56  OSM       H18G          -12.1561187961       -2.7561178665       -1.6971930446  MEMB      56              0.0000000000
      6466        56  OSM       H18H          -10.8908038085       -1.9943635281       -2.7215334399  MEMB      56              0.0000000000
      6467        57  SLPC      N              10.1657113410        8.1156939544      -18.6746624564  MEMB      57              0.0000000000
      6468        57  SLPC      C13             9.3067860707        8.0695252236      -17.4583738100  MEMB      57              0.0000000000
      6469        57  SLPC      H13A           10.0165918144        7.9238042038      -16.6575359728  MEMB      57              0.0000000000
      6470        57  SLPC      H13B            8.7685467065        8.9893728339      -17.2835061603  MEMB      57              0.0000000000
      6471        57  SLPC      H13C            8.5117216960        7.3394346835      -17.4935948774  MEMB      57              0.0000000000
      6472        57  SLPC      C14            11.1706758809        9.1805213111      -18.5996855339  MEMB      57              0.0000000000
      6473        57  SLPC      H14A           10.6667687294       10.1260219424      -18.7357226425  MEMB      57              0.0000000000
      6474        57  SLPC      H14B           11.6511949179        9.1877157672      -17.6324990631  MEMB      57              0.0000000000
      6475        57  SLPC      H14C           11.8428551144        9.0652348553      -19.4371126451  MEMB      57              0.0000000000
      6476        57  SLPC      C15             9.2676983601        8.4588259084      -19.8196317520  MEMB      57              0.0000000000
      6477        57  SLPC      H15A            9.8708082200        8.2205309259      -20.6832717660  MEMB      57              0.0000000000
      6478        57  SLPC      H15B            8.4498598552        7.7579608055      -19.8991807096  MEMB      57              0.0000000000
      6479        57  SLPC      H15C            9.0557388177        9.5178210963      -19.8180631459  MEMB      57              0.0000000000
      6480        57  SLPC      C12            10.8989512431        6.7617308730      -18.8346474881  MEMB      57              0.0000000000
      6481        57  SLPC      H12A           11.3902942019        6.7536829272      -19.7963737019  MEMB      57              0.0000000000
      6482        57  SLPC      H12B           10.0979716252        6.0390480984      -18.8852561819  MEMB      57              0.0000000000
      6483        57  SLPC      C11            11.9462887281        6.2674903819      -17.7737874832  MEMB      57              0.0000000000
      6484        57  SLPC      H11A           12.7870812987        6.9882743522      -17.8624399849  MEMB      57              0.0000000000
      6485        57  SLPC      H11B           12.2779391053        5.2580341200      -18.0983287054  MEMB      57              0.0000000000
      6486        57  SLPC      P              12.0422082266        6.2093100414      -15.1146529580  MEMB      57              0.0000000000
      6487        57  SLPC      O13            11.4893046005        5.1419679255      -14.2467128820  MEMB      57              0.0000000000
      6488        57  SLPC      O14            13.4885307884        6.2161607440      -15.2742297997  MEMB      57              0.0000000000
      6489        57  SLPC      O12            11.2195913644        6.1599427156      -16.5424687788  MEMB      57              0.0000000000
      6490        57  SLPC      O11            11.5473366804        7.5426617254      -14.6611470528  MEMB      57              0.0000000000
      6491        57  SLPC      C1             12.2503195136        8.7482985101      -14.6665215812  MEMB      57              0.0000000000
      6492        57  SLPC      HA             12.4805993215        9.0698723813      -15.7047327482  MEMB      57              0.0000000000
      6493        57  SLPC      HB             11.5942227326        9.5463976369      -14.2579925811  MEMB      57              0.0000000000
      6494        57  SLPC      C2             13.4308741496        8.8703436748      -13.6890681255  MEMB      57              0.0000000000
      6495        57  SLPC      HS             14.3792221079        8.3350849667      -13.9091936036  MEMB      57              0.0000000000
      6496        57  SLPC      O21            13.0434530515        8.1983182798      -12.4424191981  MEMB      57              0.0000000000
      6497        57  SLPC      C21            13.9565792928        7.9354479431      -11.5293557838  MEMB      57              0.0000000000
      6498        57  SLPC      O22            15.1435838675        8.2110868555      -11.6637161621  MEMB      57              0.0000000000
      6499        57  SLPC      C22            13.3434286505        7.1172239118      -10.3970821190  MEMB      57              0.0000000000
      6500        57  SLPC      H2R            12.3107922371        7.4062533224      -10.1064880239  MEMB      57              0.0000000000
      6501        57  SLPC      H2S            13.2746869718        6.0817021343      -10.7936805913  MEMB      57              0.0000000000
      6502        57  SLPC      C3             13.8537704189       10.3516209504      -13.2396697218  MEMB      57              0.0000000000
      6503        57  SLPC      HX             14.0614123114       10.9173674256      -14.1730169607  MEMB      57              0.0000000000
      6504        57  SLPC      HY             14.7627094399       10.3441733409      -12.6008466060  MEMB      57              0.0000000000
      6505        57  SLPC      O31            12.7151984506       10.8889170380      -12.5847109517  MEMB      57              0.0000000000
      6506        57  SLPC      C31            12.7048798924       12.2113188651      -12.6708423956  MEMB      57              0.0000000000
      6507        57  SLPC      O32            13.6248058963       12.9084043173      -13.0718930621  MEMB      57              0.0000000000
      6508        57  SLPC      C32            11.4643088896       12.6975610636      -11.8532966240  MEMB      57              0.0000000000
      6509        57  SLPC      H2X            10.7990388266       11.8486458397      -11.5866883473  MEMB      57              0.0000000000
      6510        57  SLPC      H2Y            11.0043302939       13.4395100231      -12.5405026421  MEMB      57              0.0000000000
      6511        57  SLPC      C23            14.2807267076        7.1416102309       -9.1427158055  MEMB      57              0.0000000000
      6512        57  SLPC      H3R            14.2144053100        8.1564987617       -8.6955875155  MEMB      57              0.0000000000
      6513        57  SLPC      H3S            15.3184592349        6.8141114414       -9.3667178056  MEMB      57              0.0000000000
      6514        57  SLPC      C24            13.7916002019        6.2339517335       -7.9572630951  MEMB      57              0.0000000000
      6515        57  SLPC      H4R            14.2048982550        6.6803971136       -7.0276434673  MEMB      57              0.0000000000
      6516        57  SLPC      H4S            14.1872142713        5.2137686768       -8.1497117642  MEMB      57              0.0000000000
      6517        57  SLPC      C25            12.2644402554        6.1644453767       -7.6684365888  MEMB      57              0.0000000000
      6518        57  SLPC      H5R            11.6547352316        5.9552956697       -8.5733327876  MEMB      57              0.0000000000
      6519        57  SLPC      H5S            11.8979528423        7.1312766275       -7.2619322783  MEMB      57              0.0000000000
      6520        57  SLPC      C26            11.9071918642        4.9176420633       -6.7458299953  MEMB      57              0.0000000000
      6521        57  SLPC      H6R            12.5215914537        5.0732025013       -5.8333418996  MEMB      57              0.0000000000
      6522        57  SLPC      H6S            12.1682344156        3.9934437351       -7.3044313673  MEMB      57              0.0000000000
      6523        57  SLPC      C27            10.4355657415        4.8372711030       -6.5190694194  MEMB      57              0.0000000000
      6524        57  SLPC      H7R            10.1587306535        3.8987390558       -5.9929124534  MEMB      57              0.0000000000
      6525        57  SLPC      H7S             9.9341858090        5.0124662458       -7.4949008711  MEMB      57              0.0000000000
      6526        57  SLPC      C28             9.9117288912        5.9172189858       -5.5520815861  MEMB      57              0.0000000000
      6527        57  SLPC      H8R            10.4188111670        6.8195914659       -5.9557058273  MEMB      57              0.0000000000
      6528        57  SLPC      H8S            10.4482960532        5.7753117946       -4.5896475351  MEMB      57              0.0000000000
      6529        57  SLPC      C29             8.4175850488        6.0790495902       -5.3536250350  MEMB      57              0.0000000000
      6530        57  SLPC      H9R             8.1056663250        5.6204820637       -4.4036658460  MEMB      57              0.0000000000
      6531        57  SLPC      C210            7.5313727771        6.7600797637       -6.1374578757  MEMB      57              0.0000000000
      6532        57  SLPC      H10R            6.5470829193        6.8316021649       -5.6515988274  MEMB      57              0.0000000000
      6533        57  SLPC      C211            7.8437470594        7.4944974193       -7.3839108711  MEMB      57              0.0000000000
      6534        57  SLPC      H11R            7.5181542776        6.7068193888       -8.0965644132  MEMB      57              0.0000000000
      6535        57  SLPC      H11S            8.9038223406        7.8096793881       -7.4898422181  MEMB      57              0.0000000000
      6536        57  SLPC      C212            6.9083582782        8.6737789128       -7.6409706403  MEMB      57              0.0000000000
      6537        57  SLPC      H12R            5.9154527763        8.4149495272       -8.0373869005  MEMB      57              0.0000000000
      6538        57  SLPC      C213            7.1544311868        9.9960075656       -7.3404754784  MEMB      57              0.0000000000
      6539        57  SLPC      H13R            6.4171616843       10.7147808451       -7.7275134029  MEMB      57              0.0000000000
      6540        57  SLPC      C214            8.3272800253       10.6495097095       -6.7267993066  MEMB      57              0.0000000000
      6541        57  SLPC      H14R            8.4150356437       11.7439018714       -6.8968753774  MEMB      57              0.0000000000
      6542        57  SLPC      H14S            9.2156227708       10.1470363186       -7.1657624091  MEMB      57              0.0000000000
      6543        57  SLPC      C215            8.3301856575       10.5910047566       -5.1631609128  MEMB      57              0.0000000000
      6544        57  SLPC      H15R            7.8151333980        9.6427734317       -4.8987755912  MEMB      57              0.0000000000
      6545        57  SLPC      H15S            7.7232937687       11.3716386961       -4.6565903450  MEMB      57              0.0000000000
      6546        57  SLPC      C216            9.7300757195       10.5368742941       -4.4447958694  MEMB      57              0.0000000000
      6547        57  SLPC      H16R           10.3468574879       11.4589763625       -4.5050373191  MEMB      57              0.0000000000
      6548        57  SLPC      H16S           10.2760844318        9.7336700386       -4.9842947603  MEMB      57              0.0000000000
      6549        57  SLPC      C217            9.6332976120       10.1904597677       -2.9151316809  MEMB      57              0.0000000000
      6550        57  SLPC      H17R            9.2763888558       11.0822062081       -2.3568080977  MEMB      57              0.0000000000
      6551        57  SLPC      H17S           10.6287673707        9.9230029831       -2.5006107862  MEMB      57              0.0000000000
      6552        57  SLPC      C218            8.6367971312        9.1314893247       -2.4945205797  MEMB      57              0.0000000000
      6553        57  SLPC      H18R            8.9699484040        8.1656112224       -2.9308814464  MEMB      57              0.0000000000
      6554        57  SLPC      H18S            7.5515863690        9.3187723718       -2.6413680828  MEMB      57              0.0000000000
      6555        57  SLPC      H18T            8.7464664498        9.1031724699       -1.3893097278  MEMB      57              0.0000000000
      6556        57  SLPC      C33            11.7565055681       13.4393067145      -10.4991943158  MEMB      57              0.0000000000
      6557        57  SLPC      H3X            10.7938218818       13.9506830596      -10.2845890707  MEMB      57              0.0000000000
      6558        57  SLPC      H3Y            12.4420826019       14.3103866825      -10.5735271124  MEMB      57              0.0000000000
      6559        57  SLPC      C34            12.2350232383       12.5004134160       -9.3252063536  MEMB      57              0.0000000000
      6560        57  SLPC      H4X            13.1443212757       11.9775708450       -9.6914484795  MEMB      57              0.0000000000
      6561        57  SLPC      H4Y            11.5230121612       11.6532232300       -9.2270732661  MEMB      57              0.0000000000
      6562        57  SLPC      C35            12.4073879115       13.1554155427       -7.9656572920  MEMB      57              0.0000000000
      6563        57  SLPC      H5X            11.4839202529       13.7645755711       -7.8634205266  MEMB      57              0.0000000000
      6564        57  SLPC      H5Y            13.2068083953       13.9259883989       -8.0039369617  MEMB      57              0.0000000000
      6565        57  SLPC      C36            12.5741195192       12.1769712409       -6.8266594755  MEMB      57              0.0000000000
      6566        57  SLPC      H6X            12.1237850662       11.1870884170       -7.0539296177  MEMB      57              0.0000000000
      6567        57  SLPC      H6Y            12.0495205338       12.4998234583       -5.9020603031  MEMB      57              0.0000000000
      6568        57  SLPC      C37            14.0435739410       11.8279865599       -6.5109289913  MEMB      57              0.0000000000
      6569        57  SLPC      H7X            14.6113360181       12.7159015179       -6.1593980902  MEMB      57              0.0000000000
      6570        57  SLPC      H7Y            14.5798007299       11.3514645225       -7.3592855540  MEMB      57              0.0000000000
      6571        57  SLPC      C38            14.3356723804       10.8129928620       -5.4040582443  MEMB      57              0.0000000000
      6572        57  SLPC      H8X            14.0249943807       11.3634930808       -4.4904122239  MEMB      57              0.0000000000
      6573        57  SLPC      H8Y            15.3958001071       10.4868363436       -5.4678712778  MEMB      57              0.0000000000
      6574        57  SLPC      C39            13.4271026896        9.5758327632       -5.2357710570  MEMB      57              0.0000000000
      6575        57  SLPC      H9X            13.4236180139        8.9834920942       -6.1756867879  MEMB      57              0.0000000000
      6576        57  SLPC      H9Y            12.3847852215        9.9131071672       -5.0509976039  MEMB      57              0.0000000000
      6577        57  SLPC      C310           13.9935228364        8.7514839457       -4.1084111045  MEMB      57              0.0000000000
      6578        57  SLPC      H10X           13.8471123924        9.2400131871       -3.1213832986  MEMB      57              0.0000000000
      6579        57  SLPC      H10Y           15.0431416906        8.6132503770       -4.4453275180  MEMB      57              0.0000000000
      6580        57  SLPC      C311           13.2723070371        7.4642508128       -4.1667347031  MEMB      57              0.0000000000
      6581        57  SLPC      H11X           13.3247739335        7.1426577928       -5.2288772526  MEMB      57              0.0000000000
      6582        57  SLPC      H11Y           12.1719209010        7.6153626554       -4.1414991062  MEMB      57              0.0000000000
      6583        57  SLPC      C312           13.9221373759        6.3012577457       -3.4561526338  MEMB      57              0.0000000000
      6584        57  SLPC      H12X           14.9807401044        6.3689040002       -3.7864638370  MEMB      57              0.0000000000
      6585        57  SLPC      H12Y           13.4906550525        5.3488831562       -3.8318214520  MEMB      57              0.0000000000
      6586        57  SLPC      C313           13.9666926845        6.3168596323       -1.9342300799  MEMB      57              0.0000000000
      6587        57  SLPC      H13X           14.8607652002        6.9309150486       -1.6936231867  MEMB      57              0.0000000000
      6588        57  SLPC      H13Y           14.0243245407        5.3191660675       -1.4488358392  MEMB      57              0.0000000000
      6589        57  SLPC      C314           12.8531336690        7.1220158351       -1.2496855717  MEMB      57              0.0000000000
      6590        57  SLPC      H14X           11.8675266260        6.7670064897       -1.6196427653  MEMB      57              0.0000000000
      6591        57  SLPC      H14Y           12.9086093350        8.1656699046       -1.6265531521  MEMB      57              0.0000000000
      6592        57  SLPC      C315           13.0190533383        7.0676735942        0.3313971452  MEMB      57              0.0000000000
      6593        57  SLPC      H15X           14.0789542640        7.2611601361        0.6024942433  MEMB      57              0.0000000000
      6594        57  SLPC      H15Y           12.8850109759        6.0006051204        0.6101784611  MEMB      57              0.0000000000
      6595        57  SLPC      C316           11.9646207584        7.9106936683        0.9823969782  MEMB      57              0.0000000000
      6596        57  SLPC      H16X           10.9557658506        7.4860197458        0.7921742068  MEMB      57              0.0000000000
      6597        57  SLPC      H16Y           12.0577191970        8.9694622807        0.6588803602  MEMB      57              0.0000000000
      6598        57  SLPC      C317           12.1688580117        7.6700877782        2.5181507092  MEMB      57              0.0000000000
      6599        57  SLPC      H17X           11.2248001138        8.0547911247        2.9598286969  MEMB      57              0.0000000000
      6600        57  SLPC      H17Y           12.9852701297        8.3159136131        2.9063522264  MEMB      57              0.0000000000
      6601        57  SLPC      C318           12.3254287733        6.2086249654        2.9728459310  MEMB      57              0.0000000000
      6602        57  SLPC      H18X           12.2514386318        6.4235341512        4.0603487129  MEMB      57              0.0000000000
      6603        57  SLPC      H18Y           13.2744565787        5.6611626124        2.7885856577  MEMB      57              0.0000000000
      6604        57  SLPC      H18Z           11.5089896529        5.4757907446        2.7976242094  MEMB      57              0.0000000000
      6605        58  SAPE      N             -13.6217439419        6.8024377224      -17.8169301602  MEMB      58              0.0000000000
      6606        58  SAPE      HN1           -14.3867688161        7.2334458209      -18.3742172506  MEMB      58              0.0000000000
      6607        58  SAPE      HN2           -13.4278315990        5.9898026127      -18.4363025488  MEMB      58              0.0000000000
      6608        58  SAPE      HN3           -13.7955236287        6.3816968565      -16.8818485146  MEMB      58              0.0000000000
      6609        58  SAPE      C12           -12.4760945838        7.6900552054      -17.9907206930  MEMB      58              0.0000000000
      6610        58  SAPE      H12A          -11.5021174488        7.2093280563      -17.7570735187  MEMB      58              0.0000000000
      6611        58  SAPE      H12B          -12.5641210377        8.5606493389      -17.3061492144  MEMB      58              0.0000000000
      6612        58  SAPE      C11           -12.3390402685        8.1285625704      -19.4868411214  MEMB      58              0.0000000000
      6613        58  SAPE      H11A          -11.5198588564        8.8485692800      -19.6986268427  MEMB      58              0.0000000000
      6614        58  SAPE      H11B          -13.2627676758        8.6942245784      -19.7339748568  MEMB      58              0.0000000000
      6615        58  SAPE      P             -10.8271294840        6.5813716383      -20.9833669819  MEMB      58              0.0000000000
      6616        58  SAPE      O13           -10.5502312238        5.1607845286      -20.6870481317  MEMB      58              0.0000000000
      6617        58  SAPE      O14           -10.6569745197        6.9914863308      -22.4196393619  MEMB      58              0.0000000000
      6618        58  SAPE      O12           -12.2597106981        7.0527119330      -20.4519351629  MEMB      58              0.0000000000
      6619        58  SAPE      O11            -9.8344976985        7.5124747928      -20.1635184067  MEMB      58              0.0000000000
      6620        58  SAPE      C1             -8.5725591971        6.9861809335      -19.7174839234  MEMB      58              0.0000000000
      6621        58  SAPE      HA             -8.1706680036        6.1778281721      -20.3650719399  MEMB      58              0.0000000000
      6622        58  SAPE      HB             -7.8770910222        7.8425011202      -19.8492457898  MEMB      58              0.0000000000
      6623        58  SAPE      C2             -8.4945859130        6.7133720468      -18.2018246707  MEMB      58              0.0000000000
      6624        58  SAPE      HS             -7.5436076366        6.1667756216      -18.0252080390  MEMB      58              0.0000000000
      6625        58  SAPE      O21            -9.7066231632        5.9716262936      -17.6924916696  MEMB      58              0.0000000000
      6626        58  SAPE      C21            -9.6640493340        4.6926996124      -17.8360948008  MEMB      58              0.0000000000
      6627        58  SAPE      O22            -8.7790735104        4.0119075942      -18.3515851479  MEMB      58              0.0000000000
      6628        58  SAPE      C22           -11.0759593145        4.0568539766      -17.3512555109  MEMB      58              0.0000000000
      6629        58  SAPE      H2R           -11.7586218012        4.8166598660      -16.9142337653  MEMB      58              0.0000000000
      6630        58  SAPE      H2S           -11.6586241509        3.6836590334      -18.2204783682  MEMB      58              0.0000000000
      6631        58  SAPE      C3             -8.3587049333        7.9796259629      -17.4179763414  MEMB      58              0.0000000000
      6632        58  SAPE      HX             -9.2491266025        8.5579249160      -17.7451469972  MEMB      58              0.0000000000
      6633        58  SAPE      HY             -7.4133815544        8.5445684615      -17.5646885099  MEMB      58              0.0000000000
      6634        58  SAPE      O31            -8.6397350298        7.7734169822      -15.9451715466  MEMB      58              0.0000000000
      6635        58  SAPE      C31            -7.5672982278        7.3661236368      -15.2875133828  MEMB      58              0.0000000000
      6636        58  SAPE      O32            -6.4818206260        7.1614020536      -15.7365764620  MEMB      58              0.0000000000
      6637        58  SAPE      C32            -7.9760872187        7.0089784342      -13.8257970884  MEMB      58              0.0000000000
      6638        58  SAPE      H2X            -7.1664556346        6.3299049558      -13.4827563010  MEMB      58              0.0000000000
      6639        58  SAPE      H2Y            -8.9428524304        6.4736442169      -13.9402659720  MEMB      58              0.0000000000
      6640        58  SAPE      C23           -10.7860679762        2.8458937331      -16.4957484176  MEMB      58              0.0000000000
      6641        58  SAPE      H3R           -10.1925988847        2.1999261113      -17.1775410674  MEMB      58              0.0000000000
      6642        58  SAPE      H3S           -11.7767550782        2.5031937171      -16.1277581002  MEMB      58              0.0000000000
      6643        58  SAPE      C24            -9.9773112987        3.2746228446      -15.2037475586  MEMB      58              0.0000000000
      6644        58  SAPE      H4R           -10.4801275945        4.2240782459      -14.9208492715  MEMB      58              0.0000000000
      6645        58  SAPE      H4S            -8.9425576335        3.5630646025      -15.4873093903  MEMB      58              0.0000000000
      6646        58  SAPE      C25            -9.8808419243        2.4874506321      -13.9062579717  MEMB      58              0.0000000000
      6647        58  SAPE      H5R            -9.5433371578        1.4611469308      -14.1131183663  MEMB      58              0.0000000000
      6648        58  SAPE      C26            -9.9333936980        2.8528224195      -12.5839535799  MEMB      58              0.0000000000
      6649        58  SAPE      H6R            -9.8901071633        1.9835184744      -11.9113196835  MEMB      58              0.0000000000
      6650        58  SAPE      C27           -10.1431696097        4.2196272367      -12.0078753280  MEMB      58              0.0000000000
      6651        58  SAPE      H7R           -10.5552304983        4.9021707769      -12.7816075454  MEMB      58              0.0000000000
      6652        58  SAPE      H7S            -9.1534426624        4.6828318623      -11.8073685692  MEMB      58              0.0000000000
      6653        58  SAPE      C28           -10.8886014433        4.2289073896      -10.6683500954  MEMB      58              0.0000000000
      6654        58  SAPE      H8R           -10.9854029325        3.2060038378      -10.2755427750  MEMB      58              0.0000000000
      6655        58  SAPE      C29           -11.2645466415        5.2620435679       -9.9433858057  MEMB      58              0.0000000000
      6656        58  SAPE      H9R           -11.8284343368        5.1541975255       -9.0050897128  MEMB      58              0.0000000000
      6657        58  SAPE      C210          -10.9766147467        6.7006976296      -10.4080823838  MEMB      58              0.0000000000
      6658        58  SAPE      H10R          -10.7509714774        6.7429893624      -11.4951048769  MEMB      58              0.0000000000
      6659        58  SAPE      H10S          -10.0477532588        6.9992546518       -9.8766677493  MEMB      58              0.0000000000
      6660        58  SAPE      C211          -12.1890747089        7.5366473026      -10.1279005779  MEMB      58              0.0000000000
      6661        58  SAPE      H11R          -12.9811805537        7.4675227618      -10.8880259707  MEMB      58              0.0000000000
      6662        58  SAPE      C212          -12.4197252110        8.3993693821       -9.1362518180  MEMB      58              0.0000000000
      6663        58  SAPE      H12R          -13.3751440210        8.9423905208       -9.1842418127  MEMB      58              0.0000000000
      6664        58  SAPE      C213          -11.4788582650        8.7003533463       -7.9475114843  MEMB      58              0.0000000000
      6665        58  SAPE      H13R          -10.4078572715        8.6774337806       -8.2420494395  MEMB      58              0.0000000000
      6666        58  SAPE      H13S          -11.7905369210        7.8737342450       -7.2738067893  MEMB      58              0.0000000000
      6667        58  SAPE      C214          -11.8822642518        9.8690628792       -7.0501990303  MEMB      58              0.0000000000
      6668        58  SAPE      H14R          -12.7251686136       10.4387178091       -7.4685360095  MEMB      58              0.0000000000
      6669        58  SAPE      C215          -11.3293723797       10.3181668703       -5.8979053456  MEMB      58              0.0000000000
      6670        58  SAPE      H15R          -11.8023452647       11.2242454345       -5.4913111435  MEMB      58              0.0000000000
      6671        58  SAPE      C216          -10.1757647263        9.6964521656       -5.2014080428  MEMB      58              0.0000000000
      6672        58  SAPE      H16R           -9.4581929564       10.5331979789       -5.0625963704  MEMB      58              0.0000000000
      6673        58  SAPE      H16S           -9.7353372383        8.8621223125       -5.7881260601  MEMB      58              0.0000000000
      6674        58  SAPE      C217          -10.5510091839        9.1483478249       -3.8124636696  MEMB      58              0.0000000000
      6675        58  SAPE      H17R          -11.4379431507        8.4793950308       -3.7993830967  MEMB      58              0.0000000000
      6676        58  SAPE      H17S          -10.6658229908       10.0513855292       -3.1755475634  MEMB      58              0.0000000000
      6677        58  SAPE      C218           -9.4853426428        8.3663798458       -3.0200912191  MEMB      58              0.0000000000
      6678        58  SAPE      H18R           -9.3699102186        7.3781082598       -3.5143751969  MEMB      58              0.0000000000
      6679        58  SAPE      H18S           -9.8794453107        8.0513461210       -2.0302648819  MEMB      58              0.0000000000
      6680        58  SAPE      C219           -7.9819359703        8.9386684026       -2.9081982472  MEMB      58              0.0000000000
      6681        58  SAPE      H19R           -7.5502105906        9.0735016345       -3.9229672753  MEMB      58              0.0000000000
      6682        58  SAPE      H19S           -7.4676161765        8.0999069517       -2.3921803701  MEMB      58              0.0000000000
      6683        58  SAPE      C220           -7.6840680607       10.2140480415       -2.0627660401  MEMB      58              0.0000000000
      6684        58  SAPE      H20R           -6.6500316900       10.5856183680       -2.2271614690  MEMB      58              0.0000000000
      6685        58  SAPE      H20S           -7.8257737418        9.9740738941       -0.9872883751  MEMB      58              0.0000000000
      6686        58  SAPE      H20T           -8.4165244122       10.9892100886       -2.3741384207  MEMB      58              0.0000000000
      6687        58  SAPE      C33            -8.0508646146        8.2326939305      -12.9201750676  MEMB      58              0.0000000000
      6688        58  SAPE      H3X            -8.8548372565        8.2118602188      -12.1536798279  MEMB      58              0.0000000000
      6689        58  SAPE      H3Y            -8.4752269443        9.0069255361      -13.5945656836  MEMB      58              0.0000000000
      6690        58  SAPE      C34            -6.6398834612        8.7231598119      -12.3846471299  MEMB      58              0.0000000000
      6691        58  SAPE      H4X            -6.9605264444        9.6147687538      -11.8045236745  MEMB      58              0.0000000000
      6692        58  SAPE      H4Y            -5.9898644345        9.0304692880      -13.2316162286  MEMB      58              0.0000000000
      6693        58  SAPE      C35            -5.9159639469        7.7641666729      -11.4008074801  MEMB      58              0.0000000000
      6694        58  SAPE      H5X            -5.1012055589        8.3019961453      -10.8704971441  MEMB      58              0.0000000000
      6695        58  SAPE      H5Y            -5.5016584530        6.9828025026      -12.0732222630  MEMB      58              0.0000000000
      6696        58  SAPE      C36            -6.9162912677        7.1677876246      -10.3996721977  MEMB      58              0.0000000000
      6697        58  SAPE      H6X            -7.7500058931        6.6149941467      -10.8830563326  MEMB      58              0.0000000000
      6698        58  SAPE      H6Y            -7.4258048703        8.0247356146       -9.9094098054  MEMB      58              0.0000000000
      6699        58  SAPE      C37            -6.3069203008        6.1602311681       -9.3994839960  MEMB      58              0.0000000000
      6700        58  SAPE      H7X            -5.5142423204        6.7233689353       -8.8620283400  MEMB      58              0.0000000000
      6701        58  SAPE      H7Y            -5.9145564580        5.2860809028       -9.9618305516  MEMB      58              0.0000000000
      6702        58  SAPE      C38            -7.2282260369        5.6367330499       -8.3153833520  MEMB      58              0.0000000000
      6703        58  SAPE      H8X            -6.7271219387        4.7979816642       -7.7865056092  MEMB      58              0.0000000000
      6704        58  SAPE      H8Y            -8.0482062773        5.0772683350       -8.8143352960  MEMB      58              0.0000000000
      6705        58  SAPE      C39            -7.8951507405        6.6745194688       -7.3813368131  MEMB      58              0.0000000000
      6706        58  SAPE      H9X            -8.4824424595        7.4360150213       -7.9376944624  MEMB      58              0.0000000000
      6707        58  SAPE      H9Y            -6.9462706622        7.1709267490       -7.0854858725  MEMB      58              0.0000000000
      6708        58  SAPE      C310           -8.6366489774        6.1673176660       -6.1765243057  MEMB      58              0.0000000000
      6709        58  SAPE      H10X           -9.1947816036        6.9738727812       -5.6547220116  MEMB      58              0.0000000000
      6710        58  SAPE      H10Y           -7.8530611965        5.8587075483       -5.4519067152  MEMB      58              0.0000000000
      6711        58  SAPE      C311           -9.6516892777        4.9646992334       -6.4233867519  MEMB      58              0.0000000000
      6712        58  SAPE      H11X           -9.0587184947        4.2042764099       -6.9751688813  MEMB      58              0.0000000000
      6713        58  SAPE      H11Y          -10.4524825673        5.3415912523       -7.0949546610  MEMB      58              0.0000000000
      6714        58  SAPE      C312          -10.3386850339        4.4488467439       -5.1776641625  MEMB      58              0.0000000000
      6715        58  SAPE      H12X          -11.2965097165        3.9174055153       -5.3633064926  MEMB      58              0.0000000000
      6716        58  SAPE      H12Y          -10.6628228458        5.3559891498       -4.6241766519  MEMB      58              0.0000000000
      6717        58  SAPE      C313           -9.4471254300        3.5658246924       -4.2513202906  MEMB      58              0.0000000000
      6718        58  SAPE      H13X           -8.3882692147        3.9015628011       -4.2307163215  MEMB      58              0.0000000000
      6719        58  SAPE      H13Y           -9.4219357695        2.5078620553       -4.5895530838  MEMB      58              0.0000000000
      6720        58  SAPE      C314           -9.7658499443        3.7009057621       -2.7444220286  MEMB      58              0.0000000000
      6721        58  SAPE      H14X          -10.7804522817        3.2573517436       -2.6540735550  MEMB      58              0.0000000000
      6722        58  SAPE      H14Y           -9.7221767140        4.7548155497       -2.3955847063  MEMB      58              0.0000000000
      6723        58  SAPE      C315           -8.7501429128        2.9929737292       -1.9362039076  MEMB      58              0.0000000000
      6724        58  SAPE      H15X           -7.8407605816        3.6255133049       -1.8511251527  MEMB      58              0.0000000000
      6725        58  SAPE      H15Y           -8.3812434465        2.0587740890       -2.4110766007  MEMB      58              0.0000000000
      6726        58  SAPE      C316           -9.1559468115        2.7817492334       -0.4916276509  MEMB      58              0.0000000000
      6727        58  SAPE      H16X           -8.2891121745        2.2936929216        0.0030633285  MEMB      58              0.0000000000
      6728        58  SAPE      H16Y          -10.0505359646        2.1233704964       -0.4677763211  MEMB      58              0.0000000000
      6729        58  SAPE      C317           -9.5110216736        4.0362257925        0.3993209062  MEMB      58              0.0000000000
      6730        58  SAPE      H17X           -9.7566990872        3.7046497826        1.4308343088  MEMB      58              0.0000000000
      6731        58  SAPE      H17Y          -10.3874111991        4.6041045086        0.0201408565  MEMB      58              0.0000000000
      6732        58  SAPE      C318           -8.3456635320        5.0137707080        0.5998501564  MEMB      58              0.0000000000
      6733        58  SAPE      H18X           -7.8031589178        5.2371444614       -0.3436071108  MEMB      58              0.0000000000
      6734        58  SAPE      H18Y           -7.5026215899        4.7036158320        1.2536137133  MEMB      58              0.0000000000
      6735        58  SAPE      H18Z           -8.7517431902        5.9559600066        1.0261134984  MEMB      58              0.0000000000
      6736        59  SAPE      N               1.4044997513      -11.2010567172      -18.7825443110  MEMB      59              0.0000000000
      6737        59  SAPE      HN1             2.4065587093      -11.4695405999      -18.7090988833  MEMB      59              0.0000000000
      6738        59  SAPE      HN2             1.3146279271      -10.1838327844      -18.5856220429  MEMB      59              0.0000000000
      6739        59  SAPE      HN3             0.8575755548      -11.7290951653      -18.0728616657  MEMB      59              0.0000000000
      6740        59  SAPE      C12             0.8035411733      -11.3903285542      -20.1598258137  MEMB      59              0.0000000000
      6741        59  SAPE      H12A            1.3542746730      -10.8836837623      -20.9809986124  MEMB      59              0.0000000000
      6742        59  SAPE      H12B           -0.2813634264      -11.1512224573      -20.1712952739  MEMB      59              0.0000000000
      6743        59  SAPE      C11             0.7151233929      -12.9338581772      -20.3706954108  MEMB      59              0.0000000000
      6744        59  SAPE      H11A           -0.1022913212      -13.2652259688      -21.0462318489  MEMB      59              0.0000000000
      6745        59  SAPE      H11B            0.4350671260      -13.3440821971      -19.3769118632  MEMB      59              0.0000000000
      6746        59  SAPE      P               2.5259732639      -14.8347764322      -20.2002131091  MEMB      59              0.0000000000
      6747        59  SAPE      O13             1.4885535051      -15.9004609491      -20.1161424876  MEMB      59              0.0000000000
      6748        59  SAPE      O14             3.8421638182      -15.1646874102      -20.8562352564  MEMB      59              0.0000000000
      6749        59  SAPE      O12             1.9441649968      -13.4820252803      -20.7551240178  MEMB      59              0.0000000000
      6750        59  SAPE      O11             2.8684438475      -14.2372872978      -18.7592196237  MEMB      59              0.0000000000
      6751        59  SAPE      C1              4.1413359473      -13.7468895301      -18.4188933917  MEMB      59              0.0000000000
      6752        59  SAPE      HA              4.9254359136      -14.4922595297      -18.6717410915  MEMB      59              0.0000000000
      6753        59  SAPE      HB              4.3170649645      -12.7992259883      -18.9715001630  MEMB      59              0.0000000000
      6754        59  SAPE      C2              4.1465440493      -13.5139121025      -16.9101319673  MEMB      59              0.0000000000
      6755        59  SAPE      HS              4.1985187649      -14.5211483319      -16.4441978218  MEMB      59              0.0000000000
      6756        59  SAPE      O21             2.9872022899      -12.8886655572      -16.3728654685  MEMB      59              0.0000000000
      6757        59  SAPE      C21             1.8240200124      -13.5975015449      -16.1323583795  MEMB      59              0.0000000000
      6758        59  SAPE      O22             1.6871886473      -14.7972022895      -16.2443590477  MEMB      59              0.0000000000
      6759        59  SAPE      C22             0.8592308615      -12.6769355379      -15.3212260901  MEMB      59              0.0000000000
      6760        59  SAPE      H2R             1.4783321966      -12.1547393195      -14.5607359105  MEMB      59              0.0000000000
      6761        59  SAPE      H2S             0.5344851114      -11.9123622041      -16.0589856521  MEMB      59              0.0000000000
      6762        59  SAPE      C3              5.3523973323      -12.6773750716      -16.4167506098  MEMB      59              0.0000000000
      6763        59  SAPE      HX              5.3056607872      -11.6589426630      -16.8582618897  MEMB      59              0.0000000000
      6764        59  SAPE      HY              6.3138381889      -13.2239753028      -16.5224902835  MEMB      59              0.0000000000
      6765        59  SAPE      O31             5.2550890915      -12.3905112844      -14.9728476679  MEMB      59              0.0000000000
      6766        59  SAPE      C31             6.3684403578      -12.1070819511      -14.3579319527  MEMB      59              0.0000000000
      6767        59  SAPE      O32             7.5270344585      -12.1436209685      -14.8217019374  MEMB      59              0.0000000000
      6768        59  SAPE      C32             6.0129702876      -11.7283412431      -12.8665753865  MEMB      59              0.0000000000
      6769        59  SAPE      H2X             5.4152483386      -12.5520626446      -12.4210049370  MEMB      59              0.0000000000
      6770        59  SAPE      H2Y             5.3083280839      -10.8698471460      -12.8384957269  MEMB      59              0.0000000000
      6771        59  SAPE      C23            -0.2247296508      -13.5378206230      -14.6461476506  MEMB      59              0.0000000000
      6772        59  SAPE      H3R             0.0707315566      -14.3612688059      -13.9613430869  MEMB      59              0.0000000000
      6773        59  SAPE      H3S            -0.7887952389      -14.1113243578      -15.4124662001  MEMB      59              0.0000000000
      6774        59  SAPE      C24            -1.1533804488      -12.7057456536      -13.7143492837  MEMB      59              0.0000000000
      6775        59  SAPE      H4R            -1.4580269969      -13.3713985796      -12.8786353705  MEMB      59              0.0000000000
      6776        59  SAPE      H4S            -2.1034150965      -12.4140012043      -14.2109779048  MEMB      59              0.0000000000
      6777        59  SAPE      C25            -0.6401460532      -11.4496733453      -13.1175788882  MEMB      59              0.0000000000
      6778        59  SAPE      H5R            -0.7403404546      -10.5573100966      -13.7529124948  MEMB      59              0.0000000000
      6779        59  SAPE      C26             0.2246608598      -11.3992939386      -12.0484949270  MEMB      59              0.0000000000
      6780        59  SAPE      H6R             0.4091270893      -10.4014032040      -11.6240112575  MEMB      59              0.0000000000
      6781        59  SAPE      C27             0.7835004073      -12.5946593013      -11.3674677228  MEMB      59              0.0000000000
      6782        59  SAPE      H7R             1.1373514072      -13.3919102479      -12.0555819861  MEMB      59              0.0000000000
      6783        59  SAPE      H7S            -0.0634506378      -13.1106079881      -10.8666764863  MEMB      59              0.0000000000
      6784        59  SAPE      C28             1.9494153106      -12.2144670298      -10.3612197175  MEMB      59              0.0000000000
      6785        59  SAPE      H8R             2.9277144640      -12.1047996975      -10.8520390896  MEMB      59              0.0000000000
      6786        59  SAPE      C29             1.7916616604      -11.9508942966       -9.0441832126  MEMB      59              0.0000000000
      6787        59  SAPE      H9R             2.6972736558      -11.5578081313       -8.5590545038  MEMB      59              0.0000000000
      6788        59  SAPE      C210            0.5345954464      -12.0308933708       -8.2798774867  MEMB      59              0.0000000000
      6789        59  SAPE      H10R           -0.3924842981      -12.1441255059       -8.8815610628  MEMB      59              0.0000000000
      6790        59  SAPE      H10S            0.4548179395      -11.0255750195       -7.8137314115  MEMB      59              0.0000000000
      6791        59  SAPE      C211            0.4507440590      -13.0681271914       -7.1453034478  MEMB      59              0.0000000000
      6792        59  SAPE      H11R            0.4269336323      -14.1186691893       -7.4705642062  MEMB      59              0.0000000000
      6793        59  SAPE      C212            0.1644984864      -12.8094898751       -5.8464726067  MEMB      59              0.0000000000
      6794        59  SAPE      H12R           -0.0326018272      -13.6625813281       -5.1805998385  MEMB      59              0.0000000000
      6795        59  SAPE      C213           -0.0313384243      -11.4000019878       -5.2111917989  MEMB      59              0.0000000000
      6796        59  SAPE      H13R           -1.0446011045      -10.9953514983       -5.4206615847  MEMB      59              0.0000000000
      6797        59  SAPE      H13S            0.6018664101      -10.6747917848       -5.7656669682  MEMB      59              0.0000000000
      6798        59  SAPE      C214            0.3111179841      -11.1849505260       -3.7370296731  MEMB      59              0.0000000000
      6799        59  SAPE      H14R           -0.5383844774      -11.3654939949       -3.0619368366  MEMB      59              0.0000000000
      6800        59  SAPE      C215            1.4847542189      -10.8711087315       -3.1258455829  MEMB      59              0.0000000000
      6801        59  SAPE      H15R            1.4912927685      -10.6488520029       -2.0485537788  MEMB      59              0.0000000000
      6802        59  SAPE      C216            2.7837837207      -10.6200006250       -3.8249014012  MEMB      59              0.0000000000
      6803        59  SAPE      H16R            2.9391824038       -9.5201089068       -3.8451563269  MEMB      59              0.0000000000
      6804        59  SAPE      H16S            2.7561544625      -10.9891145091       -4.8724278985  MEMB      59              0.0000000000
      6805        59  SAPE      C217            4.0102910026      -11.3435799312       -3.1596568096  MEMB      59              0.0000000000
      6806        59  SAPE      H17R            4.9180105175      -11.1391416158       -3.7667576235  MEMB      59              0.0000000000
      6807        59  SAPE      H17S            3.8856225296      -12.4389393344       -3.2973770969  MEMB      59              0.0000000000
      6808        59  SAPE      C218            4.3946753691      -10.9990519784       -1.6953913837  MEMB      59              0.0000000000
      6809        59  SAPE      H18R            3.6527704390      -11.4613506185       -1.0096965416  MEMB      59              0.0000000000
      6810        59  SAPE      H18S            4.3337770933       -9.8966129067       -1.5719400242  MEMB      59              0.0000000000
      6811        59  SAPE      C219            5.7771259915      -11.5490333923       -1.1922722649  MEMB      59              0.0000000000
      6812        59  SAPE      H19R            6.0874280910      -12.4173112464       -1.8120525262  MEMB      59              0.0000000000
      6813        59  SAPE      H19S            5.5748091665      -11.8909113744       -0.1547233348  MEMB      59              0.0000000000
      6814        59  SAPE      C220            6.9504476191      -10.5486330767       -0.9767853694  MEMB      59              0.0000000000
      6815        59  SAPE      H20R            7.4111620534      -10.2836573226       -1.9524137824  MEMB      59              0.0000000000
      6816        59  SAPE      H20S            7.7124175432      -10.8776107193       -0.2382084621  MEMB      59              0.0000000000
      6817        59  SAPE      H20T            6.5712639696       -9.6206176913       -0.4979036979  MEMB      59              0.0000000000
      6818        59  SAPE      C33             7.2343204244      -11.5247802531      -12.0148854549  MEMB      59              0.0000000000
      6819        59  SAPE      H3X             8.0382901824      -11.0995921997      -12.6529831803  MEMB      59              0.0000000000
      6820        59  SAPE      H3Y             7.6998833106      -12.5200432473      -11.8504963818  MEMB      59              0.0000000000
      6821        59  SAPE      C34             6.9733450471      -10.8935931945      -10.5999294062  MEMB      59              0.0000000000
      6822        59  SAPE      H4X             6.1631000266      -10.1343183897      -10.6363372874  MEMB      59              0.0000000000
      6823        59  SAPE      H4Y             7.9288578274      -10.4505051680      -10.2463908561  MEMB      59              0.0000000000
      6824        59  SAPE      C35             6.5997836929      -12.0246953315       -9.5661445859  MEMB      59              0.0000000000
      6825        59  SAPE      H5X             7.5262390499      -12.6272460548       -9.6798729829  MEMB      59              0.0000000000
      6826        59  SAPE      H5Y             5.7810873443      -12.5987714210      -10.0503894352  MEMB      59              0.0000000000
      6827        59  SAPE      C36             6.2366102911      -11.6205674054       -8.1586411406  MEMB      59              0.0000000000
      6828        59  SAPE      H6X             5.2517302853      -11.1066538596       -8.1436352913  MEMB      59              0.0000000000
      6829        59  SAPE      H6Y             7.0407078803      -10.9029403232       -7.8889024515  MEMB      59              0.0000000000
      6830        59  SAPE      C37             6.3333268642      -12.7124075048       -7.1621027847  MEMB      59              0.0000000000
      6831        59  SAPE      H7X             6.1568734671      -12.4486695235       -6.0973832558  MEMB      59              0.0000000000
      6832        59  SAPE      H7Y             7.3475473160      -13.1658911097       -7.1676617110  MEMB      59              0.0000000000
      6833        59  SAPE      C38             5.2719354054      -13.7776907770       -7.3795750507  MEMB      59              0.0000000000
      6834        59  SAPE      H8X             5.3608089903      -14.2243519128       -8.3929444693  MEMB      59              0.0000000000
      6835        59  SAPE      H8Y             4.2864822002      -13.2721909046       -7.2919793494  MEMB      59              0.0000000000
      6836        59  SAPE      C39             5.2515761509      -15.0143675695       -6.3635523696  MEMB      59              0.0000000000
      6837        59  SAPE      H9X             6.2493642326      -15.5024986459       -6.3419151360  MEMB      59              0.0000000000
      6838        59  SAPE      H9Y             4.5193452410      -15.7942775195       -6.6633848210  MEMB      59              0.0000000000
      6839        59  SAPE      C310            4.9968930648      -14.5766716331       -4.9054101615  MEMB      59              0.0000000000
      6840        59  SAPE      H10X            4.0632060978      -13.9821700482       -5.0008964777  MEMB      59              0.0000000000
      6841        59  SAPE      H10Y            5.8442008398      -13.9104897219       -4.6359801134  MEMB      59              0.0000000000
      6842        59  SAPE      C311            4.8450846983      -15.7443738240       -3.9005099332  MEMB      59              0.0000000000
      6843        59  SAPE      H11X            5.6867103060      -16.4428629452       -4.0957030307  MEMB      59              0.0000000000
      6844        59  SAPE      H11Y            3.8728917363      -16.2662890099       -4.0299962213  MEMB      59              0.0000000000
      6845        59  SAPE      C312            4.8876548379      -15.2045844614       -2.4809246756  MEMB      59              0.0000000000
      6846        59  SAPE      H12X            4.1831142091      -14.3472895304       -2.4262530819  MEMB      59              0.0000000000
      6847        59  SAPE      H12Y            5.8835918001      -14.7186729363       -2.4014235830  MEMB      59              0.0000000000
      6848        59  SAPE      C313            4.7944156918      -16.3630043262       -1.5353512118  MEMB      59              0.0000000000
      6849        59  SAPE      H13X            5.7127511874      -16.9871393765       -1.5732478090  MEMB      59              0.0000000000
      6850        59  SAPE      H13Y            3.9084314272      -16.9429925998       -1.8714573508  MEMB      59              0.0000000000
      6851        59  SAPE      C314            4.7155137492      -15.9979538489       -0.0430284496  MEMB      59              0.0000000000
      6852        59  SAPE      H14X            5.6934062823      -15.6409393883        0.3450269174  MEMB      59              0.0000000000
      6853        59  SAPE      H14Y            4.6265599238      -16.9404757677        0.5384017231  MEMB      59              0.0000000000
      6854        59  SAPE      C315            3.6196802514      -14.9919881325        0.3943748513  MEMB      59              0.0000000000
      6855        59  SAPE      H15X            3.7982396880      -14.0741056615       -0.2055664825  MEMB      59              0.0000000000
      6856        59  SAPE      H15Y            3.7504630764      -14.8230385824        1.4846371768  MEMB      59              0.0000000000
      6857        59  SAPE      C316            2.2554881086      -15.5173184878        0.2166564903  MEMB      59              0.0000000000
      6858        59  SAPE      H16X            2.0520700211      -16.2610318341        1.0165517183  MEMB      59              0.0000000000
      6859        59  SAPE      H16Y            2.0482310521      -16.0102415859       -0.7571989794  MEMB      59              0.0000000000
      6860        59  SAPE      C317            1.0974473997      -14.4918798294        0.2942269560  MEMB      59              0.0000000000
      6861        59  SAPE      H17X            1.3313341266      -13.7450534724       -0.4943582551  MEMB      59              0.0000000000
      6862        59  SAPE      H17Y            1.2421735349      -14.1135984186        1.3287704948  MEMB      59              0.0000000000
      6863        59  SAPE      C318           -0.3026654326      -14.9668032679        0.2017195815  MEMB      59              0.0000000000
      6864        59  SAPE      H18X           -0.3882187786      -15.5528871385        1.1416710308  MEMB      59              0.0000000000
      6865        59  SAPE      H18Y           -0.4254881349      -15.6934953455       -0.6296355214  MEMB      59              0.0000000000
      6866        59  SAPE      H18Z           -0.9853285104      -14.0919330542        0.1479237951  MEMB      59              0.0000000000
      6867        60  SOPE      N              12.2857143133       -3.1011375876      -23.0817809591  MEMB      60              0.0000000000
      6868        60  SOPE      HN1            12.6001102416       -3.4204362412      -24.0202924256  MEMB      60              0.0000000000
      6869        60  SOPE      HN2            11.4437956551       -2.4952904636      -23.1574248794  MEMB      60              0.0000000000
      6870        60  SOPE      HN3            13.1298732894       -2.6541384719      -22.6704569730  MEMB      60              0.0000000000
      6871        60  SOPE      C12            12.0611629172       -4.4001780298      -22.3047065851  MEMB      60              0.0000000000
      6872        60  SOPE      H12A           11.2519785102       -5.0499661752      -22.7013388133  MEMB      60              0.0000000000
      6873        60  SOPE      H12B           11.8723894227       -4.0544870167      -21.2658690946  MEMB      60              0.0000000000
      6874        60  SOPE      C11            13.3821389949       -5.2938417980      -22.3192108434  MEMB      60              0.0000000000
      6875        60  SOPE      H11A           13.6637254462       -5.4623707314      -23.3806381560  MEMB      60              0.0000000000
      6876        60  SOPE      H11B           13.0259198604       -6.2559293381      -21.8928113835  MEMB      60              0.0000000000
      6877        60  SOPE      P              14.4949533246       -4.9674588495      -19.9916037342  MEMB      60              0.0000000000
      6878        60  SOPE      O13            15.8582975944       -4.5554532169      -19.6565375461  MEMB      60              0.0000000000
      6879        60  SOPE      O14            14.1278660214       -6.4137625002      -19.7711725962  MEMB      60              0.0000000000
      6880        60  SOPE      O12            14.4089167914       -4.7288540129      -21.5083396806  MEMB      60              0.0000000000
      6881        60  SOPE      O11            13.4500612670       -4.0072047817      -19.3666480252  MEMB      60              0.0000000000
      6882        60  SOPE      C1             13.2892106353       -2.6421262015      -19.6926987146  MEMB      60              0.0000000000
      6883        60  SOPE      HA             12.2157851353       -2.4722372676      -19.9233855528  MEMB      60              0.0000000000
      6884        60  SOPE      HB             13.8104316375       -2.4455600361      -20.6539538311  MEMB      60              0.0000000000
      6885        60  SOPE      C2             13.6334358243       -1.7428583536      -18.4818499676  MEMB      60              0.0000000000
      6886        60  SOPE      HS             13.6802487747       -0.6750641706      -18.7850742761  MEMB      60              0.0000000000
      6887        60  SOPE      O21            14.8618915134       -2.1250660936      -17.8624137072  MEMB      60              0.0000000000
      6888        60  SOPE      C21            15.3960223525       -1.3023965791      -16.8984903894  MEMB      60              0.0000000000
      6889        60  SOPE      O22            14.7928161782       -0.2870093964      -16.4943643272  MEMB      60              0.0000000000
      6890        60  SOPE      C22            16.8411498991       -1.6771964868      -16.5834802978  MEMB      60              0.0000000000
      6891        60  SOPE      H2R            17.4991452713       -0.8910494350      -17.0116582107  MEMB      60              0.0000000000
      6892        60  SOPE      H2S            17.0228858070       -2.7309779886      -16.8848734237  MEMB      60              0.0000000000
      6893        60  SOPE      C3             12.5025532936       -1.8231571986      -17.4426650101  MEMB      60              0.0000000000
      6894        60  SOPE      HX             11.5383028619       -1.5402346672      -17.9164763150  MEMB      60              0.0000000000
      6895        60  SOPE      HY             12.6270437916       -1.0895035655      -16.6176953213  MEMB      60              0.0000000000
      6896        60  SOPE      O31            12.2957586390       -3.0991833885      -16.9360081385  MEMB      60              0.0000000000
      6897        60  SOPE      C31            12.5144471849       -3.2981039106      -15.7351223595  MEMB      60              0.0000000000
      6898        60  SOPE      O32            12.9411094005       -2.4717523462      -14.8915748203  MEMB      60              0.0000000000
      6899        60  SOPE      C32            12.0206834061       -4.6283126953      -15.4010270730  MEMB      60              0.0000000000
      6900        60  SOPE      H2X            10.9402472056       -4.6405326618      -15.6595401915  MEMB      60              0.0000000000
      6901        60  SOPE      H2Y            12.0164248566       -4.8020663552      -14.3037064450  MEMB      60              0.0000000000
      6902        60  SOPE      C23            16.8602132040       -1.8250986539      -15.1042355362  MEMB      60              0.0000000000
      6903        60  SOPE      H3R            15.9679949801       -2.3314833098      -14.6778057896  MEMB      60              0.0000000000
      6904        60  SOPE      H3S            16.9462323981       -0.8397036460      -14.5983514380  MEMB      60              0.0000000000
      6905        60  SOPE      C24            17.9880592961       -2.8025755711      -14.6722475621  MEMB      60              0.0000000000
      6906        60  SOPE      H4R            17.7270264547       -3.7755921822      -15.1406719963  MEMB      60              0.0000000000
      6907        60  SOPE      H4S            18.9564881490       -2.3742030308      -15.0083477919  MEMB      60              0.0000000000
      6908        60  SOPE      C25            18.1194909532       -3.1069713532      -13.1918618438  MEMB      60              0.0000000000
      6909        60  SOPE      H5R            19.1409427738       -3.5164940954      -13.0393888040  MEMB      60              0.0000000000
      6910        60  SOPE      H5S            18.0547641042       -2.1012742047      -12.7242037832  MEMB      60              0.0000000000
      6911        60  SOPE      C26            17.1078299718       -4.0848187082      -12.5630112018  MEMB      60              0.0000000000
      6912        60  SOPE      H6R            16.0747081561       -3.7614212164      -12.8127993217  MEMB      60              0.0000000000
      6913        60  SOPE      H6S            17.2402731167       -5.1127634341      -12.9631482173  MEMB      60              0.0000000000
      6914        60  SOPE      C27            17.3022519917       -4.2822479572      -11.0157611746  MEMB      60              0.0000000000
      6915        60  SOPE      H7R            16.7799080293       -5.2393229844      -10.8024891009  MEMB      60              0.0000000000
      6916        60  SOPE      H7S            18.3706527228       -4.5482363881      -10.8671287329  MEMB      60              0.0000000000
      6917        60  SOPE      C28            16.7105632600       -3.2082560399      -10.1153905800  MEMB      60              0.0000000000
      6918        60  SOPE      H8R            17.0814624059       -2.2212871221      -10.4656006778  MEMB      60              0.0000000000
      6919        60  SOPE      H8S            15.6017573266       -3.2771845154      -10.1263191026  MEMB      60              0.0000000000
      6920        60  SOPE      C29            17.2052928712       -3.3713459152       -8.7136668355  MEMB      60              0.0000000000
      6921        60  SOPE      H91            18.1863636713       -3.8643987486       -8.6473434910  MEMB      60              0.0000000000
      6922        60  SOPE      C210           16.5486806772       -2.9758573209       -7.5693626116  MEMB      60              0.0000000000
      6923        60  SOPE      H101           16.9811304718       -3.1976093034       -6.5825426857  MEMB      60              0.0000000000
      6924        60  SOPE      C211           15.2812564628       -2.2503686522       -7.4728481615  MEMB      60              0.0000000000
      6925        60  SOPE      H11R           15.0604710169       -1.7917220700       -8.4603786865  MEMB      60              0.0000000000
      6926        60  SOPE      H11S           15.2741158625       -1.4286584928       -6.7251432879  MEMB      60              0.0000000000
      6927        60  SOPE      C212           14.0698728690       -3.1544894988       -6.9899802293  MEMB      60              0.0000000000
      6928        60  SOPE      H12R           13.7934962824       -3.8903271174       -7.7751426142  MEMB      60              0.0000000000
      6929        60  SOPE      H12S           13.0953851175       -2.6592895530       -6.7913063042  MEMB      60              0.0000000000
      6930        60  SOPE      C213           14.3821091772       -3.9240930783       -5.6348314565  MEMB      60              0.0000000000
      6931        60  SOPE      H13R           14.5041431504       -3.1222118832       -4.8756121110  MEMB      60              0.0000000000
      6932        60  SOPE      H13S           15.3596542016       -4.4425026525       -5.7347230245  MEMB      60              0.0000000000
      6933        60  SOPE      C214           13.2546950359       -4.7699249215       -5.0900506378  MEMB      60              0.0000000000
      6934        60  SOPE      H14R           13.0124715100       -5.5032234955       -5.8887504322  MEMB      60              0.0000000000
      6935        60  SOPE      H14S           12.4113848593       -4.1140174215       -4.7851999436  MEMB      60              0.0000000000
      6936        60  SOPE      C215           13.4991540158       -5.5119399471       -3.7342619081  MEMB      60              0.0000000000
      6937        60  SOPE      H15R           14.2060126835       -6.3510828748       -3.9089359957  MEMB      60              0.0000000000
      6938        60  SOPE      H15S           12.4719047536       -5.7998613192       -3.4241309491  MEMB      60              0.0000000000
      6939        60  SOPE      C216           14.1006850799       -4.5542046347       -2.6715166996  MEMB      60              0.0000000000
      6940        60  SOPE      H16R           13.4252159413       -3.7096713638       -2.4169070929  MEMB      60              0.0000000000
      6941        60  SOPE      H16S           15.0645291366       -4.1952844360       -3.0916383658  MEMB      60              0.0000000000
      6942        60  SOPE      C217           14.2719023332       -5.2720452970       -1.3235649244  MEMB      60              0.0000000000
      6943        60  SOPE      H17R           15.0644470817       -6.0467675649       -1.4010197199  MEMB      60              0.0000000000
      6944        60  SOPE      H17S           13.3156013315       -5.6994022800       -0.9531919892  MEMB      60              0.0000000000
      6945        60  SOPE      C218           14.7372990866       -4.3154457413       -0.1731834741  MEMB      60              0.0000000000
      6946        60  SOPE      H18R           13.9001967094       -3.8951366758        0.4242460661  MEMB      60              0.0000000000
      6947        60  SOPE      H18S           15.2686268201       -3.4473366159       -0.6186024048  MEMB      60              0.0000000000
      6948        60  SOPE      H18T           15.3833468963       -4.9250825490        0.4941151869  MEMB      60              0.0000000000
      6949        60  SOPE      C33            12.8161093499       -5.7507572105      -16.0776448619  MEMB      60              0.0000000000
      6950        60  SOPE      H3X            12.7532703204       -5.5789890307      -17.1734858244  MEMB      60              0.0000000000
      6951        60  SOPE      H3Y            12.2582431255       -6.6272132316      -15.6840312585  MEMB      60              0.0000000000
      6952        60  SOPE      C34            14.3090413446       -5.7884784150      -15.6608080261  MEMB      60              0.0000000000
      6953        60  SOPE      H4X            14.9384333147       -4.9384833134      -16.0009479199  MEMB      60              0.0000000000
      6954        60  SOPE      H4Y            14.7896001972       -6.6995907812      -16.0770512628  MEMB      60              0.0000000000
      6955        60  SOPE      C35            14.4892729318       -5.7857174522      -14.0926156421  MEMB      60              0.0000000000
      6956        60  SOPE      H5X            14.3127307385       -4.7920772771      -13.6280374072  MEMB      60              0.0000000000
      6957        60  SOPE      H5Y            15.5352891699       -6.1324541299      -13.9513902802  MEMB      60              0.0000000000
      6958        60  SOPE      C36            13.8045596480       -6.8644797301      -13.2051885487  MEMB      60              0.0000000000
      6959        60  SOPE      H6X            14.0369837971       -7.8470521534      -13.6687086571  MEMB      60              0.0000000000
      6960        60  SOPE      H6Y            12.6995052586       -6.8234705555      -13.0979801664  MEMB      60              0.0000000000
      6961        60  SOPE      C37            14.5448358671       -6.8151237575      -11.7773237155  MEMB      60              0.0000000000
      6962        60  SOPE      H7X            14.2236089485       -5.9077811162      -11.2224691830  MEMB      60              0.0000000000
      6963        60  SOPE      H7Y            15.6535627020       -6.8232743542      -11.8478867844  MEMB      60              0.0000000000
      6964        60  SOPE      C38            14.0512667365       -8.0342938927      -10.9541787894  MEMB      60              0.0000000000
      6965        60  SOPE      H8X            14.6539069748       -8.9306101172      -11.2144920857  MEMB      60              0.0000000000
      6966        60  SOPE      H8Y            13.0177682219       -8.2870314539      -11.2740637954  MEMB      60              0.0000000000
      6967        60  SOPE      C39            14.1745707920       -7.7808059959       -9.3995162336  MEMB      60              0.0000000000
      6968        60  SOPE      H9X            13.6942011949       -8.6449248879       -8.8926974679  MEMB      60              0.0000000000
      6969        60  SOPE      H9Y            13.7271557185       -6.8530706507       -8.9830459712  MEMB      60              0.0000000000
      6970        60  SOPE      C310           15.6205744981       -7.7085065953       -8.8948731614  MEMB      60              0.0000000000
      6971        60  SOPE      H10X           16.0477414222       -6.7816098220       -9.3338619400  MEMB      60              0.0000000000
      6972        60  SOPE      H10Y           16.2547551125       -8.5667585478       -9.2039686478  MEMB      60              0.0000000000
      6973        60  SOPE      C311           15.7484291132       -7.6849063856       -7.3171047081  MEMB      60              0.0000000000
      6974        60  SOPE      H11X           15.3247814837       -8.5695130715       -6.7952671307  MEMB      60              0.0000000000
      6975        60  SOPE      H11Y           15.1984483618       -6.7628855430       -7.0312382686  MEMB      60              0.0000000000
      6976        60  SOPE      C312           17.1427101074       -7.4778336709       -6.8053168708  MEMB      60              0.0000000000
      6977        60  SOPE      H12X           17.4290683007       -6.6370929111       -7.4727564560  MEMB      60              0.0000000000
      6978        60  SOPE      H12Y           17.7112151152       -8.4147110647       -6.9880283959  MEMB      60              0.0000000000
      6979        60  SOPE      C313           17.2913978717       -7.0339984761       -5.3319317207  MEMB      60              0.0000000000
      6980        60  SOPE      H13X           17.2492487813       -7.9819811770       -4.7541140061  MEMB      60              0.0000000000
      6981        60  SOPE      H13Y           16.4614779916       -6.3570684996       -5.0364334174  MEMB      60              0.0000000000
      6982        60  SOPE      C314           18.5391358859       -6.2025435730       -4.9400925918  MEMB      60              0.0000000000
      6983        60  SOPE      H14X           18.7952240401       -5.4002488033       -5.6647047863  MEMB      60              0.0000000000
      6984        60  SOPE      H14Y           19.4771408734       -6.7965983398       -4.9796780292  MEMB      60              0.0000000000
      6985        60  SOPE      C315           18.4413426767       -5.5096832927       -3.6267692478  MEMB      60              0.0000000000
      6986        60  SOPE      H15X           18.7432983321       -6.2088663626       -2.8178884394  MEMB      60              0.0000000000
      6987        60  SOPE      H15Y           17.3696851322       -5.2171132348       -3.6102224964  MEMB      60              0.0000000000
      6988        60  SOPE      C316           19.2750449380       -4.2340857072       -3.3820498858  MEMB      60              0.0000000000
      6989        60  SOPE      H16X           19.6640051355       -3.8988221840       -4.3672547311  MEMB      60              0.0000000000
      6990        60  SOPE      H16Y           20.1405902319       -4.5127087795       -2.7436767926  MEMB      60              0.0000000000
      6991        60  SOPE      C317           18.5728470643       -2.9701306706       -2.9198755722  MEMB      60              0.0000000000
      6992        60  SOPE      H17X           18.3627308224       -3.1628151932       -1.8460768078  MEMB      60              0.0000000000
      6993        60  SOPE      H17Y           17.7003489191       -2.8664762032       -3.5998197552  MEMB      60              0.0000000000
      6994        60  SOPE      C318           19.4304379104       -1.6980398934       -3.1376402132  MEMB      60              0.0000000000
      6995        60  SOPE      H18X           18.9997068682       -0.9069910628       -2.4872297083  MEMB      60              0.0000000000
      6996        60  SOPE      H18Y           19.2991041321       -1.4246844868       -4.2064473514  MEMB      60              0.0000000000
      6997        60  SOPE      H18Z           20.5046996449       -1.9215018581       -2.9634332773  MEMB      60              0.0000000000
      6998        61  SAPE      N               7.2058233573       10.1060997848      -21.6395516939  MEMB      61              0.0000000000
      6999        61  SAPE      HN1             8.0921329320        9.5718771731      -21.5362963235  MEMB      61              0.0000000000
      7000        61  SAPE      HN2             6.5302481474        9.7628286692      -20.9272572464  MEMB      61              0.0000000000
      7001        61  SAPE      HN3             6.8727027108       10.0017602497      -22.6192167617  MEMB      61              0.0000000000
      7002        61  SAPE      C12             7.3580801809       11.6542746479      -21.4853287465  MEMB      61              0.0000000000
      7003        61  SAPE      H12A            6.8674305975       12.1549849590      -22.3472296879  MEMB      61              0.0000000000
      7004        61  SAPE      H12B            8.4476577844       11.8445449296      -21.3807400912  MEMB      61              0.0000000000
      7005        61  SAPE      C11             6.6478749261       12.1273244952      -20.2345091904  MEMB      61              0.0000000000
      7006        61  SAPE      H11A            6.9939792817       11.5315293324      -19.3629812970  MEMB      61              0.0000000000
      7007        61  SAPE      H11B            5.6233088676       11.8028932009      -20.5161644355  MEMB      61              0.0000000000
      7008        61  SAPE      P               5.7292204916       14.3047153915      -19.2686559536  MEMB      61              0.0000000000
      7009        61  SAPE      O13             5.7369874627       13.6851924463      -17.9415726762  MEMB      61              0.0000000000
      7010        61  SAPE      O14             6.0279314943       15.7886342470      -19.3404030079  MEMB      61              0.0000000000
      7011        61  SAPE      O12             6.8927491100       13.5283410051      -20.0704417736  MEMB      61              0.0000000000
      7012        61  SAPE      O11             4.3465235478       14.0826859492      -20.0195369685  MEMB      61              0.0000000000
      7013        61  SAPE      C1              3.2012415479       13.7005886994      -19.1948179773  MEMB      61              0.0000000000
      7014        61  SAPE      HA              2.3816556278       13.3791222251      -19.8725046764  MEMB      61              0.0000000000
      7015        61  SAPE      HB              3.4345687632       12.8550694770      -18.5129260311  MEMB      61              0.0000000000
      7016        61  SAPE      C2              2.6561078432       14.9036894182      -18.3921677578  MEMB      61              0.0000000000
      7017        61  SAPE      HS              2.6503366958       15.7845305712      -19.0692250398  MEMB      61              0.0000000000
      7018        61  SAPE      O21             3.4827100277       15.2614800847      -17.2857977627  MEMB      61              0.0000000000
      7019        61  SAPE      C21             3.3343805339       16.4313103705      -16.8300825570  MEMB      61              0.0000000000
      7020        61  SAPE      O22             2.6724926115       17.3433004596      -17.2548395283  MEMB      61              0.0000000000
      7021        61  SAPE      C22             4.1736673933       16.6054495774      -15.5359296791  MEMB      61              0.0000000000
      7022        61  SAPE      H2R             3.9722714691       15.7974660310      -14.8004549763  MEMB      61              0.0000000000
      7023        61  SAPE      H2S             5.2377648922       16.4132329297      -15.7910186509  MEMB      61              0.0000000000
      7024        61  SAPE      C3              1.2120284862       14.5237857300      -17.8332646476  MEMB      61              0.0000000000
      7025        61  SAPE      HX              0.7057989323       14.2377028365      -18.7799480371  MEMB      61              0.0000000000
      7026        61  SAPE      HY              0.6703075832       15.4137437837      -17.4474745136  MEMB      61              0.0000000000
      7027        61  SAPE      O31             1.4231515473       13.3955633052      -16.9688395612  MEMB      61              0.0000000000
      7028        61  SAPE      C31             1.2779105703       13.7529535861      -15.6412672251  MEMB      61              0.0000000000
      7029        61  SAPE      O32             0.7871909265       14.8124447850      -15.2686907090  MEMB      61              0.0000000000
      7030        61  SAPE      C32             1.7554361811       12.7047143146      -14.6250983024  MEMB      61              0.0000000000
      7031        61  SAPE      H2X             2.3277167816       11.9001522101      -15.1345057874  MEMB      61              0.0000000000
      7032        61  SAPE      H2Y             0.9186419233       12.1115430814      -14.1981984173  MEMB      61              0.0000000000
      7033        61  SAPE      C23             3.9460089242       18.0862840662      -14.9517198340  MEMB      61              0.0000000000
      7034        61  SAPE      H3R             2.8425766273       18.1627340385      -15.0561892364  MEMB      61              0.0000000000
      7035        61  SAPE      H3S             4.5440756587       18.8080226272      -15.5481512731  MEMB      61              0.0000000000
      7036        61  SAPE      C24             4.4357476353       18.2187713677      -13.4642828669  MEMB      61              0.0000000000
      7037        61  SAPE      H4R             3.6231605843       17.8146009779      -12.8234480390  MEMB      61              0.0000000000
      7038        61  SAPE      H4S             4.4608115669       19.2849352373      -13.1528552476  MEMB      61              0.0000000000
      7039        61  SAPE      C25             5.7828978293       17.5705124314      -13.2790909410  MEMB      61              0.0000000000
      7040        61  SAPE      H5R             6.4814524708       17.8238077906      -14.0901785253  MEMB      61              0.0000000000
      7041        61  SAPE      C26             6.1422568733       16.6652770700      -12.3093589300  MEMB      61              0.0000000000
      7042        61  SAPE      H6R             7.1644959903       16.2815746507      -12.1759437789  MEMB      61              0.0000000000
      7043        61  SAPE      C27             5.3030318131       16.1309305046      -11.1899633904  MEMB      61              0.0000000000
      7044        61  SAPE      H7R             5.5798992677       15.1144730654      -10.8371469796  MEMB      61              0.0000000000
      7045        61  SAPE      H7S             4.3099674324       15.9703863571      -11.6615247635  MEMB      61              0.0000000000
      7046        61  SAPE      C28             5.0972812602       17.0078391164       -9.9746294165  MEMB      61              0.0000000000
      7047        61  SAPE      H8R             6.0453193850       17.0961317573       -9.4237864520  MEMB      61              0.0000000000
      7048        61  SAPE      C29             3.9835595064       17.3696053411       -9.3908120498  MEMB      61              0.0000000000
      7049        61  SAPE      H9R             4.0695920995       18.2121309730       -8.6888517379  MEMB      61              0.0000000000
      7050        61  SAPE      C210            2.5277630456       16.9818017170       -9.7758558306  MEMB      61              0.0000000000
      7051        61  SAPE      H10R            2.3074453132       16.8185163988      -10.8524798403  MEMB      61              0.0000000000
      7052        61  SAPE      H10S            1.7920674269       17.7846086835       -9.5554614637  MEMB      61              0.0000000000
      7053        61  SAPE      C211            2.0123355142       15.7364272300       -9.0856462724  MEMB      61              0.0000000000
      7054        61  SAPE      H11R            2.0932529361       14.8889050618       -9.7821797136  MEMB      61              0.0000000000
      7055        61  SAPE      C212            1.6792664402       15.6047396755       -7.6982450693  MEMB      61              0.0000000000
      7056        61  SAPE      H12R            1.4378289637       14.6409351049       -7.2262400498  MEMB      61              0.0000000000
      7057        61  SAPE      C213            1.7595991267       16.8033620909       -6.6822883372  MEMB      61              0.0000000000
      7058        61  SAPE      H13R            1.2828112522       17.7253551676       -7.0784233019  MEMB      61              0.0000000000
      7059        61  SAPE      H13S            2.8604216208       16.9363769197       -6.6128796814  MEMB      61              0.0000000000
      7060        61  SAPE      C214            1.2379463975       16.2631796014       -5.3488901670  MEMB      61              0.0000000000
      7061        61  SAPE      H14R            0.1507426143       16.3508953355       -5.2064351346  MEMB      61              0.0000000000
      7062        61  SAPE      C215            1.9357830126       15.8669510546       -4.2674031155  MEMB      61              0.0000000000
      7063        61  SAPE      H15R            1.4445090906       15.4355595722       -3.3827836342  MEMB      61              0.0000000000
      7064        61  SAPE      C216            3.4689969558       15.8262324043       -4.1814767451  MEMB      61              0.0000000000
      7065        61  SAPE      H16R            3.9556952526       15.3945327157       -5.0820769739  MEMB      61              0.0000000000
      7066        61  SAPE      H16S            3.7376344190       15.2426766866       -3.2750449401  MEMB      61              0.0000000000
      7067        61  SAPE      C217            4.0279302975       17.1695847286       -3.9397310324  MEMB      61              0.0000000000
      7068        61  SAPE      H17R            3.7990217908       17.6605757262       -2.9697566295  MEMB      61              0.0000000000
      7069        61  SAPE      H17S            3.7119323020       17.8206958573       -4.7826548861  MEMB      61              0.0000000000
      7070        61  SAPE      C218            5.6169200156       17.2788865184       -3.8904506122  MEMB      61              0.0000000000
      7071        61  SAPE      H18R            5.8649011968       18.3352766297       -3.6519851132  MEMB      61              0.0000000000
      7072        61  SAPE      H18S            6.0600056831       16.8504156843       -4.8147935941  MEMB      61              0.0000000000
      7073        61  SAPE      C219            6.2238080571       16.4602331876       -2.7853619292  MEMB      61              0.0000000000
      7074        61  SAPE      H19R            6.2626968126       15.3633438375       -2.9575325767  MEMB      61              0.0000000000
      7075        61  SAPE      H19S            5.5976444821       16.6596650656       -1.8895571480  MEMB      61              0.0000000000
      7076        61  SAPE      C220            7.5394474320       17.0398343424       -2.2601826632  MEMB      61              0.0000000000
      7077        61  SAPE      H20R            7.3927046885       18.1237370402       -2.0653945867  MEMB      61              0.0000000000
      7078        61  SAPE      H20S            8.4247065660       17.1014403113       -2.9286454780  MEMB      61              0.0000000000
      7079        61  SAPE      H20T            7.9093397339       16.4928447381       -1.3667054827  MEMB      61              0.0000000000
      7080        61  SAPE      C33             2.7453863139       13.4454731713      -13.6819662808  MEMB      61              0.0000000000
      7081        61  SAPE      H3X             2.2373097304       14.3728627412      -13.3411908790  MEMB      61              0.0000000000
      7082        61  SAPE      H3Y             3.6879860117       13.7972469870      -14.1532222320  MEMB      61              0.0000000000
      7083        61  SAPE      C34             3.1630758501       12.5338952310      -12.4380358028  MEMB      61              0.0000000000
      7084        61  SAPE      H4X             2.4258580643       11.8276495002      -11.9998032968  MEMB      61              0.0000000000
      7085        61  SAPE      H4Y             3.3629828561       13.3004748864      -11.6591172390  MEMB      61              0.0000000000
      7086        61  SAPE      C35             4.4258435094       11.7330420623      -12.8295720562  MEMB      61              0.0000000000
      7087        61  SAPE      H5X             5.2532220929       12.4742623818      -12.8484959627  MEMB      61              0.0000000000
      7088        61  SAPE      H5Y             4.2590212835       11.2859066792      -13.8328472607  MEMB      61              0.0000000000
      7089        61  SAPE      C36             4.8633786169       10.7243246086      -11.8176330028  MEMB      61              0.0000000000
      7090        61  SAPE      H6X             5.8247142078       10.2699892004      -12.1397114108  MEMB      61              0.0000000000
      7091        61  SAPE      H6Y             4.0964488639        9.9205774153      -11.8062261506  MEMB      61              0.0000000000
      7092        61  SAPE      C37             4.9977439076       11.2541868493      -10.3312041849  MEMB      61              0.0000000000
      7093        61  SAPE      H7X             4.0883538695       11.8662805263      -10.1504500414  MEMB      61              0.0000000000
      7094        61  SAPE      H7Y             5.8369052217       11.9804837108      -10.2799969661  MEMB      61              0.0000000000
      7095        61  SAPE      C38             5.1595199016       10.0812121358       -9.3460672354  MEMB      61              0.0000000000
      7096        61  SAPE      H8X             5.7245517001        9.2554198498       -9.8288999230  MEMB      61              0.0000000000
      7097        61  SAPE      H8Y             4.1587336619        9.6489315525       -9.1318673556  MEMB      61              0.0000000000
      7098        61  SAPE      C39             5.8124964775       10.6162162530       -8.0810566234  MEMB      61              0.0000000000
      7099        61  SAPE      H9X             6.7832813284       11.0910513820       -8.3387956973  MEMB      61              0.0000000000
      7100        61  SAPE      H9Y             6.1574394397        9.7027226274       -7.5510900906  MEMB      61              0.0000000000
      7101        61  SAPE      C310            4.7409537415       11.1950253903       -7.1765727365  MEMB      61              0.0000000000
      7102        61  SAPE      H10X            3.8294320543       10.5598832815       -7.1831820909  MEMB      61              0.0000000000
      7103        61  SAPE      H10Y            4.3704040868       12.1570898048       -7.5906324410  MEMB      61              0.0000000000
      7104        61  SAPE      C311            5.1777788792       11.4197025640       -5.7081362028  MEMB      61              0.0000000000
      7105        61  SAPE      H11X            6.1017327858       12.0258158479       -5.5929984035  MEMB      61              0.0000000000
      7106        61  SAPE      H11Y            5.3945854110       10.4237633881       -5.2660717419  MEMB      61              0.0000000000
      7107        61  SAPE      C312            4.0893889227       12.1506772746       -4.9221361969  MEMB      61              0.0000000000
      7108        61  SAPE      H12X            3.0793841047       11.7592432280       -5.1690996630  MEMB      61              0.0000000000
      7109        61  SAPE      H12Y            4.1049917162       13.2448637215       -5.1140559931  MEMB      61              0.0000000000
      7110        61  SAPE      C313            4.1956588756       12.0445344442       -3.3805853698  MEMB      61              0.0000000000
      7111        61  SAPE      H13X            3.7925769958       11.0630192856       -3.0512318443  MEMB      61              0.0000000000
      7112        61  SAPE      H13Y            3.6707643708       12.8581144381       -2.8357036961  MEMB      61              0.0000000000
      7113        61  SAPE      C314            5.5986424774       12.1046293345       -2.7630483662  MEMB      61              0.0000000000
      7114        61  SAPE      H14X            5.9657516024       13.1257534384       -3.0014952449  MEMB      61              0.0000000000
      7115        61  SAPE      H14Y            6.3151554214       11.2894646492       -3.0006140387  MEMB      61              0.0000000000
      7116        61  SAPE      C315            5.5296638686       12.0521982468       -1.2025044793  MEMB      61              0.0000000000
      7117        61  SAPE      H15X            4.9268739733       11.1403484686       -1.0037693252  MEMB      61              0.0000000000
      7118        61  SAPE      H15Y            4.9048171823       12.9163294709       -0.8907926505  MEMB      61              0.0000000000
      7119        61  SAPE      C316            6.9026433950       12.1278203248       -0.5465689082  MEMB      61              0.0000000000
      7120        61  SAPE      H16X            7.5203024837       12.8784144915       -1.0845526412  MEMB      61              0.0000000000
      7121        61  SAPE      H16Y            7.2940402365       11.0890005907       -0.5910900348  MEMB      61              0.0000000000
      7122        61  SAPE      C317            6.8178341627       12.4808575029        0.9177204117  MEMB      61              0.0000000000
      7123        61  SAPE      H17X            6.2295251744       11.6584421225        1.3779878371  MEMB      61              0.0000000000
      7124        61  SAPE      H17Y            6.3024732172       13.4114109056        1.2383365574  MEMB      61              0.0000000000
      7125        61  SAPE      C318            8.1846180216       12.4336572383        1.5308699935  MEMB      61              0.0000000000
      7126        61  SAPE      H18X            8.0864302438       12.3120475782        2.6308194474  MEMB      61              0.0000000000
      7127        61  SAPE      H18Y            8.8740773022       13.2647570391        1.2696428482  MEMB      61              0.0000000000
      7128        61  SAPE      H18Z            8.7095902853       11.5335766042        1.1454071284  MEMB      61              0.0000000000
      7129        62  SAPC      N             -14.5900954306        0.7867492114      -18.6764111080  MEMB      62              0.0000000000
      7130        62  SAPC      C12           -15.4747365521        0.7151411783      -19.8975581023  MEMB      62              0.0000000000
      7131        62  SAPC      H12A          -14.9950518095        1.1511800573      -20.7613709459  MEMB      62              0.0000000000
      7132        62  SAPC      H12B          -16.3752083826        1.2825441081      -19.7142428125  MEMB      62              0.0000000000
      7133        62  SAPC      C13           -15.1779603409       -0.1595634888      -17.6310660944  MEMB      62              0.0000000000
      7134        62  SAPC      H13A          -15.2867600766       -1.1125237438      -18.1274827993  MEMB      62              0.0000000000
      7135        62  SAPC      H13B          -14.4314919917       -0.3279674578      -16.8689472016  MEMB      62              0.0000000000
      7136        62  SAPC      H13C          -16.0754586361        0.2966848462      -17.2402538638  MEMB      62              0.0000000000
      7137        62  SAPC      C14           -13.1144949698        0.4353403109      -19.0016434672  MEMB      62              0.0000000000
      7138        62  SAPC      H14A          -12.4992494522        0.5878012160      -18.1272128778  MEMB      62              0.0000000000
      7139        62  SAPC      H14B          -13.1323867169       -0.6207888997      -19.2267457699  MEMB      62              0.0000000000
      7140        62  SAPC      H14C          -12.7714300304        1.0081107932      -19.8505488844  MEMB      62              0.0000000000
      7141        62  SAPC      C15           -14.7931645598        2.2198915344      -18.1809112723  MEMB      62              0.0000000000
      7142        62  SAPC      H15A          -14.0234019531        2.4130655758      -17.4484161699  MEMB      62              0.0000000000
      7143        62  SAPC      H15B          -14.7504581174        2.9317784580      -18.9919557965  MEMB      62              0.0000000000
      7144        62  SAPC      H15C          -15.7140010699        2.2970813908      -17.6218925471  MEMB      62              0.0000000000
      7145        62  SAPC      C11           -15.8609973600       -0.6784888111      -20.4052346701  MEMB      62              0.0000000000
      7146        62  SAPC      H11A          -16.5462833186       -0.4250237571      -21.2421693339  MEMB      62              0.0000000000
      7147        62  SAPC      H11B          -16.5165828748       -1.1916771531      -19.6695944956  MEMB      62              0.0000000000
      7148        62  SAPC      P             -15.1190461494       -2.8731138739      -21.3026002427  MEMB      62              0.0000000000
      7149        62  SAPC      O13           -15.9421524445       -2.7993953547      -22.4476563405  MEMB      62              0.0000000000
      7150        62  SAPC      O14           -13.9140046305       -3.6810991282      -21.5047597764  MEMB      62              0.0000000000
      7151        62  SAPC      O12           -14.7250741933       -1.4472737271      -20.7907552176  MEMB      62              0.0000000000
      7152        62  SAPC      O11           -15.9973684331       -3.5193906817      -20.1614036637  MEMB      62              0.0000000000
      7153        62  SAPC      C1            -16.7673850722       -4.7158431127      -20.2807444324  MEMB      62              0.0000000000
      7154        62  SAPC      HA            -17.6950226468       -4.3842619621      -20.7944207633  MEMB      62              0.0000000000
      7155        62  SAPC      HB            -16.2054467983       -5.5420844680      -20.7664103615  MEMB      62              0.0000000000
      7156        62  SAPC      C2            -17.3093644417       -5.2287579591      -18.9171766715  MEMB      62              0.0000000000
      7157        62  SAPC      HS            -18.2434528771       -5.7728767455      -19.1735643534  MEMB      62              0.0000000000
      7158        62  SAPC      O21           -17.5167962361       -4.2229042556      -17.9154304131  MEMB      62              0.0000000000
      7159        62  SAPC      C21           -18.2870427622       -3.2109621369      -18.1796415202  MEMB      62              0.0000000000
      7160        62  SAPC      O22           -18.8225810728       -2.9287756612      -19.2339770770  MEMB      62              0.0000000000
      7161        62  SAPC      C22           -18.3243085815       -2.2890282175      -16.9547372599  MEMB      62              0.0000000000
      7162        62  SAPC      H2R           -17.7496208051       -1.3453327461      -17.0709002991  MEMB      62              0.0000000000
      7163        62  SAPC      H2S           -19.3807264659       -2.0240402717      -16.7354565532  MEMB      62              0.0000000000
      7164        62  SAPC      C3            -16.3289676994       -6.3822566750      -18.1966747711  MEMB      62              0.0000000000
      7165        62  SAPC      HX            -16.1302309450       -7.1258937178      -18.9978167059  MEMB      62              0.0000000000
      7166        62  SAPC      HY            -16.8893771041       -6.9665779537      -17.4358653660  MEMB      62              0.0000000000
      7167        62  SAPC      O31           -15.1260209575       -5.7620227340      -17.6470194737  MEMB      62              0.0000000000
      7168        62  SAPC      C31           -14.0695245673       -5.7036872054      -18.3870336142  MEMB      62              0.0000000000
      7169        62  SAPC      O32           -13.9777520748       -6.2607097886      -19.4809190608  MEMB      62              0.0000000000
      7170        62  SAPC      C32           -12.8941496112       -4.8139970783      -17.7500683202  MEMB      62              0.0000000000
      7171        62  SAPC      H2X           -12.2451088218       -4.4160359808      -18.5591998340  MEMB      62              0.0000000000
      7172        62  SAPC      H2Y           -12.2699415587       -5.5836597504      -17.2477688876  MEMB      62              0.0000000000
      7173        62  SAPC      C23           -17.8371101132       -3.0816629444      -15.6660925062  MEMB      62              0.0000000000
      7174        62  SAPC      H3R           -17.6722721386       -2.3068879470      -14.8870721301  MEMB      62              0.0000000000
      7175        62  SAPC      H3S           -16.7897748247       -3.3389280928      -15.9329718454  MEMB      62              0.0000000000
      7176        62  SAPC      C24           -18.7285063112       -4.2025121309      -15.1479898486  MEMB      62              0.0000000000
      7177        62  SAPC      H4R           -18.6715214029       -5.0852757661      -15.8201522418  MEMB      62              0.0000000000
      7178        62  SAPC      H4S           -19.8008077806       -3.9125670887      -15.1274382762  MEMB      62              0.0000000000
      7179        62  SAPC      C25           -18.2910340923       -4.6241599916      -13.7531976827  MEMB      62              0.0000000000
      7180        62  SAPC      H5R           -17.2799917701       -5.0465741903      -13.6564513017  MEMB      62              0.0000000000
      7181        62  SAPC      C26           -18.8751959203       -4.4845167985      -12.5853124506  MEMB      62              0.0000000000
      7182        62  SAPC      H6R           -18.2611999843       -4.7123499832      -11.7015128951  MEMB      62              0.0000000000
      7183        62  SAPC      C27           -20.1818975556       -3.8264894229      -12.2549692300  MEMB      62              0.0000000000
      7184        62  SAPC      H7R           -20.2486016007       -3.7583924691      -11.1480661202  MEMB      62              0.0000000000
      7185        62  SAPC      H7S           -20.9895145192       -4.5722141472      -12.4161205620  MEMB      62              0.0000000000
      7186        62  SAPC      C28           -20.4819733120       -2.4915056836      -12.8813084588  MEMB      62              0.0000000000
      7187        62  SAPC      H8R           -21.1510262753       -2.6712472774      -13.7357442789  MEMB      62              0.0000000000
      7188        62  SAPC      C29           -20.0807583753       -1.3100880481      -12.3960203572  MEMB      62              0.0000000000
      7189        62  SAPC      H9R           -20.4235565141       -0.3579077718      -12.8271140821  MEMB      62              0.0000000000
      7190        62  SAPC      C210          -19.2549915840       -0.9465711951      -11.1967957721  MEMB      62              0.0000000000
      7191        62  SAPC      H10R          -18.5267619594       -0.1504923756      -11.4618638442  MEMB      62              0.0000000000
      7192        62  SAPC      H10S          -18.5961953714       -1.7714239741      -10.8504916520  MEMB      62              0.0000000000
      7193        62  SAPC      C211          -20.0597884321       -0.3389447062      -10.0773139946  MEMB      62              0.0000000000
      7194        62  SAPC      H11R          -20.9049893509        0.3110570699      -10.3477433060  MEMB      62              0.0000000000
      7195        62  SAPC      C212          -19.9630309745       -0.7236395963       -8.7876193023  MEMB      62              0.0000000000
      7196        62  SAPC      H12R          -20.7099723967       -0.3445077176       -8.0746417152  MEMB      62              0.0000000000
      7197        62  SAPC      C213          -19.0870053430       -1.7823312674       -8.1848265038  MEMB      62              0.0000000000
      7198        62  SAPC      H13R          -19.0549218064       -1.6518923702       -7.0819761027  MEMB      62              0.0000000000
      7199        62  SAPC      H13S          -18.0529740700       -1.6677344992       -8.5746569154  MEMB      62              0.0000000000
      7200        62  SAPC      C214          -19.5540517792       -3.1821151282       -8.3352677611  MEMB      62              0.0000000000
      7201        62  SAPC      H14R          -20.4638355261       -3.2406914725       -8.9507854439  MEMB      62              0.0000000000
      7202        62  SAPC      C215          -19.0089215818       -4.2844511791       -7.7031712460  MEMB      62              0.0000000000
      7203        62  SAPC      H15R          -19.3812830283       -5.2927984961       -7.9368004899  MEMB      62              0.0000000000
      7204        62  SAPC      C216          -17.8492837117       -4.2598613422       -6.7862567053  MEMB      62              0.0000000000
      7205        62  SAPC      H16R          -17.4593756350       -3.2514674526       -6.5304551452  MEMB      62              0.0000000000
      7206        62  SAPC      H16S          -16.9865364243       -4.7869288368       -7.2468959189  MEMB      62              0.0000000000
      7207        62  SAPC      C217          -18.2239319835       -4.9351230639       -5.4092224769  MEMB      62              0.0000000000
      7208        62  SAPC      H17R          -19.0719454463       -5.6426909758       -5.5298108565  MEMB      62              0.0000000000
      7209        62  SAPC      H17S          -18.5294653207       -4.0794981204       -4.7697880980  MEMB      62              0.0000000000
      7210        62  SAPC      C218          -17.0563840932       -5.6123073024       -4.8071239739  MEMB      62              0.0000000000
      7211        62  SAPC      H18R          -16.2175098046       -5.7726929903       -5.5176776502  MEMB      62              0.0000000000
      7212        62  SAPC      H18S          -17.3379506799       -6.6520670074       -4.5352025144  MEMB      62              0.0000000000
      7213        62  SAPC      C219          -16.3448718458       -4.7992311036       -3.7033366425  MEMB      62              0.0000000000
      7214        62  SAPC      H19R          -17.1227996036       -4.4894701061       -2.9731330856  MEMB      62              0.0000000000
      7215        62  SAPC      H19S          -15.9186188406       -3.9066581892       -4.2092460640  MEMB      62              0.0000000000
      7216        62  SAPC      C220          -15.1849316509       -5.3886292296       -2.8839164173  MEMB      62              0.0000000000
      7217        62  SAPC      H20R          -14.3315862835       -5.5548913303       -3.5756381197  MEMB      62              0.0000000000
      7218        62  SAPC      H20S          -15.4382216715       -6.3476522556       -2.3834775698  MEMB      62              0.0000000000
      7219        62  SAPC      H20T          -14.8674805538       -4.6350765881       -2.1317828461  MEMB      62              0.0000000000
      7220        62  SAPC      C33           -13.3962049231       -3.7402188234      -16.7798863294  MEMB      62              0.0000000000
      7221        62  SAPC      H3X           -14.4481945635       -3.8667020224      -16.4457591907  MEMB      62              0.0000000000
      7222        62  SAPC      H3Y           -13.2617400374       -2.7360168363      -17.2357575133  MEMB      62              0.0000000000
      7223        62  SAPC      C34           -12.5826170607       -3.8641989951      -15.4322470309  MEMB      62              0.0000000000
      7224        62  SAPC      H4X           -11.5263464885       -3.8691743858      -15.7766142344  MEMB      62              0.0000000000
      7225        62  SAPC      H4Y           -12.8900083128       -4.7473334081      -14.8323259614  MEMB      62              0.0000000000
      7226        62  SAPC      C35           -12.7729493429       -2.6500087364      -14.4949719329  MEMB      62              0.0000000000
      7227        62  SAPC      H5X           -12.6376795455       -1.6262975941      -14.9048967856  MEMB      62              0.0000000000
      7228        62  SAPC      H5Y           -12.0243890258       -2.7106807228      -13.6762551170  MEMB      62              0.0000000000
      7229        62  SAPC      C36           -14.1240606847       -2.6474237816      -13.7543783217  MEMB      62              0.0000000000
      7230        62  SAPC      H6X           -14.4219597380       -3.6418011010      -13.3584099586  MEMB      62              0.0000000000
      7231        62  SAPC      H6Y           -14.8193266243       -2.2477886470      -14.5232856623  MEMB      62              0.0000000000
      7232        62  SAPC      C37           -14.1280082838       -1.5384186489      -12.6688373920  MEMB      62              0.0000000000
      7233        62  SAPC      H7X           -14.4613865683       -0.5785240945      -13.1180392082  MEMB      62              0.0000000000
      7234        62  SAPC      H7Y           -13.0735402697       -1.4138225804      -12.3418909225  MEMB      62              0.0000000000
      7235        62  SAPC      C38           -14.8325629079       -1.9286907908      -11.3491469786  MEMB      62              0.0000000000
      7236        62  SAPC      H8X           -15.9182099343       -2.0741086504      -11.5350102838  MEMB      62              0.0000000000
      7237        62  SAPC      H8Y           -14.8109973651       -1.0562810063      -10.6615735013  MEMB      62              0.0000000000
      7238        62  SAPC      C39           -14.2637915275       -3.1001400077      -10.5664265903  MEMB      62              0.0000000000
      7239        62  SAPC      H9X           -13.1688756247       -3.0211096511      -10.3954469327  MEMB      62              0.0000000000
      7240        62  SAPC      H9Y           -14.5236416911       -4.0537576379      -11.0737850630  MEMB      62              0.0000000000
      7241        62  SAPC      C310          -14.9673332608       -3.3196378313       -9.2209983941  MEMB      62              0.0000000000
      7242        62  SAPC      H10X          -15.1135838868       -4.4090520129       -9.0594185595  MEMB      62              0.0000000000
      7243        62  SAPC      H10Y          -16.0117560739       -2.9429193531       -9.2608129405  MEMB      62              0.0000000000
      7244        62  SAPC      C311          -14.2011914677       -2.8727039478       -7.9894841014  MEMB      62              0.0000000000
      7245        62  SAPC      H11X          -13.2056914163       -3.3629319247       -7.9349220749  MEMB      62              0.0000000000
      7246        62  SAPC      H11Y          -14.7035852562       -3.2054558634       -7.0561043727  MEMB      62              0.0000000000
      7247        62  SAPC      C312          -13.9610434796       -1.3567119934       -7.9615666638  MEMB      62              0.0000000000
      7248        62  SAPC      H12X          -14.9086332446       -0.7914385922       -8.0914152181  MEMB      62              0.0000000000
      7249        62  SAPC      H12Y          -13.1871093641       -1.0985149325       -8.7156761239  MEMB      62              0.0000000000
      7250        62  SAPC      C313          -13.3628982723       -0.9904868815       -6.5936079995  MEMB      62              0.0000000000
      7251        62  SAPC      H13X          -13.5055837728        0.1106146797       -6.6328184236  MEMB      62              0.0000000000
      7252        62  SAPC      H13Y          -12.2797980482       -1.1622402760       -6.4155195127  MEMB      62              0.0000000000
      7253        62  SAPC      C314          -14.2028175551       -1.3682749608       -5.3289319834  MEMB      62              0.0000000000
      7254        62  SAPC      H14X          -13.9011511053       -2.3590489905       -4.9268299617  MEMB      62              0.0000000000
      7255        62  SAPC      H14Y          -15.2649706599       -1.4898505805       -5.6312083743  MEMB      62              0.0000000000
      7256        62  SAPC      C315          -14.1721970878       -0.3443961357       -4.2427052475  MEMB      62              0.0000000000
      7257        62  SAPC      H15X          -14.1964646189        0.6210607110       -4.7919101156  MEMB      62              0.0000000000
      7258        62  SAPC      H15Y          -13.1775413786       -0.3116958147       -3.7488322238  MEMB      62              0.0000000000
      7259        62  SAPC      C316          -15.2475828148       -0.4565352010       -3.1036904129  MEMB      62              0.0000000000
      7260        62  SAPC      H16X          -16.2547410349       -0.4859806669       -3.5717581716  MEMB      62              0.0000000000
      7261        62  SAPC      H16Y          -15.1154696235        0.4433748273       -2.4657021680  MEMB      62              0.0000000000
      7262        62  SAPC      C317          -14.9732163549       -1.6079833435       -2.1995201568  MEMB      62              0.0000000000
      7263        62  SAPC      H17X          -14.7914696489       -2.4422950728       -2.9103036486  MEMB      62              0.0000000000
      7264        62  SAPC      H17Y          -15.8786334317       -1.7193708246       -1.5653812079  MEMB      62              0.0000000000
      7265        62  SAPC      C318          -13.7664487861       -1.4742043102       -1.2915904072  MEMB      62              0.0000000000
      7266        62  SAPC      H18X          -13.7252916027       -2.2574783246       -0.5047545178  MEMB      62              0.0000000000
      7267        62  SAPC      H18Y          -13.7416856422       -0.4370097359       -0.8941795597  MEMB      62              0.0000000000
      7268        62  SAPC      H18Z          -12.7651403510       -1.6191243171       -1.7506116247  MEMB      62              0.0000000000
      7269        63  OSM       N              -6.2031603150      -16.2397566217      -21.1206655887  MEMB      63              0.0000000000
      7270        63  OSM       C15            -5.5991203277      -16.5965950250      -19.7423291771  MEMB      63              0.0000000000
      7271        63  OSM       H15A           -6.3720161411      -16.4943160108      -18.9949530445  MEMB      63              0.0000000000
      7272        63  OSM       H15B           -4.9263148488      -15.7731685000      -19.5533801820  MEMB      63              0.0000000000
      7273        63  OSM       H15C           -5.1191671178      -17.5623342541      -19.6840849486  MEMB      63              0.0000000000
      7274        63  OSM       C14            -5.0846506364      -16.2870271875      -22.0893220393  MEMB      63              0.0000000000
      7275        63  OSM       H14A           -4.4795689370      -15.4051886124      -21.9388663979  MEMB      63              0.0000000000
      7276        63  OSM       H14B           -5.5039206800      -16.2436955447      -23.0836735521  MEMB      63              0.0000000000
      7277        63  OSM       H14C           -4.4343466513      -17.1467623087      -22.0232906740  MEMB      63              0.0000000000
      7278        63  OSM       C13            -7.2548450401      -17.2140881435      -21.4044755999  MEMB      63              0.0000000000
      7279        63  OSM       H13A           -8.1757154884      -17.1813799733      -20.8411569655  MEMB      63              0.0000000000
      7280        63  OSM       H13B           -6.7922748484      -18.1896283229      -21.4318647475  MEMB      63              0.0000000000
      7281        63  OSM       H13C           -7.5749181887      -17.1974676011      -22.4358227828  MEMB      63              0.0000000000
      7282        63  OSM       C12            -6.7816455953      -14.8162227776      -21.1552598886  MEMB      63              0.0000000000
      7283        63  OSM       H12A           -7.7487718052      -14.8956508194      -20.6811733282  MEMB      63              0.0000000000
      7284        63  OSM       H12B           -6.9820797847      -14.4822080679      -22.1625633751  MEMB      63              0.0000000000
      7285        63  OSM       C11            -6.0106461478      -13.7365507785      -20.3878264795  MEMB      63              0.0000000000
      7286        63  OSM       H11A           -6.0697225606      -14.0187062257      -19.3148775336  MEMB      63              0.0000000000
      7287        63  OSM       H11B           -6.4041980119      -12.7007643642      -20.4689699499  MEMB      63              0.0000000000
      7288        63  OSM       P              -3.9353644873      -12.2824133157      -21.0858240075  MEMB      63              0.0000000000
      7289        63  OSM       O13            -2.5670326709      -12.6268887761      -21.5027215180  MEMB      63              0.0000000000
      7290        63  OSM       O14            -4.7938189577      -11.5082738128      -22.0576442445  MEMB      63              0.0000000000
      7291        63  OSM       O11            -3.8824297419      -11.5391266677      -19.6434116351  MEMB      63              0.0000000000
      7292        63  OSM       O12            -4.6270681336      -13.6669693183      -20.8105198228  MEMB      63              0.0000000000
      7293        63  OSM       C1S            -3.2138880611      -12.3327593338      -18.5749933435  MEMB      63              0.0000000000
      7294        63  OSM       H1S            -2.1470973112      -12.0225085941      -18.5797798008  MEMB      63              0.0000000000
      7295        63  OSM       H1T            -3.2977148703      -13.4382200692      -18.6474546222  MEMB      63              0.0000000000
      7296        63  OSM       NF             -3.8764023825      -13.0462470605      -16.2901046495  MEMB      63              0.0000000000
      7297        63  OSM       HNF            -4.7705941894      -13.1853420191      -15.8716757620  MEMB      63              0.0000000000
      7298        63  OSM       C2S            -3.8362826217      -11.9508320376      -17.2270795582  MEMB      63              0.0000000000
      7299        63  OSM       H2S            -3.2024191460      -11.1576868339      -16.7760154875  MEMB      63              0.0000000000
      7300        63  OSM       C3S            -5.3430939131      -11.4401813559      -17.3069742325  MEMB      63              0.0000000000
      7301        63  OSM       H3S            -5.9218598783      -12.2001213886      -17.8742853109  MEMB      63              0.0000000000
      7302        63  OSM       O3             -5.4884346413      -10.1269405842      -17.8519652743  MEMB      63              0.0000000000
      7303        63  OSM       HO3            -4.6123814538       -9.8021834972      -18.0725639278  MEMB      63              0.0000000000
      7304        63  OSM       C4S            -5.8758485467      -11.2922582778      -15.8599802258  MEMB      63              0.0000000000
      7305        63  OSM       H4S            -5.2673406903      -10.6031137202      -15.2559950968  MEMB      63              0.0000000000
      7306        63  OSM       C5S            -6.8932854477      -11.9903282262      -15.3596872641  MEMB      63              0.0000000000
      7307        63  OSM       H5S            -7.2818316866      -12.8013849632      -15.9931057873  MEMB      63              0.0000000000
      7308        63  OSM       C6S            -7.3798669493      -11.8711468321      -13.9550479356  MEMB      63              0.0000000000
      7309        63  OSM       H6S            -7.5163108569      -12.8231285187      -13.3987792839  MEMB      63              0.0000000000
      7310        63  OSM       H6T            -8.4344946154      -11.5566741340      -14.1073253898  MEMB      63              0.0000000000
      7311        63  OSM       C7S            -6.8214684206      -10.7516442651      -13.0392614523  MEMB      63              0.0000000000
      7312        63  OSM       H7S            -6.9839843266       -9.8788020798      -13.7071353255  MEMB      63              0.0000000000
      7313        63  OSM       H7T            -5.7407478495      -10.9815675361      -12.9230747373  MEMB      63              0.0000000000
      7314        63  OSM       C8S            -7.6023278309      -10.6168840548      -11.7820513051  MEMB      63              0.0000000000
      7315        63  OSM       H8S            -8.7113890580      -10.6747431861      -11.8129782877  MEMB      63              0.0000000000
      7316        63  OSM       H8T            -7.3934444402       -9.6110201079      -11.3590545701  MEMB      63              0.0000000000
      7317        63  OSM       C9S            -7.0893335325      -11.6939014504      -10.7548003950  MEMB      63              0.0000000000
      7318        63  OSM       H9S            -6.1371650689      -11.2671229835      -10.3732820330  MEMB      63              0.0000000000
      7319        63  OSM       H9T            -6.8151079604      -12.6437515631      -11.2616602108  MEMB      63              0.0000000000
      7320        63  OSM       C10S           -7.9186445280      -12.0667296034       -9.5538388875  MEMB      63              0.0000000000
      7321        63  OSM       H10S           -8.9124689978      -12.5108322270       -9.7761156312  MEMB      63              0.0000000000
      7322        63  OSM       H10T           -8.0312620074      -11.2326183384       -8.8286517384  MEMB      63              0.0000000000
      7323        63  OSM       C11S           -7.1446964373      -13.0629012105       -8.6619232120  MEMB      63              0.0000000000
      7324        63  OSM       H11S           -6.8571109041      -13.9191749663       -9.3087692883  MEMB      63              0.0000000000
      7325        63  OSM       H11T           -7.8223910852      -13.3331774152       -7.8240670692  MEMB      63              0.0000000000
      7326        63  OSM       C12S           -5.9472495039      -12.3869191682       -7.8759304064  MEMB      63              0.0000000000
      7327        63  OSM       H12S           -5.7791152251      -11.3320589556       -8.1814162566  MEMB      63              0.0000000000
      7328        63  OSM       H12T           -5.1517228857      -13.0897269049       -8.2038321182  MEMB      63              0.0000000000
      7329        63  OSM       C13S           -6.0864141012      -12.5014868252       -6.3572566493  MEMB      63              0.0000000000
      7330        63  OSM       H13S           -7.0586137916      -12.0393976395       -6.0822617752  MEMB      63              0.0000000000
      7331        63  OSM       H13T           -5.2082203136      -11.9444402863       -5.9663663266  MEMB      63              0.0000000000
      7332        63  OSM       C14S           -6.0786898581      -13.9467409441       -5.8265649656  MEMB      63              0.0000000000
      7333        63  OSM       H14S           -5.1501346393      -14.4476864770       -6.1746453744  MEMB      63              0.0000000000
      7334        63  OSM       H14T           -6.9770547406      -14.4894571584       -6.1908740477  MEMB      63              0.0000000000
      7335        63  OSM       C15S           -5.9927127041      -13.9235816650       -4.2671200715  MEMB      63              0.0000000000
      7336        63  OSM       H15S           -5.4000492038      -13.0407898234       -3.9450183597  MEMB      63              0.0000000000
      7337        63  OSM       H15T           -5.4379313135      -14.8150476462       -3.9040401016  MEMB      63              0.0000000000
      7338        63  OSM       C16S           -7.3308244463      -13.9348714300       -3.3957649903  MEMB      63              0.0000000000
      7339        63  OSM       H16S           -7.9246561222      -14.8323276656       -3.6719114467  MEMB      63              0.0000000000
      7340        63  OSM       H16T           -7.9254369965      -13.0307124192       -3.6472661188  MEMB      63              0.0000000000
      7341        63  OSM       C17S           -7.1487994593      -13.9556208206       -1.8648672821  MEMB      63              0.0000000000
      7342        63  OSM       H17S           -6.6617961203      -14.9273688375       -1.6349661187  MEMB      63              0.0000000000
      7343        63  OSM       H17T           -8.1919782810      -13.9574598904       -1.4826433030  MEMB      63              0.0000000000
      7344        63  OSM       C18S           -6.4293639361      -12.7102605232       -1.3019226527  MEMB      63              0.0000000000
      7345        63  OSM       H18S           -6.8320671208      -12.4012617134       -0.3136560140  MEMB      63              0.0000000000
      7346        63  OSM       H18T           -6.5322444065      -11.8095950498       -1.9442132956  MEMB      63              0.0000000000
      7347        63  OSM       H18U           -5.3559265119      -12.9958667097       -1.3238804452  MEMB      63              0.0000000000
      7348        63  OSM       C1F            -2.8542575138      -13.7595563681      -15.8137818603  MEMB      63              0.0000000000
      7349        63  OSM       OF             -1.6492652483      -13.5769166558      -16.0912100714  MEMB      63              0.0000000000
      7350        63  OSM       C2F            -3.3217031934      -14.7623861082      -14.7222668253  MEMB      63              0.0000000000
      7351        63  OSM       H2F            -3.9254111474      -15.6040074480      -15.1241763001  MEMB      63              0.0000000000
      7352        63  OSM       H2G            -3.9527662405      -14.2081770099      -13.9949891217  MEMB      63              0.0000000000
      7353        63  OSM       C3F            -2.1057590100      -15.4060025221      -13.9181777182  MEMB      63              0.0000000000
      7354        63  OSM       H3F            -1.4265990848      -15.9415412519      -14.6155020836  MEMB      63              0.0000000000
      7355        63  OSM       H3G            -2.4929167398      -16.2079377219      -13.2538515508  MEMB      63              0.0000000000
      7356        63  OSM       C4F            -1.2315937930      -14.4604546398      -13.1397529406  MEMB      63              0.0000000000
      7357        63  OSM       H4F            -0.9179383375      -13.5754587238      -13.7336582844  MEMB      63              0.0000000000
      7358        63  OSM       H4G            -0.2770246947      -14.9369196656      -12.8297532101  MEMB      63              0.0000000000
      7359        63  OSM       C5F            -1.9317147076      -14.0401176229      -11.8456299075  MEMB      63              0.0000000000
      7360        63  OSM       H5F            -2.1840071209      -14.9553099495      -11.2684884772  MEMB      63              0.0000000000
      7361        63  OSM       H5G            -2.9150305853      -13.5987404051      -12.1150681210  MEMB      63              0.0000000000
      7362        63  OSM       C6F            -1.2819532762      -12.8191830761      -11.1441501624  MEMB      63              0.0000000000
      7363        63  OSM       H6F            -1.2115203411      -11.9113247819      -11.7806669130  MEMB      63              0.0000000000
      7364        63  OSM       H6G            -0.2847784980      -13.1182056409      -10.7561442843  MEMB      63              0.0000000000
      7365        63  OSM       C7F            -2.0194811825      -12.3223677080       -9.8940970117  MEMB      63              0.0000000000
      7366        63  OSM       H7F            -3.0084576285      -12.0467864140      -10.3187164307  MEMB      63              0.0000000000
      7367        63  OSM       H7G            -1.5307830250      -11.4584876730       -9.3948906243  MEMB      63              0.0000000000
      7368        63  OSM       C8F            -2.4177506793      -13.3788078040       -8.8572934780  MEMB      63              0.0000000000
      7369        63  OSM       H8F            -3.1568210644      -14.0956724766       -9.2746672916  MEMB      63              0.0000000000
      7370        63  OSM       H8G            -2.9121468252      -12.8766548172       -7.9983781816  MEMB      63              0.0000000000
      7371        63  OSM       C9F            -1.1026794755      -13.9975631258       -8.3941384651  MEMB      63              0.0000000000
      7372        63  OSM       H9F            -0.2150622258      -13.3525258359       -8.4720032518  MEMB      63              0.0000000000
      7373        63  OSM       C10F           -0.8201990560      -15.2457989518       -8.0226911620  MEMB      63              0.0000000000
      7374        63  OSM       H10F            0.1410498115      -15.4487285909       -7.5278980246  MEMB      63              0.0000000000
      7375        63  OSM       C11F           -1.8007411193      -16.4636556943       -7.9274034723  MEMB      63              0.0000000000
      7376        63  OSM       H11F           -1.1481543438      -17.2803143028       -8.3035957797  MEMB      63              0.0000000000
      7377        63  OSM       H11G           -2.5824579246      -16.2897007723       -8.6974545490  MEMB      63              0.0000000000
      7378        63  OSM       C12F           -2.3340478264      -16.7872213607       -6.5302966472  MEMB      63              0.0000000000
      7379        63  OSM       H12F           -2.8001721626      -17.7819301881       -6.6964390078  MEMB      63              0.0000000000
      7380        63  OSM       H12G           -3.1528146902      -16.0879273869       -6.2565634603  MEMB      63              0.0000000000
      7381        63  OSM       C13F           -1.3769189868      -16.8546642725       -5.4254691665  MEMB      63              0.0000000000
      7382        63  OSM       H13F           -0.6507192503      -16.0147988297       -5.4652276663  MEMB      63              0.0000000000
      7383        63  OSM       H13G           -0.9174795883      -17.7772206174       -5.8403499838  MEMB      63              0.0000000000
      7384        63  OSM       C14F           -1.9023011663      -17.0938434411       -4.0032141396  MEMB      63              0.0000000000
      7385        63  OSM       H14F           -1.0294630776      -17.2032772468       -3.3246127203  MEMB      63              0.0000000000
      7386        63  OSM       H14G           -2.4254250967      -18.0737762953       -3.9833640951  MEMB      63              0.0000000000
      7387        63  OSM       C15F           -2.8152890397      -16.0105950229       -3.4191266579  MEMB      63              0.0000000000
      7388        63  OSM       H15F           -3.7703056847      -16.0762842463       -3.9829962450  MEMB      63              0.0000000000
      7389        63  OSM       H15G           -2.3626167888      -15.0243643184       -3.6573680026  MEMB      63              0.0000000000
      7390        63  OSM       C16F           -3.0350685311      -16.0083425966       -1.8860535878  MEMB      63              0.0000000000
      7391        63  OSM       H16F           -3.6127675669      -15.0725468725       -1.7283479207  MEMB      63              0.0000000000
      7392        63  OSM       H16G           -2.0635393053      -15.9789726787       -1.3479193970  MEMB      63              0.0000000000
      7393        63  OSM       C17F           -3.7937022054      -17.1924565544       -1.3299326028  MEMB      63              0.0000000000
      7394        63  OSM       H17F           -3.5074342465      -18.1452238291       -1.8245082981  MEMB      63              0.0000000000
      7395        63  OSM       H17G           -4.8613282817      -17.0341485036       -1.5934368181  MEMB      63              0.0000000000
      7396        63  OSM       C18F           -3.6122454918      -17.5253967696        0.1531361428  MEMB      63              0.0000000000
      7397        63  OSM       H18F           -3.9126292840      -16.6067471105        0.7010153750  MEMB      63              0.0000000000
      7398        63  OSM       H18G           -2.5391884179      -17.8047959046        0.2224577553  MEMB      63              0.0000000000
      7399        63  OSM       H18H           -4.2993751331      -18.3459391628        0.4512683399  MEMB      63              0.0000000000
      7400        64  CHL1      C3             10.2617524592      -12.6622337239      -17.2975250000  MEMB      64              0.0000000000
      7401        64  CHL1      H3              9.2122111984      -12.3967450615      -17.0479550000  MEMB      64              0.0000000000
      7402        64  CHL1      O3             10.3567593767      -12.7670091259      -18.7024750000  MEMB      64              0.0000000000
      7403        64  CHL1      H3'             9.7011707552      -13.4196981384      -18.9590050000  MEMB      64              0.0000000000
      7404        64  CHL1      C4             11.2493967539      -11.5474771990      -16.8016750000  MEMB      64              0.0000000000
      7405        64  CHL1      H4A            12.3220749221      -11.5869301220      -17.0882650000  MEMB      64              0.0000000000
      7406        64  CHL1      H4B            10.8633086515      -10.6812817667      -17.3804350000  MEMB      64              0.0000000000
      7407        64  CHL1      C5             11.2097227119      -11.3289872295      -15.2956450000  MEMB      64              0.0000000000
      7408        64  CHL1      C6             10.9890288090      -10.1632494917      -14.7529850000  MEMB      64              0.0000000000
      7409        64  CHL1      H6             10.7587613804       -9.2797362038      -15.3664850000  MEMB      64              0.0000000000
      7410        64  CHL1      C7             10.9364197418      -10.0350670972      -13.2508650000  MEMB      64              0.0000000000
      7411        64  CHL1      H7A            11.4427367218       -9.0700790708      -13.0346450000  MEMB      64              0.0000000000
      7412        64  CHL1      H7B             9.9508824632       -9.9667604199      -12.7425450000  MEMB      64              0.0000000000
      7413        64  CHL1      C8             11.6054863056      -11.1217063309      -12.4802250000  MEMB      64              0.0000000000
      7414        64  CHL1      H8             12.6970407738      -10.9677660423      -12.6185450000  MEMB      64              0.0000000000
      7415        64  CHL1      C14            11.2727472774      -10.9839218436      -10.9309450000  MEMB      64              0.0000000000
      7416        64  CHL1      H14            10.2050410101      -11.2900855306      -10.9065850000  MEMB      64              0.0000000000
      7417        64  CHL1      C15            11.3690567364       -9.5940364949      -10.3287750000  MEMB      64              0.0000000000
      7418        64  CHL1      H15A           12.2674881210       -9.0715662017      -10.7214250000  MEMB      64              0.0000000000
      7419        64  CHL1      H15B           10.3661480253       -9.1168629426      -10.3569150000  MEMB      64              0.0000000000
      7420        64  CHL1      C16            11.5971278558       -9.9659576051       -8.8417250000  MEMB      64              0.0000000000
      7421        64  CHL1      H16A           12.6215089542       -9.6186527497       -8.5880650000  MEMB      64              0.0000000000
      7422        64  CHL1      H16B           10.8592875767       -9.5371962171       -8.1303250000  MEMB      64              0.0000000000
      7423        64  CHL1      C17            11.5375731216      -11.5563305349       -8.6869150000  MEMB      64              0.0000000000
      7424        64  CHL1      H17            10.4820607970      -11.8633580859       -8.5258350000  MEMB      64              0.0000000000
      7425        64  CHL1      C13            11.9855991604      -12.0009730645      -10.0543750000  MEMB      64              0.0000000000
      7426        64  CHL1      C18            13.4714599510      -11.8009600001      -10.0967850000  MEMB      64              0.0000000000
      7427        64  CHL1      H18A           13.9268774819      -12.5914574216       -9.4627350000  MEMB      64              0.0000000000
      7428        64  CHL1      H18B           13.9284455974      -11.9504876024      -11.0983450000  MEMB      64              0.0000000000
      7429        64  CHL1      H18C           13.7907857887      -10.8362142330       -9.6477450000  MEMB      64              0.0000000000
      7430        64  CHL1      C12            11.4917524607      -13.3887492196      -10.5605850000  MEMB      64              0.0000000000
      7431        64  CHL1      H12A           11.9862287490      -14.0896065409       -9.8544550000  MEMB      64              0.0000000000
      7432        64  CHL1      H12B           10.3833017709      -13.4276046691      -10.4961550000  MEMB      64              0.0000000000
      7433        64  CHL1      C11            11.8013853368      -13.5783246119      -12.0442250000  MEMB      64              0.0000000000
      7434        64  CHL1      H11A           12.8879558961      -13.4401631969      -12.2302150000  MEMB      64              0.0000000000
      7435        64  CHL1      H11B           11.3676085818      -14.5190855017      -12.4456350000  MEMB      64              0.0000000000
      7436        64  CHL1      C9             11.2239098299      -12.4859219684      -13.0022550000  MEMB      64              0.0000000000
      7437        64  CHL1      H9             10.1189627519      -12.4857282796      -12.8863550000  MEMB      64              0.0000000000
      7438        64  CHL1      C10            11.5733235070      -12.6645108977      -14.5316450000  MEMB      64              0.0000000000
      7439        64  CHL1      C19            13.0793540401      -13.1311685811      -14.7113650000  MEMB      64              0.0000000000
      7440        64  CHL1      H19A           13.8350857592      -12.5105132036      -14.1841250000  MEMB      64              0.0000000000
      7441        64  CHL1      H19B           13.1718699693      -14.1377499678      -14.2503550000  MEMB      64              0.0000000000
      7442        64  CHL1      H19C           13.1851636517      -13.2609945319      -15.8096750000  MEMB      64              0.0000000000
      7443        64  CHL1      C1             10.5686829649      -13.7634012299      -15.1315650000  MEMB      64              0.0000000000
      7444        64  CHL1      H1A            10.7091207854      -14.7165216548      -14.5782350000  MEMB      64              0.0000000000
      7445        64  CHL1      H1B             9.5565884933      -13.3765315258      -14.8859450000  MEMB      64              0.0000000000
      7446        64  CHL1      C2             10.5749153498      -13.9668046236      -16.6407050000  MEMB      64              0.0000000000
      7447        64  CHL1      H2A             9.8951369165      -14.8148019173      -16.8711750000  MEMB      64              0.0000000000
      7448        64  CHL1      H2B            11.5559331067      -14.3716972799      -16.9693250000  MEMB      64              0.0000000000
      7449        64  CHL1      C20            12.3705128379      -12.0733337245       -7.3947250000  MEMB      64              0.0000000000
      7450        64  CHL1      H20            13.4711503066      -12.1015760759       -7.5434550000  MEMB      64              0.0000000000
      7451        64  CHL1      C21            11.9721212488      -13.5472357663       -7.1575150000  MEMB      64              0.0000000000
      7452        64  CHL1      H21A           12.7546611265      -14.2217867352       -7.5660950000  MEMB      64              0.0000000000
      7453        64  CHL1      H21B           11.0098618242      -13.8322369071       -7.6341150000  MEMB      64              0.0000000000
      7454        64  CHL1      H21C           11.8977802576      -13.8051301873       -6.0794150000  MEMB      64              0.0000000000
      7455        64  CHL1      C22            12.0001707828      -11.1794744459       -6.2059450000  MEMB      64              0.0000000000
      7456        64  CHL1      H22A           12.3269317219      -10.1282391316       -6.3557250000  MEMB      64              0.0000000000
      7457        64  CHL1      H22B           10.8987759255      -11.0598285259       -6.1226350000  MEMB      64              0.0000000000
      7458        64  CHL1      C23            12.5606626122      -11.6523505786       -4.8091350000  MEMB      64              0.0000000000
      7459        64  CHL1      H23A           12.0622830252      -12.5564534189       -4.3985950000  MEMB      64              0.0000000000
      7460        64  CHL1      H23B           13.6439768631      -11.8700730308       -4.9246550000  MEMB      64              0.0000000000
      7461        64  CHL1      C24            12.3438140910      -10.5884818191       -3.7565450000  MEMB      64              0.0000000000
      7462        64  CHL1      H24A           12.9254973964       -9.7456351857       -4.1873350000  MEMB      64              0.0000000000
      7463        64  CHL1      H24B           11.2849033622      -10.2564186152       -3.7039050000  MEMB      64              0.0000000000
      7464        64  CHL1      C25            12.8807438410      -10.8446962215       -2.2751350000  MEMB      64              0.0000000000
      7465        64  CHL1      H25            13.9767498136      -11.0235723637       -2.2419550000  MEMB      64              0.0000000000
      7466        64  CHL1      C26            12.6108083988       -9.4839248884       -1.3752850000  MEMB      64              0.0000000000
      7467        64  CHL1      H26A           11.5618968376       -9.1560009052       -1.5382550000  MEMB      64              0.0000000000
      7468        64  CHL1      H26B           12.8185511988       -9.6919957290       -0.3038950000  MEMB      64              0.0000000000
      7469        64  CHL1      H26C           13.3159683609       -8.6983849889       -1.7216850000  MEMB      64              0.0000000000
      7470        64  CHL1      C27            12.2070419025      -12.0894828208       -1.5980150000  MEMB      64              0.0000000000
      7471        64  CHL1      H27A           12.3008187328      -13.0338544637       -2.1756650000  MEMB      64              0.0000000000
      7472        64  CHL1      H27B           12.6344108860      -12.3510315277       -0.6064150000  MEMB      64              0.0000000000
      7473        64  CHL1      H27C           11.1207698400      -11.8588223181       -1.5645150000  MEMB      64              0.0000000000
      7474        65  CHL1      C3             -8.0220846253       15.6205837503      -17.3358450000  MEMB      65              0.0000000000
      7475        65  CHL1      H3             -7.1377460069       15.3715401715      -16.7111550000  MEMB      65              0.0000000000
      7476        65  CHL1      O3             -7.6017836188       15.8718907230      -18.6641550000  MEMB      65              0.0000000000
      7477        65  CHL1      H3'            -7.0887443117       15.1407893440      -19.0161150000  MEMB      65              0.0000000000
      7478        65  CHL1      C4             -9.0980009971       14.4729927734      -17.1948250000  MEMB      65              0.0000000000
      7479        65  CHL1      H4A            -9.9947749030       14.6980695894      -17.8108250000  MEMB      65              0.0000000000
      7480        65  CHL1      H4B            -8.5329374284       13.6534800365      -17.6882150000  MEMB      65              0.0000000000
      7481        65  CHL1      C5             -9.4501230911       14.2128480581      -15.7562250000  MEMB      65              0.0000000000
      7482        65  CHL1      C6             -9.4600690503       12.9510472439      -15.2962550000  MEMB      65              0.0000000000
      7483        65  CHL1      H6             -9.1583456117       12.1157785176      -15.9453350000  MEMB      65              0.0000000000
      7484        65  CHL1      C7             -9.5113500051       12.6467899058      -13.8164450000  MEMB      65              0.0000000000
      7485        65  CHL1      H7A           -10.0541383448       11.6810147520      -13.7329750000  MEMB      65              0.0000000000
      7486        65  CHL1      H7B            -8.4596528701       12.4338731383      -13.5284750000  MEMB      65              0.0000000000
      7487        65  CHL1      C8            -10.2450302028       13.8285400672      -13.0960150000  MEMB      65              0.0000000000
      7488        65  CHL1      H8            -11.3266400578       13.9146266057      -13.3348150000  MEMB      65              0.0000000000
      7489        65  CHL1      C14           -10.1080146399       13.4732894246      -11.6291350000  MEMB      65              0.0000000000
      7490        65  CHL1      H14            -9.0155703429       13.5501962705      -11.4420750000  MEMB      65              0.0000000000
      7491        65  CHL1      C15           -10.4769854645       12.0717744287      -11.1313450000  MEMB      65              0.0000000000
      7492        65  CHL1      H15A          -11.4925728292       11.7712714644      -11.4669350000  MEMB      65              0.0000000000
      7493        65  CHL1      H15B           -9.7585178218       11.3328897406      -11.5462850000  MEMB      65              0.0000000000
      7494        65  CHL1      C16           -10.5823241054       12.1766649723       -9.6588450000  MEMB      65              0.0000000000
      7495        65  CHL1      H16A          -11.6099206833       12.0445136305       -9.2577250000  MEMB      65              0.0000000000
      7496        65  CHL1      H16B           -9.8335248559       11.5190546998       -9.1677550000  MEMB      65              0.0000000000
      7497        65  CHL1      C17           -10.4307216546       13.7299227983       -9.3391950000  MEMB      65              0.0000000000
      7498        65  CHL1      H17            -9.3511083472       13.8239716775       -9.0944450000  MEMB      65              0.0000000000
      7499        65  CHL1      C13           -10.7085327850       14.4327183932      -10.6987450000  MEMB      65              0.0000000000
      7500        65  CHL1      C18           -12.2327660623       14.5075991100      -10.8427250000  MEMB      65              0.0000000000
      7501        65  CHL1      H18A          -12.6459930474       14.6916660740      -11.8574650000  MEMB      65              0.0000000000
      7502        65  CHL1      H18B          -12.7237650145       13.6001383512      -10.4307050000  MEMB      65              0.0000000000
      7503        65  CHL1      H18C          -12.4995344568       15.4094555972      -10.2512750000  MEMB      65              0.0000000000
      7504        65  CHL1      C12            -9.9393032803       15.7702921641      -10.9206250000  MEMB      65              0.0000000000
      7505        65  CHL1      H12A          -10.3384332188       16.5647229696      -10.2543750000  MEMB      65              0.0000000000
      7506        65  CHL1      H12B           -8.8466533662       15.7088627057      -10.7291450000  MEMB      65              0.0000000000
      7507        65  CHL1      C11            -9.9882467812       16.2034960286      -12.4070150000  MEMB      65              0.0000000000
      7508        65  CHL1      H11A          -11.0504152350       16.5241880752      -12.4642950000  MEMB      65              0.0000000000
      7509        65  CHL1      H11B           -9.3649477837       17.0860876090      -12.6655850000  MEMB      65              0.0000000000
      7510        65  CHL1      C9             -9.6030486829       15.0972141946      -13.4537550000  MEMB      65              0.0000000000
      7511        65  CHL1      H9             -8.4996618127       15.0488093388      -13.3333350000  MEMB      65              0.0000000000
      7512        65  CHL1      C10            -9.7614445885       15.4539681154      -14.8728650000  MEMB      65              0.0000000000
      7513        65  CHL1      C19           -11.2705324101       15.8811460131      -15.1803650000  MEMB      65              0.0000000000
      7514        65  CHL1      H19A          -11.5447633451       16.7679428292      -14.5698550000  MEMB      65              0.0000000000
      7515        65  CHL1      H19B          -11.4030157671       16.2343695617      -16.2253550000  MEMB      65              0.0000000000
      7516        65  CHL1      H19C          -11.9876830586       15.0440504962      -15.0414750000  MEMB      65              0.0000000000
      7517        65  CHL1      C1             -8.7972361015       16.6285075572      -15.1888850000  MEMB      65              0.0000000000
      7518        65  CHL1      H1A            -9.2954532770       17.5135133640      -14.7384850000  MEMB      65              0.0000000000
      7519        65  CHL1      H1B            -7.8368456070       16.4680481047      -14.6538850000  MEMB      65              0.0000000000
      7520        65  CHL1      C2             -8.6121204760       16.9356681028      -16.6833050000  MEMB      65              0.0000000000
      7521        65  CHL1      H2A            -7.9370216035       17.8026744645      -16.8472050000  MEMB      65              0.0000000000
      7522        65  CHL1      H2B            -9.5757320334       17.1013345557      -17.2108650000  MEMB      65              0.0000000000
      7523        65  CHL1      C20           -11.0557406497       14.2245449705       -8.0116250000  MEMB      65              0.0000000000
      7524        65  CHL1      H20           -12.1508188601       14.0423124558       -8.0553250000  MEMB      65              0.0000000000
      7525        65  CHL1      C21           -10.7867758625       15.7028854366       -7.7408750000  MEMB      65              0.0000000000
      7526        65  CHL1      H21A          -11.5154209776       16.2658563343       -8.3625250000  MEMB      65              0.0000000000
      7527        65  CHL1      H21B           -9.7160355866       15.8858475039       -7.9740350000  MEMB      65              0.0000000000
      7528        65  CHL1      H21C          -10.8936021630       15.9669219355       -6.6670050000  MEMB      65              0.0000000000
      7529        65  CHL1      C22           -10.6219670170       13.3128985647       -6.8521550000  MEMB      65              0.0000000000
      7530        65  CHL1      H22A           -9.7436724422       12.7710912401       -7.2636850000  MEMB      65              0.0000000000
      7531        65  CHL1      H22B          -10.2321738389       13.9288747736       -6.0137250000  MEMB      65              0.0000000000
      7532        65  CHL1      C23           -11.6666865820       12.3977266743       -6.2411250000  MEMB      65              0.0000000000
      7533        65  CHL1      H23A          -12.5735742931       12.9607234551       -5.9330350000  MEMB      65              0.0000000000
      7534        65  CHL1      H23B          -11.9683511370       11.6083382159       -6.9623650000  MEMB      65              0.0000000000
      7535        65  CHL1      C24           -11.1026415126       11.7313272822       -4.9753550000  MEMB      65              0.0000000000
      7536        65  CHL1      H24A          -10.1770684380       11.2609203410       -5.3707550000  MEMB      65              0.0000000000
      7537        65  CHL1      H24B          -10.6969642682       12.3710770591       -4.1626550000  MEMB      65              0.0000000000
      7538        65  CHL1      C25           -11.9817354001       10.7987281102       -4.2572050000  MEMB      65              0.0000000000
      7539        65  CHL1      H25           -12.6747135605       11.4859809469       -3.7263550000  MEMB      65              0.0000000000
      7540        65  CHL1      C26           -12.7584130164        9.8086070991       -5.1119950000  MEMB      65              0.0000000000
      7541        65  CHL1      H26A          -12.0245781539        9.1125053311       -5.5716150000  MEMB      65              0.0000000000
      7542        65  CHL1      H26B          -13.4205397099        9.1952206338       -4.4641650000  MEMB      65              0.0000000000
      7543        65  CHL1      H26C          -13.3566849187       10.3397929079       -5.8828550000  MEMB      65              0.0000000000
      7544        65  CHL1      C27           -11.0738146971        9.9341859400       -3.3703750000  MEMB      65              0.0000000000
      7545        65  CHL1      H27A          -10.3245821766        9.4241057101       -4.0128650000  MEMB      65              0.0000000000
      7546        65  CHL1      H27B          -10.5233323238       10.6245507578       -2.6960650000  MEMB      65              0.0000000000
      7547        65  CHL1      H27C          -11.6187085434        9.2633221187       -2.6722650000  MEMB      65              0.0000000000
      7548        66  CHL1      C3              0.0539260354       16.9080888608      -17.3508000000  MEMB      66              0.0000000000
      7549        66  CHL1      H3              0.7248190245       16.0240087868      -17.2996300000  MEMB      66              0.0000000000
      7550        66  CHL1      O3             -0.0952846270       17.3345935392      -18.6492000000  MEMB      66              0.0000000000
      7551        66  CHL1      H3'            -0.6184809858       18.1328308785      -18.5458700000  MEMB      66              0.0000000000
      7552        66  CHL1      C4             -1.3171268463       16.6840305828      -16.6928600000  MEMB      66              0.0000000000
      7553        66  CHL1      H4A            -2.0710030735       17.4323461755      -17.0184500000  MEMB      66              0.0000000000
      7554        66  CHL1      H4B            -1.4744499200       15.6562622552      -17.0843500000  MEMB      66              0.0000000000
      7555        66  CHL1      C5             -1.1703193753       16.4134307140      -15.2656500000  MEMB      66              0.0000000000
      7556        66  CHL1      C6             -1.6433793711       15.2562666362      -14.6882500000  MEMB      66              0.0000000000
      7557        66  CHL1      H6             -2.0287556061       14.4358742911      -15.3115100000  MEMB      66              0.0000000000
      7558        66  CHL1      C7             -1.7333080455       15.0018657174      -13.1724300000  MEMB      66              0.0000000000
      7559        66  CHL1      H7A            -2.7727637688       14.7874305324      -12.8439900000  MEMB      66              0.0000000000
      7560        66  CHL1      H7B            -1.0839689417       14.1696293607      -12.8259300000  MEMB      66              0.0000000000
      7561        66  CHL1      C8             -1.4130471064       16.2896911850      -12.3517800000  MEMB      66              0.0000000000
      7562        66  CHL1      H8             -2.2819619517       16.9796894726      -12.2950300000  MEMB      66              0.0000000000
      7563        66  CHL1      C14            -1.2137539874       15.9697866831      -10.9043600000  MEMB      66              0.0000000000
      7564        66  CHL1      H14            -0.2045509767       15.5117843737      -10.8265500000  MEMB      66              0.0000000000
      7565        66  CHL1      C15            -2.1578656360       14.9794248689      -10.1948200000  MEMB      66              0.0000000000
      7566        66  CHL1      H15A           -3.2383460506       15.2192533848      -10.2915700000  MEMB      66              0.0000000000
      7567        66  CHL1      H15B           -2.0299266040       13.8980185840      -10.4150500000  MEMB      66              0.0000000000
      7568        66  CHL1      C16            -1.8769255996       15.2151528962       -8.7212600000  MEMB      66              0.0000000000
      7569        66  CHL1      H16A           -2.8309640840       15.3934973190       -8.1805800000  MEMB      66              0.0000000000
      7570        66  CHL1      H16B           -1.4878819530       14.3139256606       -8.2009100000  MEMB      66              0.0000000000
      7571        66  CHL1      C17            -0.9622329040       16.4798119384       -8.6116500000  MEMB      66              0.0000000000
      7572        66  CHL1      H17             0.0170981964       15.9609326590       -8.5342500000  MEMB      66              0.0000000000
      7573        66  CHL1      C13            -1.0740661104       17.1317448943       -9.9695100000  MEMB      66              0.0000000000
      7574        66  CHL1      C18            -2.3430519067       18.0643220412       -9.8740500000  MEMB      66              0.0000000000
      7575        66  CHL1      H18A           -2.6796287562       18.3865469423      -10.8826100000  MEMB      66              0.0000000000
      7576        66  CHL1      H18B           -3.1883668609       17.5169045950       -9.4049000000  MEMB      66              0.0000000000
      7577        66  CHL1      H18C           -1.9748079806       18.9269157097       -9.2785300000  MEMB      66              0.0000000000
      7578        66  CHL1      C12             0.1592603786       17.8540864021      -10.4706400000  MEMB      66              0.0000000000
      7579        66  CHL1      H12A            0.2137391203       18.8196923907       -9.9238600000  MEMB      66              0.0000000000
      7580        66  CHL1      H12B            1.0338561913       17.1960759310      -10.2797800000  MEMB      66              0.0000000000
      7581        66  CHL1      C11             0.1745701575       18.1921752779      -11.9403300000  MEMB      66              0.0000000000
      7582        66  CHL1      H11A           -0.6560840378       18.9298993362      -11.9301200000  MEMB      66              0.0000000000
      7583        66  CHL1      H11B            1.1251490086       18.7070009381      -12.1966100000  MEMB      66              0.0000000000
      7584        66  CHL1      C9             -0.2080807413       17.0482502489      -12.9159900000  MEMB      66              0.0000000000
      7585        66  CHL1      H9              0.6777212725       16.3823350162      -12.9950100000  MEMB      66              0.0000000000
      7586        66  CHL1      C10            -0.5321886421       17.5311291851      -14.3627200000  MEMB      66              0.0000000000
      7587        66  CHL1      C19            -1.5145177837       18.7100626083      -14.3117100000  MEMB      66              0.0000000000
      7588        66  CHL1      H19A           -2.3375701391       18.5661568077      -13.5794600000  MEMB      66              0.0000000000
      7589        66  CHL1      H19B           -1.0517646673       19.6648662299      -13.9822700000  MEMB      66              0.0000000000
      7590        66  CHL1      H19C           -2.0515001305       18.8932042999      -15.2669300000  MEMB      66              0.0000000000
      7591        66  CHL1      C1              0.7906120713       17.8634221246      -15.0753200000  MEMB      66              0.0000000000
      7592        66  CHL1      H1A             1.1415230486       18.8662564159      -14.7505000000  MEMB      66              0.0000000000
      7593        66  CHL1      H1B             1.6353577622       17.1448266172      -15.0095400000  MEMB      66              0.0000000000
      7594        66  CHL1      C2              0.6929987824       18.0665660311      -16.5838500000  MEMB      66              0.0000000000
      7595        66  CHL1      H2A             1.6933332880       18.3683960422      -16.9614100000  MEMB      66              0.0000000000
      7596        66  CHL1      H2B             0.1154686041       18.9922253016      -16.7934600000  MEMB      66              0.0000000000
      7597        66  CHL1      C20            -1.0339128150       17.2949549910       -7.2615600000  MEMB      66              0.0000000000
      7598        66  CHL1      H20            -1.9604053622       17.9065095329       -7.3055700000  MEMB      66              0.0000000000
      7599        66  CHL1      C21             0.1449022160       18.2722969707       -7.3336500000  MEMB      66              0.0000000000
      7600        66  CHL1      H21A            0.9967442960       17.8381718467       -7.8995300000  MEMB      66              0.0000000000
      7601        66  CHL1      H21B            0.5476317487       18.4234047220       -6.3093000000  MEMB      66              0.0000000000
      7602        66  CHL1      H21C           -0.2007924560       19.1955278083       -7.8459500000  MEMB      66              0.0000000000
      7603        66  CHL1      C22            -1.1481130302       16.4570445873       -6.0118200000  MEMB      66              0.0000000000
      7604        66  CHL1      H22A           -2.2186383784       16.1613476517       -5.9824500000  MEMB      66              0.0000000000
      7605        66  CHL1      H22B           -0.5496304575       15.5220872432       -5.9671300000  MEMB      66              0.0000000000
      7606        66  CHL1      C23            -1.0419745020       17.2405143756       -4.7715800000  MEMB      66              0.0000000000
      7607        66  CHL1      H23A            0.0322608581       17.5171359655       -4.7099300000  MEMB      66              0.0000000000
      7608        66  CHL1      H23B           -1.7046757721       18.1315402569       -4.7366300000  MEMB      66              0.0000000000
      7609        66  CHL1      C24            -1.3287643556       16.5030687977       -3.5301600000  MEMB      66              0.0000000000
      7610        66  CHL1      H24A           -2.3889381489       16.5315234350       -3.1991800000  MEMB      66              0.0000000000
      7611        66  CHL1      H24B           -1.0322731250       15.4393764866       -3.6525800000  MEMB      66              0.0000000000
      7612        66  CHL1      C25            -0.4733716212       17.0052578883       -2.3572100000  MEMB      66              0.0000000000
      7613        66  CHL1      H25             0.5935400097       17.0034366744       -2.6670600000  MEMB      66              0.0000000000
      7614        66  CHL1      C26            -0.8732017844       18.4333716812       -1.9396600000  MEMB      66              0.0000000000
      7615        66  CHL1      H26A           -0.4096315084       18.6253937730       -0.9484300000  MEMB      66              0.0000000000
      7616        66  CHL1      H26B           -0.4242066631       19.0347534538       -2.7588400000  MEMB      66              0.0000000000
      7617        66  CHL1      H26C           -1.9384985753       18.6309168650       -1.6938300000  MEMB      66              0.0000000000
      7618        66  CHL1      C27            -0.7092005085       16.1324940281       -1.0285500000  MEMB      66              0.0000000000
      7619        66  CHL1      H27A           -1.7519263410       16.3673535567       -0.7254400000  MEMB      66              0.0000000000
      7620        66  CHL1      H27B           -0.4929951889       15.0609461901       -1.2269700000  MEMB      66              0.0000000000
      7621        66  CHL1      H27C            0.0337452054       16.5156490506       -0.2967400000  MEMB      66              0.0000000000
      7622        67  SAPE      N              18.6543302683        0.7055311111      -20.9889350140  MEMB      67              0.0000000000
      7623        67  SAPE      HN1            17.6407088367        0.5596908488      -20.8075451668  MEMB      67              0.0000000000
      7624        67  SAPE      HN2            18.8719307053        0.9751853083      -21.9695147307  MEMB      67              0.0000000000
      7625        67  SAPE      HN3            19.1155506344       -0.2114832071      -20.8217215457  MEMB      67              0.0000000000
      7626        67  SAPE      C12            19.2102390329        1.7967242873      -20.1097516551  MEMB      67              0.0000000000
      7627        67  SAPE      H12A           20.3117240631        1.6706120641      -20.0380059817  MEMB      67              0.0000000000
      7628        67  SAPE      H12B           18.9789866545        1.6453115467      -19.0336858806  MEMB      67              0.0000000000
      7629        67  SAPE      C11            18.8815819474        3.1610321948      -20.5354681305  MEMB      67              0.0000000000
      7630        67  SAPE      H11A           19.3774358636        3.4256904613      -21.4938030479  MEMB      67              0.0000000000
      7631        67  SAPE      H11B           19.2809545793        3.9045082522      -19.8129269030  MEMB      67              0.0000000000
      7632        67  SAPE      P              16.5294252663        3.8988159618      -19.6805964648  MEMB      67              0.0000000000
      7633        67  SAPE      O13            15.5499487481        4.7459506827      -20.4148856755  MEMB      67              0.0000000000
      7634        67  SAPE      O14            15.9934476224        2.7424821747      -18.9682553262  MEMB      67              0.0000000000
      7635        67  SAPE      O12            17.5157432468        3.3214911413      -20.6603061352  MEMB      67              0.0000000000
      7636        67  SAPE      O11            17.2556327009        4.8348530187      -18.6418016183  MEMB      67              0.0000000000
      7637        67  SAPE      C1             17.7740118167        6.0329558554      -18.9987157190  MEMB      67              0.0000000000
      7638        67  SAPE      HA             18.7343324546        5.8626734640      -19.5307958204  MEMB      67              0.0000000000
      7639        67  SAPE      HB             16.9730272661        6.5895618533      -19.5306316810  MEMB      67              0.0000000000
      7640        67  SAPE      C2             18.1454986582        6.8796279245      -17.7643834332  MEMB      67              0.0000000000
      7641        67  SAPE      HS             18.5091121265        7.8713983958      -18.1086184642  MEMB      67              0.0000000000
      7642        67  SAPE      O21            19.0589757565        6.1085035119      -16.9627014114  MEMB      67              0.0000000000
      7643        67  SAPE      C21            20.3440431889        6.4089336045      -17.0399096675  MEMB      67              0.0000000000
      7644        67  SAPE      O22            20.8295225810        7.2742444667      -17.7382906027  MEMB      67              0.0000000000
      7645        67  SAPE      C22            21.0592384350        5.4703707274      -15.9948575717  MEMB      67              0.0000000000
      7646        67  SAPE      H2R            20.3262080712        5.0991620650      -15.2470662006  MEMB      67              0.0000000000
      7647        67  SAPE      H2S            21.6103966341        4.6131550552      -16.4372680877  MEMB      67              0.0000000000
      7648        67  SAPE      C3             16.9200066579        7.2101071397      -16.8955415260  MEMB      67              0.0000000000
      7649        67  SAPE      HX             16.3349757413        8.0239927282      -17.3747602206  MEMB      67              0.0000000000
      7650        67  SAPE      HY             17.3362995247        7.6020485833      -15.9429641044  MEMB      67              0.0000000000
      7651        67  SAPE      O31            16.1376961439        6.0327656565      -16.6687145860  MEMB      67              0.0000000000
      7652        67  SAPE      C31            15.5687386753        6.0712354396      -15.4127744834  MEMB      67              0.0000000000
      7653        67  SAPE      O32            15.5134231071        7.0417369516      -14.7271521177  MEMB      67              0.0000000000
      7654        67  SAPE      C32            14.9623049624        4.6859437916      -15.1958260335  MEMB      67              0.0000000000
      7655        67  SAPE      H2X            15.7534117995        3.9100335311      -15.2760398832  MEMB      67              0.0000000000
      7656        67  SAPE      H2Y            14.1816627374        4.3878902463      -15.9280028209  MEMB      67              0.0000000000
      7657        67  SAPE      C23            22.1076155868        6.2376027785      -15.2447700903  MEMB      67              0.0000000000
      7658        67  SAPE      H3R            22.4987396936        7.0962885000      -15.8312867257  MEMB      67              0.0000000000
      7659        67  SAPE      H3S            22.9733817177        5.5556775770      -15.1042432611  MEMB      67              0.0000000000
      7660        67  SAPE      C24            21.6814896540        6.7801551157      -13.8325002084  MEMB      67              0.0000000000
      7661        67  SAPE      H4R            22.5606409119        7.3821910368      -13.5179104092  MEMB      67              0.0000000000
      7662        67  SAPE      H4S            21.7894837832        5.9265409954      -13.1296481493  MEMB      67              0.0000000000
      7663        67  SAPE      C25            20.3826233358        7.4330200728      -13.7189301776  MEMB      67              0.0000000000
      7664        67  SAPE      H5R            20.3291929734        8.2143869690      -14.4913364411  MEMB      67              0.0000000000
      7665        67  SAPE      C26            19.3162342741        7.2917441767      -13.0034561876  MEMB      67              0.0000000000
      7666        67  SAPE      H6R            18.5499012181        8.0785513746      -13.0640227432  MEMB      67              0.0000000000
      7667        67  SAPE      C27            19.0840232534        6.3451073401      -11.8426212045  MEMB      67              0.0000000000
      7668        67  SAPE      H7R            19.5490930095        5.3568473578      -12.0460260819  MEMB      67              0.0000000000
      7669        67  SAPE      H7S            18.0194941225        6.1373689142      -11.6019068652  MEMB      67              0.0000000000
      7670        67  SAPE      C28            19.7405115379        6.9219437205      -10.5916740891  MEMB      67              0.0000000000
      7671        67  SAPE      H8R            20.8341345424        6.8381571008      -10.5081967841  MEMB      67              0.0000000000
      7672        67  SAPE      C29            19.1293722837        7.6561083497       -9.6713073852  MEMB      67              0.0000000000
      7673        67  SAPE      H9R            19.6275242356        7.9841335484       -8.7470541822  MEMB      67              0.0000000000
      7674        67  SAPE      C210           17.7660638816        8.1861177508       -9.5203439678  MEMB      67              0.0000000000
      7675        67  SAPE      H10R           17.8231011579        9.2668125170       -9.7716723118  MEMB      67              0.0000000000
      7676        67  SAPE      H10S           17.5320338049        8.3768989940       -8.4511598358  MEMB      67              0.0000000000
      7677        67  SAPE      C211           16.5496654442        7.4294002988      -10.1028360141  MEMB      67              0.0000000000
      7678        67  SAPE      H11R           16.0396435171        7.8568803631      -10.9786995902  MEMB      67              0.0000000000
      7679        67  SAPE      C212           15.8975145159        6.3508329996       -9.5983848082  MEMB      67              0.0000000000
      7680        67  SAPE      H12R           15.1704712146        5.7839719755      -10.1984480620  MEMB      67              0.0000000000
      7681        67  SAPE      C213           16.2972900162        5.7322479154       -8.3761099216  MEMB      67              0.0000000000
      7682        67  SAPE      H13R           16.2619415008        6.4554756498       -7.5334872555  MEMB      67              0.0000000000
      7683        67  SAPE      H13S           17.3436651546        5.4510342066       -8.6217496044  MEMB      67              0.0000000000
      7684        67  SAPE      C214           15.4088232681        4.5886643881       -8.0616629936  MEMB      67              0.0000000000
      7685        67  SAPE      H14R           14.6844234480        4.3365454422       -8.8501300187  MEMB      67              0.0000000000
      7686        67  SAPE      C215           15.3741767040        3.9375267363       -6.8960292037  MEMB      67              0.0000000000
      7687        67  SAPE      H15R           14.8203546865        2.9973992153       -6.7565971688  MEMB      67              0.0000000000
      7688        67  SAPE      C216           16.2272803258        4.2997328250       -5.7508711139  MEMB      67              0.0000000000
      7689        67  SAPE      H16R           17.0410576776        4.9929640661       -6.0533903951  MEMB      67              0.0000000000
      7690        67  SAPE      H16S           16.6805363302        3.3287917165       -5.4573522951  MEMB      67              0.0000000000
      7691        67  SAPE      C217           15.4887746191        4.7896894665       -4.4692179337  MEMB      67              0.0000000000
      7692        67  SAPE      H17R           15.7074168229        4.0350232996       -3.6837274728  MEMB      67              0.0000000000
      7693        67  SAPE      H17S           14.4084532036        4.9456687292       -4.6763340720  MEMB      67              0.0000000000
      7694        67  SAPE      C218           16.0039847565        6.1685523744       -3.9978791956  MEMB      67              0.0000000000
      7695        67  SAPE      H18R           15.8395957899        6.8667328263       -4.8463138263  MEMB      67              0.0000000000
      7696        67  SAPE      H18S           17.1023564557        6.0016214449       -4.0038016462  MEMB      67              0.0000000000
      7697        67  SAPE      C219           15.6061736432        6.5322495273       -2.5241433731  MEMB      67              0.0000000000
      7698        67  SAPE      H19R           16.3973203369        7.2385345321       -2.1931317091  MEMB      67              0.0000000000
      7699        67  SAPE      H19S           15.5428877625        5.6414046301       -1.8633027038  MEMB      67              0.0000000000
      7700        67  SAPE      C220           14.1899736011        7.2411912489       -2.4291647659  MEMB      67              0.0000000000
      7701        67  SAPE      H20R           13.3846404881        6.5209568957       -2.6880506146  MEMB      67              0.0000000000
      7702        67  SAPE      H20S           14.1500635687        8.0113137767       -3.2289403213  MEMB      67              0.0000000000
      7703        67  SAPE      H20T           13.9954222903        7.6763676160       -1.4256259225  MEMB      67              0.0000000000
      7704        67  SAPE      C33            14.1092586681        4.6161178710      -13.9084586376  MEMB      67              0.0000000000
      7705        67  SAPE      H3X            13.5069181545        3.6829962442      -13.8803340822  MEMB      67              0.0000000000
      7706        67  SAPE      H3Y            13.3845848965        5.4578174406      -13.9351204066  MEMB      67              0.0000000000
      7707        67  SAPE      C34            15.0255771718        4.5815233014      -12.6891926465  MEMB      67              0.0000000000
      7708        67  SAPE      H4X            14.4220773569        4.1729731565      -11.8506250282  MEMB      67              0.0000000000
      7709        67  SAPE      H4Y            15.4260492002        5.5553013182      -12.3346516979  MEMB      67              0.0000000000
      7710        67  SAPE      C35            16.2541235861        3.6241410026      -12.8591735759  MEMB      67              0.0000000000
      7711        67  SAPE      H5X            17.0325031870        4.0929429165      -13.4984473171  MEMB      67              0.0000000000
      7712        67  SAPE      H5Y            15.8661016075        2.6774966507      -13.2923297182  MEMB      67              0.0000000000
      7713        67  SAPE      C36            16.7594767728        3.1671421314      -11.5131355160  MEMB      67              0.0000000000
      7714        67  SAPE      H6X            15.8852300490        3.0982734028      -10.8310281420  MEMB      67              0.0000000000
      7715        67  SAPE      H6Y            17.4020656633        3.9718910339      -11.0962667346  MEMB      67              0.0000000000
      7716        67  SAPE      C37            17.6894650269        1.9650370956      -11.6250035021  MEMB      67              0.0000000000
      7717        67  SAPE      H7X            18.3351748448        2.2098916438      -12.4953053350  MEMB      67              0.0000000000
      7718        67  SAPE      H7Y            17.1261238590        1.0258302521      -11.8117071476  MEMB      67              0.0000000000
      7719        67  SAPE      C38            18.5493042535        1.7689589310      -10.3737913011  MEMB      67              0.0000000000
      7720        67  SAPE      H8X            19.0770264699        0.8113101103      -10.5706151229  MEMB      67              0.0000000000
      7721        67  SAPE      H8Y            17.9724849225        1.6363422836       -9.4335718558  MEMB      67              0.0000000000
      7722        67  SAPE      C39            19.6238283884        2.8449204497      -10.1010003064  MEMB      67              0.0000000000
      7723        67  SAPE      H9X            19.1479214916        3.8203816270       -9.8637056366  MEMB      67              0.0000000000
      7724        67  SAPE      H9Y            20.1645811086        2.9109233797      -11.0692730334  MEMB      67              0.0000000000
      7725        67  SAPE      C310           20.5374416273        2.5137641515       -8.9283900137  MEMB      67              0.0000000000
      7726        67  SAPE      H10X           21.4650993514        3.1192302687       -8.8436399320  MEMB      67              0.0000000000
      7727        67  SAPE      H10Y           20.8502039869        1.4920192942       -9.2325904695  MEMB      67              0.0000000000
      7728        67  SAPE      C311           19.8851881949        2.3080174451       -7.5333632450  MEMB      67              0.0000000000
      7729        67  SAPE      H11X           19.0534312126        1.5816808450       -7.6555791171  MEMB      67              0.0000000000
      7730        67  SAPE      H11Y           19.3744957269        3.2634729099       -7.2871541745  MEMB      67              0.0000000000
      7731        67  SAPE      C312           20.8378438847        1.8516173303       -6.3892282494  MEMB      67              0.0000000000
      7732        67  SAPE      H12X           21.8021691296        2.4007802134       -6.4423124343  MEMB      67              0.0000000000
      7733        67  SAPE      H12Y           21.0919024605        0.8313681145       -6.7482080054  MEMB      67              0.0000000000
      7734        67  SAPE      C313           20.1596030688        1.7831659888       -4.9869902997  MEMB      67              0.0000000000
      7735        67  SAPE      H13X           20.9736254146        1.2153532920       -4.4877137129  MEMB      67              0.0000000000
      7736        67  SAPE      H13Y           19.2355086871        1.1762932561       -5.0968802135  MEMB      67              0.0000000000
      7737        67  SAPE      C314           19.9196235703        3.0579408215       -4.1809829050  MEMB      67              0.0000000000
      7738        67  SAPE      H14X           19.0992047579        3.6845046186       -4.5916553651  MEMB      67              0.0000000000
      7739        67  SAPE      H14Y           20.8513370299        3.6337423418       -4.3672184289  MEMB      67              0.0000000000
      7740        67  SAPE      C315           19.7785477412        3.0058537937       -2.6494358151  MEMB      67              0.0000000000
      7741        67  SAPE      H15X           20.4946831425        2.2557358109       -2.2509467107  MEMB      67              0.0000000000
      7742        67  SAPE      H15Y           18.7515305481        2.6453036390       -2.4268144481  MEMB      67              0.0000000000
      7743        67  SAPE      C316           20.0269428646        4.4240403055       -1.9723754039  MEMB      67              0.0000000000
      7744        67  SAPE      H16X           19.2849541328        4.3888748193       -1.1462177953  MEMB      67              0.0000000000
      7745        67  SAPE      H16Y           19.6254642839        5.1307599148       -2.7297942523  MEMB      67              0.0000000000
      7746        67  SAPE      C317           21.4319320915        4.7181704393       -1.4612330350  MEMB      67              0.0000000000
      7747        67  SAPE      H17X           22.1615166150        4.4105747547       -2.2405990813  MEMB      67              0.0000000000
      7748        67  SAPE      H17Y           21.6064389613        4.0366988429       -0.6013116383  MEMB      67              0.0000000000
      7749        67  SAPE      C318           21.7040724667        6.0716938148       -1.0476210638  MEMB      67              0.0000000000
      7750        67  SAPE      H18X           21.4410995358        6.8359229178       -1.8099335416  MEMB      67              0.0000000000
      7751        67  SAPE      H18Y           22.7793059218        6.1574595223       -0.7814673155  MEMB      67              0.0000000000
      7752        67  SAPE      H18Z           21.0637064517        6.4266861179       -0.2120187850  MEMB      67              0.0000000000
      7753        68  SOPE      N              14.5131809264       14.6994980692      -23.5975734536  MEMB      68              0.0000000000
      7754        68  SOPE      HN1            14.5584348482       15.5811965566      -23.0478828373  MEMB      68              0.0000000000
      7755        68  SOPE      HN2            15.4954260308       14.3822110180      -23.7245518834  MEMB      68              0.0000000000
      7756        68  SOPE      HN3            14.1217978915       15.0019148168      -24.5124303362  MEMB      68              0.0000000000
      7757        68  SOPE      C12            13.3932440203       13.8365194485      -23.0269727356  MEMB      68              0.0000000000
      7758        68  SOPE      H12A           12.8500692320       13.4458280822      -23.9139012787  MEMB      68              0.0000000000
      7759        68  SOPE      H12B           12.7342636112       14.5298761689      -22.4618865507  MEMB      68              0.0000000000
      7760        68  SOPE      C11            13.8805409822       12.7845245497      -22.1055718744  MEMB      68              0.0000000000
      7761        68  SOPE      H11A           14.4095666678       11.9770754460      -22.6555525162  MEMB      68              0.0000000000
      7762        68  SOPE      H11B           12.9514445543       12.3426682720      -21.6862106319  MEMB      68              0.0000000000
      7763        68  SOPE      P              14.2269327415       14.0608853186      -19.8290427231  MEMB      68              0.0000000000
      7764        68  SOPE      O13            13.6544762553       15.3135007747      -20.1570094330  MEMB      68              0.0000000000
      7765        68  SOPE      O14            15.2413778345       14.0633620184      -18.7799140929  MEMB      68              0.0000000000
      7766        68  SOPE      O12            14.7913103876       13.2080215251      -21.0616739192  MEMB      68              0.0000000000
      7767        68  SOPE      O11            13.1125136501       13.0092170930      -19.4422417428  MEMB      68              0.0000000000
      7768        68  SOPE      C1             11.7068379326       13.3522610125      -19.2901511012  MEMB      68              0.0000000000
      7769        68  SOPE      HA             11.0680230545       12.6293049741      -19.8411238898  MEMB      68              0.0000000000
      7770        68  SOPE      HB             11.4805314127       14.3972157449      -19.5921047935  MEMB      68              0.0000000000
      7771        68  SOPE      C2             11.3691256790       13.3817455228      -17.7136693691  MEMB      68              0.0000000000
      7772        68  SOPE      HS             10.3939168230       13.9107637434      -17.6551188815  MEMB      68              0.0000000000
      7773        68  SOPE      O21            12.4239559110       13.9923416077      -16.9858605302  MEMB      68              0.0000000000
      7774        68  SOPE      C21            12.4514440153       15.3619690044      -16.9153781615  MEMB      68              0.0000000000
      7775        68  SOPE      O22            11.6052541523       16.1297420631      -17.3656508260  MEMB      68              0.0000000000
      7776        68  SOPE      C22            13.7487773150       15.7761953790      -16.3506470387  MEMB      68              0.0000000000
      7777        68  SOPE      H2R            14.3208020343       16.0296123362      -17.2687367065  MEMB      68              0.0000000000
      7778        68  SOPE      H2S            14.1347471067       14.8345870246      -15.9048648230  MEMB      68              0.0000000000
      7779        68  SOPE      C3             11.2481983791       11.9138510190      -17.1675835704  MEMB      68              0.0000000000
      7780        68  SOPE      HX             10.6785815121       11.2814601380      -17.8816839187  MEMB      68              0.0000000000
      7781        68  SOPE      HY             10.6464424475       11.9173221774      -16.2336678434  MEMB      68              0.0000000000
      7782        68  SOPE      O31            12.5856673710       11.3388849604      -17.0005216557  MEMB      68              0.0000000000
      7783        68  SOPE      C31            12.7534193517       10.5867410189      -15.9162445780  MEMB      68              0.0000000000
      7784        68  SOPE      O32            11.9612404318       10.4888379511      -14.9840935223  MEMB      68              0.0000000000
      7785        68  SOPE      C32            14.2006018052       10.1114120467      -15.8613978066  MEMB      68              0.0000000000
      7786        68  SOPE      H2X            14.4108741688        9.4374939994      -16.7192679014  MEMB      68              0.0000000000
      7787        68  SOPE      H2Y            14.2101191285        9.4429279074      -14.9740650887  MEMB      68              0.0000000000
      7788        68  SOPE      C23            13.5567410524       16.8069964440      -15.3082634223  MEMB      68              0.0000000000
      7789        68  SOPE      H3R            13.2771558124       17.8101477939      -15.6953556762  MEMB      68              0.0000000000
      7790        68  SOPE      H3S            14.5908395018       16.9969778590      -14.9492808973  MEMB      68              0.0000000000
      7791        68  SOPE      C24            12.5607558249       16.4824010786      -14.1672619234  MEMB      68              0.0000000000
      7792        68  SOPE      H4R            11.5451758773       16.1782101037      -14.4995061298  MEMB      68              0.0000000000
      7793        68  SOPE      H4S            13.0426020167       15.7133660335      -13.5263795581  MEMB      68              0.0000000000
      7794        68  SOPE      C25            12.2564959678       17.6200541102      -13.1960436962  MEMB      68              0.0000000000
      7795        68  SOPE      H5R            13.2141854365       17.8909816317      -12.7023329886  MEMB      68              0.0000000000
      7796        68  SOPE      H5S            11.9453275446       18.5010065299      -13.7972241216  MEMB      68              0.0000000000
      7797        68  SOPE      C26            11.3585806559       17.1774697738      -12.0637801333  MEMB      68              0.0000000000
      7798        68  SOPE      H6R            10.3538092647       17.2175301907      -12.5361694671  MEMB      68              0.0000000000
      7799        68  SOPE      H6S            11.6093409138       16.1094871135      -11.8881295420  MEMB      68              0.0000000000
      7800        68  SOPE      C27            11.5458611604       18.0215665221      -10.8001049204  MEMB      68              0.0000000000
      7801        68  SOPE      H7R            12.6446171819       18.1746728552      -10.7399836850  MEMB      68              0.0000000000
      7802        68  SOPE      H7S            11.0449522164       18.9886597736      -11.0195172938  MEMB      68              0.0000000000
      7803        68  SOPE      C28            10.8469071800       17.4682696778       -9.5609848347  MEMB      68              0.0000000000
      7804        68  SOPE      H8R            11.0501878696       18.1389813645       -8.6989267121  MEMB      68              0.0000000000
      7805        68  SOPE      H8S             9.7574914681       17.5718426285       -9.7527316290  MEMB      68              0.0000000000
      7806        68  SOPE      C29            11.3022830333       16.0705932902       -9.2304395449  MEMB      68              0.0000000000
      7807        68  SOPE      H91            11.3601979976       15.4054562924      -10.1046459787  MEMB      68              0.0000000000
      7808        68  SOPE      C210           11.5317092806       15.5761467238       -8.0081418266  MEMB      68              0.0000000000
      7809        68  SOPE      H101           11.7281043257       14.4999892074       -7.8927555771  MEMB      68              0.0000000000
      7810        68  SOPE      C211           11.3360566211       16.3661617014       -6.7036846974  MEMB      68              0.0000000000
      7811        68  SOPE      H11R           11.3767095521       17.4692479915       -6.8296558991  MEMB      68              0.0000000000
      7812        68  SOPE      H11S           12.1316894446       16.1919618724       -5.9480763978  MEMB      68              0.0000000000
      7813        68  SOPE      C212           10.0113266893       15.9258498373       -5.9732336703  MEMB      68              0.0000000000
      7814        68  SOPE      H12R            9.1533623450       16.1963652549       -6.6251838989  MEMB      68              0.0000000000
      7815        68  SOPE      H12S           10.0033319601       16.4079839131       -4.9723323256  MEMB      68              0.0000000000
      7816        68  SOPE      C213            9.9833737248       14.4270059299       -5.5920787527  MEMB      68              0.0000000000
      7817        68  SOPE      H13R           10.0442685501       13.8832905981       -6.5590251564  MEMB      68              0.0000000000
      7818        68  SOPE      H13S            8.9512665383       14.2436401788       -5.2240392116  MEMB      68              0.0000000000
      7819        68  SOPE      C214           11.0945140318       13.9837777349       -4.5649789729  MEMB      68              0.0000000000
      7820        68  SOPE      H14R           10.9836585711       14.7043955437       -3.7266822927  MEMB      68              0.0000000000
      7821        68  SOPE      H14S           12.0673818458       13.9626786150       -5.1010805154  MEMB      68              0.0000000000
      7822        68  SOPE      C215           10.8498955020       12.5555516074       -4.0488329404  MEMB      68              0.0000000000
      7823        68  SOPE      H15R           10.7928890946       11.8921037121       -4.9381623017  MEMB      68              0.0000000000
      7824        68  SOPE      H15S            9.9022277527       12.3513360243       -3.5061144637  MEMB      68              0.0000000000
      7825        68  SOPE      C216           11.9354689681       12.1434066331       -3.0215848652  MEMB      68              0.0000000000
      7826        68  SOPE      H16R           12.8475120098       12.4435953676       -3.5804988576  MEMB      68              0.0000000000
      7827        68  SOPE      H16S           11.8780211283       11.0364265660       -2.9466481237  MEMB      68              0.0000000000
      7828        68  SOPE      C217           11.8550510876       12.8371322377       -1.6739943221  MEMB      68              0.0000000000
      7829        68  SOPE      H17R           10.8976508851       12.6276876480       -1.1506977942  MEMB      68              0.0000000000
      7830        68  SOPE      H17S           11.8635339225       13.9234443422       -1.9067488932  MEMB      68              0.0000000000
      7831        68  SOPE      C218           12.9706159774       12.3421331604       -0.7433232994  MEMB      68              0.0000000000
      7832        68  SOPE      H18R           12.9855962329       12.9608463898        0.1793321708  MEMB      68              0.0000000000
      7833        68  SOPE      H18S           13.9054201892       12.3106019926       -1.3428788261  MEMB      68              0.0000000000
      7834        68  SOPE      H18T           12.9311532596       11.3188802788       -0.3123734690  MEMB      68              0.0000000000
      7835        68  SOPE      C33            15.1917020079       11.2139981367      -15.5629397978  MEMB      68              0.0000000000
      7836        68  SOPE      H3X            14.9681086707       12.0108303508      -16.3041453395  MEMB      68              0.0000000000
      7837        68  SOPE      H3Y            16.2294487303       10.8645620787      -15.7508153886  MEMB      68              0.0000000000
      7838        68  SOPE      C34            15.0404071879       11.6058535573      -14.0427616212  MEMB      68              0.0000000000
      7839        68  SOPE      H4X            15.2407110687       10.6542359028      -13.5055250485  MEMB      68              0.0000000000
      7840        68  SOPE      H4Y            13.9862473879       11.9063604256      -13.8617546694  MEMB      68              0.0000000000
      7841        68  SOPE      C35            15.9147253169       12.7992429354      -13.6860188947  MEMB      68              0.0000000000
      7842        68  SOPE      H5X            15.5044863321       13.7324008857      -14.1278798468  MEMB      68              0.0000000000
      7843        68  SOPE      H5Y            16.9706514582       12.6374953511      -13.9912702384  MEMB      68              0.0000000000
      7844        68  SOPE      C36            16.0947072986       12.8906815552      -12.1456050289  MEMB      68              0.0000000000
      7845        68  SOPE      H6X            16.4359869762       11.9928124092      -11.5873220225  MEMB      68              0.0000000000
      7846        68  SOPE      H6Y            15.1334451709       12.9505152689      -11.5917855254  MEMB      68              0.0000000000
      7847        68  SOPE      C37            17.1014051574       14.0483598292      -11.8442942269  MEMB      68              0.0000000000
      7848        68  SOPE      H7X            16.6082246788       14.9273105911      -12.3117767074  MEMB      68              0.0000000000
      7849        68  SOPE      H7Y            18.1018687757       13.8775679657      -12.2962055247  MEMB      68              0.0000000000
      7850        68  SOPE      C38            17.2673164380       14.3972002912      -10.4088954886  MEMB      68              0.0000000000
      7851        68  SOPE      H8X            18.0235517753       15.2110072710      -10.3967673466  MEMB      68              0.0000000000
      7852        68  SOPE      H8Y            17.6662111592       13.5094591483       -9.8730596982  MEMB      68              0.0000000000
      7853        68  SOPE      C39            16.0539898842       14.9877048911       -9.6823601818  MEMB      68              0.0000000000
      7854        68  SOPE      H9X            16.3942165944       15.0111586187       -8.6249971176  MEMB      68              0.0000000000
      7855        68  SOPE      H9Y            15.3276844001       14.1511940862       -9.7663296324  MEMB      68              0.0000000000
      7856        68  SOPE      C310           15.4661075535       16.2988969722      -10.2913109466  MEMB      68              0.0000000000
      7857        68  SOPE      H10X           14.5849294023       16.5785443871       -9.6751584514  MEMB      68              0.0000000000
      7858        68  SOPE      H10Y           15.0784387684       16.0702763058      -11.3070700915  MEMB      68              0.0000000000
      7859        68  SOPE      C311           16.3477435242       17.4327978158      -10.3200253448  MEMB      68              0.0000000000
      7860        68  SOPE      H11X           15.6126665429       18.2456903061      -10.5022027692  MEMB      68              0.0000000000
      7861        68  SOPE      H11Y           16.9939231668       17.3241193712      -11.2172216170  MEMB      68              0.0000000000
      7862        68  SOPE      C312           17.1595316286       17.8397371715       -9.0709538805  MEMB      68              0.0000000000
      7863        68  SOPE      H12X           17.8921658082       18.6217268050       -9.3643134563  MEMB      68              0.0000000000
      7864        68  SOPE      H12Y           17.7710480827       16.9874168340       -8.7050039557  MEMB      68              0.0000000000
      7865        68  SOPE      C313           16.3468438661       18.2905187293       -7.8768493830  MEMB      68              0.0000000000
      7866        68  SOPE      H13X           15.6127244700       17.5133841876       -7.5744400058  MEMB      68              0.0000000000
      7867        68  SOPE      H13Y           15.6328257409       19.0840900479       -8.1846536931  MEMB      68              0.0000000000
      7868        68  SOPE      C314           17.1847011362       18.6409937645       -6.6055086247  MEMB      68              0.0000000000
      7869        68  SOPE      H14X           17.9224798950       19.4241309650       -6.8824545535  MEMB      68              0.0000000000
      7870        68  SOPE      H14Y           17.7985757237       17.7173646416       -6.5392630876  MEMB      68              0.0000000000
      7871        68  SOPE      C315           16.4695149548       18.9193848001       -5.3001332601  MEMB      68              0.0000000000
      7872        68  SOPE      H15X           15.7548099617       19.7650874387       -5.3912646207  MEMB      68              0.0000000000
      7873        68  SOPE      H15Y           17.2916443752       19.1537796502       -4.5905692705  MEMB      68              0.0000000000
      7874        68  SOPE      C316           15.5218270898       17.8220128184       -4.7487599632  MEMB      68              0.0000000000
      7875        68  SOPE      H16X           15.8842609127       16.8111475655       -5.0335657473  MEMB      68              0.0000000000
      7876        68  SOPE      H16Y           14.5104624199       17.9530327408       -5.1895500242  MEMB      68              0.0000000000
      7877        68  SOPE      C317           15.2858243437       17.9374328446       -3.2632263997  MEMB      68              0.0000000000
      7878        68  SOPE      H17X           14.8034057769       18.9148126446       -3.0480031958  MEMB      68              0.0000000000
      7879        68  SOPE      H17Y           16.3157969600       18.0491447015       -2.8619807164  MEMB      68              0.0000000000
      7880        68  SOPE      C318           14.4892500118       16.7893305046       -2.6564467314  MEMB      68              0.0000000000
      7881        68  SOPE      H18X           15.1175338208       15.8822673849       -2.7861275470  MEMB      68              0.0000000000
      7882        68  SOPE      H18Y           13.5448559452       16.6151849747       -3.2151187889  MEMB      68              0.0000000000
      7883        68  SOPE      H18Z           14.3521028021       16.8576968967       -1.5560661203  MEMB      68              0.0000000000
      7884        69  OSM       N             -16.6306909058       -6.6226188584      -21.5256080848  MEMB      69              0.0000000000
      7885        69  OSM       C15           -16.2368461825       -7.0333543299      -22.9429587024  MEMB      69              0.0000000000
      7886        69  OSM       H15A          -16.1978760873       -8.1068765451      -22.8314635130  MEMB      69              0.0000000000
      7887        69  OSM       H15B          -15.2520400717       -6.6205584782      -23.1046889047  MEMB      69              0.0000000000
      7888        69  OSM       H15C          -16.9403127340       -6.5680134098      -23.6174900057  MEMB      69              0.0000000000
      7889        69  OSM       C14           -15.7177924630       -7.3660546087      -20.5920371474  MEMB      69              0.0000000000
      7890        69  OSM       H14A          -14.7103656574       -6.9798403830      -20.6403025193  MEMB      69              0.0000000000
      7891        69  OSM       H14B          -15.7312665617       -8.4341867284      -20.7511354705  MEMB      69              0.0000000000
      7892        69  OSM       H14C          -16.1723891760       -7.1742933284      -19.6313241471  MEMB      69              0.0000000000
      7893        69  OSM       C13           -16.4675700006       -5.2131303502      -21.1901469177  MEMB      69              0.0000000000
      7894        69  OSM       H13A          -17.1201348557       -4.6234769853      -21.8169386166  MEMB      69              0.0000000000
      7895        69  OSM       H13B          -15.4895233440       -4.7551855610      -21.1795897138  MEMB      69              0.0000000000
      7896        69  OSM       H13C          -16.8414280450       -5.0662629123      -20.1876200825  MEMB      69              0.0000000000
      7897        69  OSM       C12           -18.0289360163       -7.0056186057      -21.1567905166  MEMB      69              0.0000000000
      7898        69  OSM       H12A          -18.6803538610       -6.4081072090      -21.7773022286  MEMB      69              0.0000000000
      7899        69  OSM       H12B          -18.0291074745       -6.6915103330      -20.1234774204  MEMB      69              0.0000000000
      7900        69  OSM       C11           -18.5768340084       -8.4054166143      -21.3007825505  MEMB      69              0.0000000000
      7901        69  OSM       H11A          -18.7283482700       -8.6965335306      -22.3622039060  MEMB      69              0.0000000000
      7902        69  OSM       H11B          -19.5973665305       -8.4100533289      -20.8616779939  MEMB      69              0.0000000000
      7903        69  OSM       P             -18.1846044476      -10.8450242612      -20.5189244243  MEMB      69              0.0000000000
      7904        69  OSM       O13           -19.3087462618      -11.1404751549      -21.4124159230  MEMB      69              0.0000000000
      7905        69  OSM       O14           -16.9318281756      -11.6802810342      -20.7322396577  MEMB      69              0.0000000000
      7906        69  OSM       O11           -18.5702208587      -11.0181432504      -19.0102675821  MEMB      69              0.0000000000
      7907        69  OSM       O12           -17.7505551240       -9.3345704444      -20.6178284890  MEMB      69              0.0000000000
      7908        69  OSM       C1S           -17.9414952779      -10.1845190420      -18.0072267117  MEMB      69              0.0000000000
      7909        69  OSM       H1S           -18.3495849713       -9.1513241455      -18.0243184788  MEMB      69              0.0000000000
      7910        69  OSM       H1T           -16.8437523787      -10.2404221531      -18.1689561261  MEMB      69              0.0000000000
      7911        69  OSM       NF            -17.1013398335       -9.9656860795      -15.6447878778  MEMB      69              0.0000000000
      7912        69  OSM       HNF           -16.4586140133      -10.5389275872      -15.1424867818  MEMB      69              0.0000000000
      7913        69  OSM       C2S           -18.0878295004      -10.6422052576      -16.5010942643  MEMB      69              0.0000000000
      7914        69  OSM       H2S           -19.0612570821      -10.1734093420      -16.2422699335  MEMB      69              0.0000000000
      7915        69  OSM       C3S           -18.0126301703      -12.0667918271      -16.1189189778  MEMB      69              0.0000000000
      7916        69  OSM       H3S           -17.1048423487      -12.6110043111      -16.4566687131  MEMB      69              0.0000000000
      7917        69  OSM       O3            -19.0612600010      -12.7776264999      -16.7886949929  MEMB      69              0.0000000000
      7918        69  OSM       HO3           -19.2323856835      -12.2507598622      -17.5727408147  MEMB      69              0.0000000000
      7919        69  OSM       C4S           -18.0728606390      -12.3313481438      -14.6403261022  MEMB      69              0.0000000000
      7920        69  OSM       H4S           -19.0370720033      -12.1804582917      -14.1328535001  MEMB      69              0.0000000000
      7921        69  OSM       C5S           -17.1268116528      -12.9298304888      -13.9453552421  MEMB      69              0.0000000000
      7922        69  OSM       H5S           -16.2549001436      -13.3443141919      -14.4725866997  MEMB      69              0.0000000000
      7923        69  OSM       C6S           -17.1911112413      -13.2141024462      -12.4634341750  MEMB      69              0.0000000000
      7924        69  OSM       H6S           -16.5781098021      -14.1241079705      -12.2889620444  MEMB      69              0.0000000000
      7925        69  OSM       H6T           -18.2048517608      -13.6415714684      -12.3087697211  MEMB      69              0.0000000000
      7926        69  OSM       C7S           -16.7880370878      -12.1392455128      -11.4360679788  MEMB      69              0.0000000000
      7927        69  OSM       H7S           -16.9854752710      -12.6295661383      -10.4588648934  MEMB      69              0.0000000000
      7928        69  OSM       H7T           -17.4908301669      -11.2811733777      -11.5002177873  MEMB      69              0.0000000000
      7929        69  OSM       C8S           -15.3346114929      -11.6504978520      -11.6301269152  MEMB      69              0.0000000000
      7930        69  OSM       H8S           -15.2574074339      -11.3037837395      -12.6828144692  MEMB      69              0.0000000000
      7931        69  OSM       H8T           -14.6345661162      -12.4785837902      -11.3881948474  MEMB      69              0.0000000000
      7932        69  OSM       C9S           -15.0342739681      -10.5182463646      -10.6917960126  MEMB      69              0.0000000000
      7933        69  OSM       H9S           -15.7048737221       -9.6452484096      -10.8417670582  MEMB      69              0.0000000000
      7934        69  OSM       H9T           -13.9835372754      -10.1760328550      -10.8065266525  MEMB      69              0.0000000000
      7935        69  OSM       C10S          -15.1490986809      -10.8814210466       -9.1987945938  MEMB      69              0.0000000000
      7936        69  OSM       H10S          -14.5651213933      -11.8223214419       -9.1093638482  MEMB      69              0.0000000000
      7937        69  OSM       H10T          -16.1995672916      -11.1172152022       -8.9244997581  MEMB      69              0.0000000000
      7938        69  OSM       C11S          -14.6400503731       -9.7370915835       -8.3213965164  MEMB      69              0.0000000000
      7939        69  OSM       H11S          -15.3471056394       -8.8954403677       -8.4826950210  MEMB      69              0.0000000000
      7940        69  OSM       H11T          -13.6228099779       -9.4705390422       -8.6798552714  MEMB      69              0.0000000000
      7941        69  OSM       C12S          -14.4971200888       -9.8804947848       -6.8519941584  MEMB      69              0.0000000000
      7942        69  OSM       H12S          -13.9995073291       -8.9899788636       -6.4118984983  MEMB      69              0.0000000000
      7943        69  OSM       H12T          -13.8813230766      -10.7869964636       -6.6693201198  MEMB      69              0.0000000000
      7944        69  OSM       C13S          -15.7726264236      -10.1044722134       -6.0975236861  MEMB      69              0.0000000000
      7945        69  OSM       H13S          -16.1382419901      -11.1384424972       -6.2751531749  MEMB      69              0.0000000000
      7946        69  OSM       H13T          -16.5549142916       -9.4167930698       -6.4841038722  MEMB      69              0.0000000000
      7947        69  OSM       C14S          -15.6280094665       -9.6816627157       -4.5413939899  MEMB      69              0.0000000000
      7948        69  OSM       H14S          -15.2530724535       -8.6384954283       -4.4669266457  MEMB      69              0.0000000000
      7949        69  OSM       H14T          -14.8928325536      -10.4034423810       -4.1256172642  MEMB      69              0.0000000000
      7950        69  OSM       C15S          -16.9463102825       -9.7460491422       -3.7444960304  MEMB      69              0.0000000000
      7951        69  OSM       H15S          -17.4582731741       -8.8267918319       -4.1011197498  MEMB      69              0.0000000000
      7952        69  OSM       H15T          -16.8818306665       -9.5692049362       -2.6495583429  MEMB      69              0.0000000000
      7953        69  OSM       C16S          -17.8522697909      -10.9912219423       -3.9733454841  MEMB      69              0.0000000000
      7954        69  OSM       H16S          -17.1927086122      -11.8750395172       -3.8385618785  MEMB      69              0.0000000000
      7955        69  OSM       H16T          -18.1714410493      -10.8537605529       -5.0285978982  MEMB      69              0.0000000000
      7956        69  OSM       C17S          -19.0160842873      -11.1464411717       -3.0155443390  MEMB      69              0.0000000000
      7957        69  OSM       H17S          -19.7481629281      -11.8414602132       -3.4795803642  MEMB      69              0.0000000000
      7958        69  OSM       H17T          -19.5423856178      -10.1697649142       -3.0741225880  MEMB      69              0.0000000000
      7959        69  OSM       C18S          -18.6839542237      -11.5716319140       -1.6047903773  MEMB      69              0.0000000000
      7960        69  OSM       H18S          -19.5995975574      -11.6504159720       -0.9805212258  MEMB      69              0.0000000000
      7961        69  OSM       H18T          -17.9715081920      -10.8778917977       -1.1093450544  MEMB      69              0.0000000000
      7962        69  OSM       H18U          -18.2823135627      -12.6017643426       -1.7135720772  MEMB      69              0.0000000000
      7963        69  OSM       C1F           -17.0394309870       -8.6608964840      -15.4913665519  MEMB      69              0.0000000000
      7964        69  OSM       OF            -17.8297743919       -7.8207994851      -15.9952237875  MEMB      69              0.0000000000
      7965        69  OSM       C2F           -15.9711929338       -8.1678139808      -14.6096203465  MEMB      69              0.0000000000
      7966        69  OSM       H2F           -15.3219484826       -7.5219278397      -15.2386149457  MEMB      69              0.0000000000
      7967        69  OSM       H2G           -15.3176252801       -8.9469022858      -14.1621925946  MEMB      69              0.0000000000
      7968        69  OSM       C3F           -16.5560207453       -7.2083551796      -13.5615327079  MEMB      69              0.0000000000
      7969        69  OSM       H3F           -17.1991119518       -7.8606680019      -12.9328493187  MEMB      69              0.0000000000
      7970        69  OSM       H3G           -17.1649414347       -6.3684004587      -13.9590411255  MEMB      69              0.0000000000
      7971        69  OSM       C4F           -15.5117094054       -6.7280472040      -12.6441730677  MEMB      69              0.0000000000
      7972        69  OSM       H4F           -14.6841296697       -6.0688559631      -12.9831417779  MEMB      69              0.0000000000
      7973        69  OSM       H4G           -14.9692222906       -7.5817147088      -12.1845204264  MEMB      69              0.0000000000
      7974        69  OSM       C5F           -16.0914834057       -5.9680687975      -11.4458827557  MEMB      69              0.0000000000
      7975        69  OSM       H5F           -17.1045955037       -6.3565133342      -11.2070610917  MEMB      69              0.0000000000
      7976        69  OSM       H5G           -16.3141689969       -4.9031621234      -11.6710620268  MEMB      69              0.0000000000
      7977        69  OSM       C6F           -15.2464512171       -6.0368661768      -10.1822603919  MEMB      69              0.0000000000
      7978        69  OSM       H6F           -14.1968274913       -5.7531751738      -10.4105811570  MEMB      69              0.0000000000
      7979        69  OSM       H6G           -15.3481549173       -7.0723610969       -9.7927382674  MEMB      69              0.0000000000
      7980        69  OSM       C7F           -15.7085497175       -4.8897793579       -9.2057151763  MEMB      69              0.0000000000
      7981        69  OSM       H7F           -15.8082453648       -3.9109352072       -9.7217055507  MEMB      69              0.0000000000
      7982        69  OSM       H7G           -14.9064858569       -4.6756932289       -8.4673512541  MEMB      69              0.0000000000
      7983        69  OSM       C8F           -16.9844115263       -5.1786511479       -8.4580964110  MEMB      69              0.0000000000
      7984        69  OSM       H8F           -17.7814619844       -5.3625523872       -9.2099022128  MEMB      69              0.0000000000
      7985        69  OSM       H8G           -17.3309768610       -4.2529796451       -7.9508035835  MEMB      69              0.0000000000
      7986        69  OSM       C9F           -16.7161198778       -6.2953048090       -7.4815525949  MEMB      69              0.0000000000
      7987        69  OSM       H9F           -16.7404111114       -7.3253334795       -7.8668468337  MEMB      69              0.0000000000
      7988        69  OSM       C10F          -16.4320215173       -6.2772796090       -6.2020952050  MEMB      69              0.0000000000
      7989        69  OSM       H10F          -16.1375175046       -7.2473459159       -5.7752007212  MEMB      69              0.0000000000
      7990        69  OSM       C11F          -16.2677434063       -5.1631621375       -5.2511304951  MEMB      69              0.0000000000
      7991        69  OSM       H11F          -16.2564372396       -4.1966074161       -5.7988214202  MEMB      69              0.0000000000
      7992        69  OSM       H11G          -15.2568805432       -5.3754993610       -4.8419971507  MEMB      69              0.0000000000
      7993        69  OSM       C12F          -17.3214392299       -4.9706731713       -4.0848258554  MEMB      69              0.0000000000
      7994        69  OSM       H12F          -18.1670235240       -4.3560223295       -4.4610095246  MEMB      69              0.0000000000
      7995        69  OSM       H12G          -16.8188211959       -4.3166012081       -3.3405911796  MEMB      69              0.0000000000
      7996        69  OSM       C13F          -17.7950510294       -6.2523978332       -3.3604943719  MEMB      69              0.0000000000
      7997        69  OSM       H13F          -16.9953205232       -7.0220961161       -3.4086241420  MEMB      69              0.0000000000
      7998        69  OSM       H13G          -18.5593374353       -6.6703862413       -4.0500401842  MEMB      69              0.0000000000
      7999        69  OSM       C14F          -18.3796816864       -6.1482105692       -1.9322506707  MEMB      69              0.0000000000
      8000        69  OSM       H14F          -18.5967202727       -7.1912420226       -1.6171303755  MEMB      69              0.0000000000
      8001        69  OSM       H14G          -19.3511355048       -5.6286427547       -2.0759423511  MEMB      69              0.0000000000
      8002        69  OSM       C15F          -17.5732152048       -5.5313197753       -0.8851465194  MEMB      69              0.0000000000
      8003        69  OSM       H15F          -17.5723766824       -4.4668666426       -1.2033607797  MEMB      69              0.0000000000
      8004        69  OSM       H15G          -16.5675561722       -5.9994933961       -0.9466619762  MEMB      69              0.0000000000
      8005        69  OSM       C16F          -18.1568730171       -5.6514497752        0.5744656471  MEMB      69              0.0000000000
      8006        69  OSM       H16F          -18.3277758733       -6.7033075544        0.8886449990  MEMB      69              0.0000000000
      8007        69  OSM       H16G          -19.1896210789       -5.3052358692        0.3556318151  MEMB      69              0.0000000000
      8008        69  OSM       C17F          -17.4980875034       -4.6468629389        1.5460982141  MEMB      69              0.0000000000
      8009        69  OSM       H17F          -17.6604961068       -4.9669209434        2.5975289822  MEMB      69              0.0000000000
      8010        69  OSM       H17G          -17.9537922097       -3.6442767623        1.3995539399  MEMB      69              0.0000000000
      8011        69  OSM       C18F          -15.9905148962       -4.4789969816        1.3649803806  MEMB      69              0.0000000000
      8012        69  OSM       H18F          -15.5685013390       -3.9419921311        2.2412529179  MEMB      69              0.0000000000
      8013        69  OSM       H18G          -15.7897190348       -3.8408934605        0.4779480049  MEMB      69              0.0000000000
      8014        69  OSM       H18H          -15.5315292908       -5.4906322740        1.3492577915  MEMB      69              0.0000000000
      8015        70  SAPC      N             -20.4345681327        4.3478755291      -19.3451114411  MEMB      70              0.0000000000
      8016        70  SAPC      C12           -19.9396273058        4.6961981720      -20.6519855873  MEMB      70              0.0000000000
      8017        70  SAPC      H12A          -20.3334001851        3.9839908783      -21.3619880473  MEMB      70              0.0000000000
      8018        70  SAPC      H12B          -18.8749040624        4.5164251734      -20.6308626950  MEMB      70              0.0000000000
      8019        70  SAPC      C13           -20.4283631903        2.8527662086      -19.1700717234  MEMB      70              0.0000000000
      8020        70  SAPC      H13A          -19.3945582902        2.6296207404      -18.9513169409  MEMB      70              0.0000000000
      8021        70  SAPC      H13B          -21.0591889449        2.6398415476      -18.3197057976  MEMB      70              0.0000000000
      8022        70  SAPC      H13C          -20.8335070756        2.2609712893      -19.9775597555  MEMB      70              0.0000000000
      8023        70  SAPC      C14           -19.5940815333        4.9820219424      -18.2619944942  MEMB      70              0.0000000000
      8024        70  SAPC      H14A          -18.6024790815        4.6068364216      -18.4678107849  MEMB      70              0.0000000000
      8025        70  SAPC      H14B          -19.6125454671        6.0567471349      -18.3669938799  MEMB      70              0.0000000000
      8026        70  SAPC      H14C          -19.9288850766        4.7840860224      -17.2544588393  MEMB      70              0.0000000000
      8027        70  SAPC      C15           -21.8480894708        4.8375584256      -19.2369150000  MEMB      70              0.0000000000
      8028        70  SAPC      H15A          -22.4472088235        4.5488257801      -20.0878493869  MEMB      70              0.0000000000
      8029        70  SAPC      H15B          -22.3323538016        4.3750411952      -18.3895862520  MEMB      70              0.0000000000
      8030        70  SAPC      H15C          -21.9293024964        5.9098321928      -19.1367468876  MEMB      70              0.0000000000
      8031        70  SAPC      C11           -20.1407903421        6.1703519343      -21.1435283830  MEMB      70              0.0000000000
      8032        70  SAPC      H11A          -21.2165742154        6.4050932025      -21.2915366035  MEMB      70              0.0000000000
      8033        70  SAPC      H11B          -19.7172705679        6.3735900634      -22.1503284166  MEMB      70              0.0000000000
      8034        70  SAPC      P             -17.9716240294        7.4863832332      -20.4946371637  MEMB      70              0.0000000000
      8035        70  SAPC      O13           -17.2085943742        6.3272171974      -19.9087414658  MEMB      70              0.0000000000
      8036        70  SAPC      O14           -17.8444931532        7.8449684875      -21.9262437121  MEMB      70              0.0000000000
      8037        70  SAPC      O12           -19.5167132065        7.1448129990      -20.3115002689  MEMB      70              0.0000000000
      8038        70  SAPC      O11           -17.8371936660        8.8548389001      -19.5492707413  MEMB      70              0.0000000000
      8039        70  SAPC      C1            -18.9168712386        9.3102347637      -18.7475243110  MEMB      70              0.0000000000
      8040        70  SAPC      HA            -19.4788694848       10.0455020600      -19.3622283742  MEMB      70              0.0000000000
      8041        70  SAPC      HB            -19.5925019017        8.5354788134      -18.3261010934  MEMB      70              0.0000000000
      8042        70  SAPC      C2            -18.1924429658       10.0642917662      -17.6318638944  MEMB      70              0.0000000000
      8043        70  SAPC      HS            -17.4354915372       10.7604727036      -18.0521946281  MEMB      70              0.0000000000
      8044        70  SAPC      O21           -17.6122533755        9.1707266704      -16.7351373604  MEMB      70              0.0000000000
      8045        70  SAPC      C21           -16.8420108379        9.5848102991      -15.7516249283  MEMB      70              0.0000000000
      8046        70  SAPC      O22           -16.3968392658       10.6636796047      -15.4933332468  MEMB      70              0.0000000000
      8047        70  SAPC      C22           -16.5574275318        8.3595316923      -14.8380364483  MEMB      70              0.0000000000
      8048        70  SAPC      H2R           -15.9808484094        8.6655459319      -13.9390185842  MEMB      70              0.0000000000
      8049        70  SAPC      H2S           -17.5426511590        7.8966910582      -14.6156984903  MEMB      70              0.0000000000
      8050        70  SAPC      C3            -19.1886417782       11.0196699443      -16.8855462676  MEMB      70              0.0000000000
      8051        70  SAPC      HX            -19.5556654730       11.7835908323      -17.6039050624  MEMB      70              0.0000000000
      8052        70  SAPC      HY            -18.6473396711       11.6734619510      -16.1686993690  MEMB      70              0.0000000000
      8053        70  SAPC      O31           -20.3090846223       10.2855362193      -16.3372545859  MEMB      70              0.0000000000
      8054        70  SAPC      C31           -20.3278989968       10.0982479197      -15.0275744105  MEMB      70              0.0000000000
      8055        70  SAPC      O32           -19.5586414516       10.6311659674      -14.2611679136  MEMB      70              0.0000000000
      8056        70  SAPC      C32           -21.5739171678        9.2192273340      -14.7408356502  MEMB      70              0.0000000000
      8057        70  SAPC      H2X           -21.5792885407        8.4788463031      -15.5691642286  MEMB      70              0.0000000000
      8058        70  SAPC      H2Y           -22.4199823812        9.9359369659      -14.8102747817  MEMB      70              0.0000000000
      8059        70  SAPC      C23           -15.9205777681        7.0992932365      -15.5266828683  MEMB      70              0.0000000000
      8060        70  SAPC      H3R           -14.8440401086        7.2799491664      -15.7334453510  MEMB      70              0.0000000000
      8061        70  SAPC      H3S           -16.4884598124        6.9045094967      -16.4615036119  MEMB      70              0.0000000000
      8062        70  SAPC      C24           -16.0634468557        5.8268685957      -14.7745091899  MEMB      70              0.0000000000
      8063        70  SAPC      H4R           -15.4411914854        5.0684456639      -15.2959628590  MEMB      70              0.0000000000
      8064        70  SAPC      H4S           -17.0787622179        5.3973705696      -14.9123038707  MEMB      70              0.0000000000
      8065        70  SAPC      C25           -15.5243352225        5.9001697394      -13.3689005609  MEMB      70              0.0000000000
      8066        70  SAPC      H5R           -14.4289044850        5.9829372368      -13.3124965785  MEMB      70              0.0000000000
      8067        70  SAPC      C26           -16.2250684747        6.1035859368      -12.2559797886  MEMB      70              0.0000000000
      8068        70  SAPC      H6R           -15.6532428533        5.9868427188      -11.3235703099  MEMB      70              0.0000000000
      8069        70  SAPC      C27           -17.7007724528        6.2785078490      -12.0802832508  MEMB      70              0.0000000000
      8070        70  SAPC      H7R           -18.1804435131        6.6111964137      -13.0255632470  MEMB      70              0.0000000000
      8071        70  SAPC      H7S           -17.7611553046        6.9692300257      -11.2121940743  MEMB      70              0.0000000000
      8072        70  SAPC      C28           -18.3677041669        4.9886620971      -11.6200419506  MEMB      70              0.0000000000
      8073        70  SAPC      H8R           -18.8645824351        4.4542412170      -12.4431498308  MEMB      70              0.0000000000
      8074        70  SAPC      C29           -18.4604296475        4.6172586911      -10.3359002678  MEMB      70              0.0000000000
      8075        70  SAPC      H9R           -19.1930928585        3.8264294374      -10.1172826649  MEMB      70              0.0000000000
      8076        70  SAPC      C210          -17.9452026612        5.3887761660       -9.1797990461  MEMB      70              0.0000000000
      8077        70  SAPC      H10R          -18.7474681159        5.1494954380       -8.4494317707  MEMB      70              0.0000000000
      8078        70  SAPC      H10S          -17.9705979087        6.4918639802       -9.3096967959  MEMB      70              0.0000000000
      8079        70  SAPC      C211          -16.5972507084        4.8584194579       -8.7588740377  MEMB      70              0.0000000000
      8080        70  SAPC      H11R          -16.2198192180        3.9541858985       -9.2587819510  MEMB      70              0.0000000000
      8081        70  SAPC      C212          -15.7806729723        5.3914197210       -7.7883216039  MEMB      70              0.0000000000
      8082        70  SAPC      H12R          -14.7951932552        4.9372432982       -7.6078963016  MEMB      70              0.0000000000
      8083        70  SAPC      C213          -16.0505714900        6.6979703740       -6.9718329413  MEMB      70              0.0000000000
      8084        70  SAPC      H13R          -15.1417086954        6.8037799713       -6.3416793526  MEMB      70              0.0000000000
      8085        70  SAPC      H13S          -16.9302895789        6.5601109502       -6.3074452524  MEMB      70              0.0000000000
      8086        70  SAPC      C214          -16.1921070391        8.0525262118       -7.6600793267  MEMB      70              0.0000000000
      8087        70  SAPC      H14R          -15.4774615455        8.2310550576       -8.4770302356  MEMB      70              0.0000000000
      8088        70  SAPC      C215          -17.1200480821        9.0116080494       -7.4968340303  MEMB      70              0.0000000000
      8089        70  SAPC      H15R          -16.8786126869        9.8854446849       -8.1198250475  MEMB      70              0.0000000000
      8090        70  SAPC      C216          -18.3230395806        9.1628361515       -6.6515379312  MEMB      70              0.0000000000
      8091        70  SAPC      H16R          -18.5466317487        8.1233282347       -6.3294346490  MEMB      70              0.0000000000
      8092        70  SAPC      H16S          -19.2355120762        9.4078621951       -7.2360699778  MEMB      70              0.0000000000
      8093        70  SAPC      C217          -17.9916628164       10.0953195935       -5.4140588877  MEMB      70              0.0000000000
      8094        70  SAPC      H17R          -18.8896509868       10.2493267240       -4.7782759048  MEMB      70              0.0000000000
      8095        70  SAPC      H17S          -17.5895888610       11.0248825834       -5.8707537693  MEMB      70              0.0000000000
      8096        70  SAPC      C218          -16.9174003644        9.6255309930       -4.3915588926  MEMB      70              0.0000000000
      8097        70  SAPC      H18R          -16.0200185499        9.1797874955       -4.8714966419  MEMB      70              0.0000000000
      8098        70  SAPC      H18S          -17.4115989632        8.8742049959       -3.7391801531  MEMB      70              0.0000000000
      8099        70  SAPC      C219          -16.5221221193       10.8225841957       -3.5136276384  MEMB      70              0.0000000000
      8100        70  SAPC      H19R          -15.8873895713       11.5560950438       -4.0552893781  MEMB      70              0.0000000000
      8101        70  SAPC      H19S          -16.0191318219       10.4198308703       -2.6085809598  MEMB      70              0.0000000000
      8102        70  SAPC      C220          -17.6759529425       11.6021153686       -2.8445075708  MEMB      70              0.0000000000
      8103        70  SAPC      H20R          -17.2503772170       12.2376452633       -2.0387122598  MEMB      70              0.0000000000
      8104        70  SAPC      H20S          -18.2417653991       10.8755113611       -2.2230380269  MEMB      70              0.0000000000
      8105        70  SAPC      H20T          -18.3570473340       12.1294692578       -3.5461692911  MEMB      70              0.0000000000
      8106        70  SAPC      C33           -21.3211108900        8.4859047061      -13.4285237716  MEMB      70              0.0000000000
      8107        70  SAPC      H3X           -21.2440251382        9.2678925150      -12.6431108883  MEMB      70              0.0000000000
      8108        70  SAPC      H3Y           -20.3822743630        7.9090894655      -13.2864276289  MEMB      70              0.0000000000
      8109        70  SAPC      C34           -22.4890921405        7.4971324899      -13.0461121555  MEMB      70              0.0000000000
      8110        70  SAPC      H4X           -22.6339055901        6.8880400405      -13.9639121570  MEMB      70              0.0000000000
      8111        70  SAPC      H4Y           -23.3933736511        8.1081068636      -12.8380108410  MEMB      70              0.0000000000
      8112        70  SAPC      C35           -22.1652765633        6.4523110547      -11.9280832575  MEMB      70              0.0000000000
      8113        70  SAPC      H5X           -21.3329806068        5.7608817391      -12.1801346238  MEMB      70              0.0000000000
      8114        70  SAPC      H5Y           -23.1283134177        5.9007225514      -11.8767849482  MEMB      70              0.0000000000
      8115        70  SAPC      C36           -22.1647409920        7.2249023043      -10.5616661684  MEMB      70              0.0000000000
      8116        70  SAPC      H6X           -23.1144500513        7.7719817931      -10.3797924375  MEMB      70              0.0000000000
      8117        70  SAPC      H6Y           -21.3477209601        7.9777014412      -10.5520428489  MEMB      70              0.0000000000
      8118        70  SAPC      C37           -21.9901724635        6.3151446673       -9.3282785395  MEMB      70              0.0000000000
      8119        70  SAPC      H7X           -20.9572341483        5.9063684327       -9.3444526041  MEMB      70              0.0000000000
      8120        70  SAPC      H7Y           -22.7476494501        5.5215761936       -9.5037736967  MEMB      70              0.0000000000
      8121        70  SAPC      C38           -22.0276180170        7.0949333369       -7.9588557702  MEMB      70              0.0000000000
      8122        70  SAPC      H8X           -21.5638470661        8.1007221389       -8.0461849674  MEMB      70              0.0000000000
      8123        70  SAPC      H8Y           -21.4752444317        6.4515238019       -7.2410615899  MEMB      70              0.0000000000
      8124        70  SAPC      C39           -23.5305978608        7.2088125000       -7.4061113584  MEMB      70              0.0000000000
      8125        70  SAPC      H9X           -23.8991311956        6.1841767286       -7.6266236796  MEMB      70              0.0000000000
      8126        70  SAPC      H9Y           -24.0969201433        7.9348678954       -8.0277574191  MEMB      70              0.0000000000
      8127        70  SAPC      C310          -23.5976252620        7.4179803317       -5.8622480910  MEMB      70              0.0000000000
      8128        70  SAPC      H10X          -23.2372331337        6.5256585252       -5.3070897876  MEMB      70              0.0000000000
      8129        70  SAPC      H10Y          -24.6475730615        7.4304699931       -5.4992409852  MEMB      70              0.0000000000
      8130        70  SAPC      C311          -22.7268437995        8.6081480511       -5.3822098052  MEMB      70              0.0000000000
      8131        70  SAPC      H11X          -22.9560190483        9.5119261865       -5.9863493888  MEMB      70              0.0000000000
      8132        70  SAPC      H11Y          -21.6384141935        8.4363362395       -5.5240637152  MEMB      70              0.0000000000
      8133        70  SAPC      C312          -22.9358624731        8.9891822519       -3.8751552490  MEMB      70              0.0000000000
      8134        70  SAPC      H12X          -23.9983439227        9.0172678016       -3.5516352862  MEMB      70              0.0000000000
      8135        70  SAPC      H12Y          -22.5966824780       10.0457685444       -3.8212718373  MEMB      70              0.0000000000
      8136        70  SAPC      C313          -22.1948147023        8.1773063773       -2.7850170146  MEMB      70              0.0000000000
      8137        70  SAPC      H13X          -22.2223831868        7.0818745215       -2.9682931762  MEMB      70              0.0000000000
      8138        70  SAPC      H13Y          -22.7586588580        8.2314701826       -1.8292626882  MEMB      70              0.0000000000
      8139        70  SAPC      C314          -20.7903811039        8.5219365415       -2.4013955719  MEMB      70              0.0000000000
      8140        70  SAPC      H14X          -20.7507015747        9.3656618532       -1.6796796738  MEMB      70              0.0000000000
      8141        70  SAPC      H14Y          -20.1890602524        8.7792034248       -3.2994761836  MEMB      70              0.0000000000
      8142        70  SAPC      C315          -20.1843535352        7.3061987996       -1.6694935578  MEMB      70              0.0000000000
      8143        70  SAPC      H15X          -20.9533671285        6.8112501430       -1.0386497550  MEMB      70              0.0000000000
      8144        70  SAPC      H15Y          -19.4316203664        7.6803160517       -0.9430297685  MEMB      70              0.0000000000
      8145        70  SAPC      C316          -19.2520243449        6.4892781042       -2.6113562497  MEMB      70              0.0000000000
      8146        70  SAPC      H16X          -18.3806368747        7.0809948982       -2.9647349175  MEMB      70              0.0000000000
      8147        70  SAPC      H16Y          -19.9297066405        6.2641142792       -3.4624555147  MEMB      70              0.0000000000
      8148        70  SAPC      C317          -18.9422308395        5.2029627846       -1.8856930386  MEMB      70              0.0000000000
      8149        70  SAPC      H17X          -19.8519779269        4.5704550977       -1.8043598301  MEMB      70              0.0000000000
      8150        70  SAPC      H17Y          -18.5750036050        5.4802997073       -0.8744817564  MEMB      70              0.0000000000
      8151        70  SAPC      C318          -17.9462233585        4.2643248916       -2.5746046615  MEMB      70              0.0000000000
      8152        70  SAPC      H18X          -16.9379908436        4.7278354284       -2.5203259772  MEMB      70              0.0000000000
      8153        70  SAPC      H18Y          -18.2247272331        4.0531846822       -3.6292031866  MEMB      70              0.0000000000
      8154        70  SAPC      H18Z          -17.8276745747        3.2726001712       -2.0880346546  MEMB      70              0.0000000000
      8155        71  CHL1      C3            -13.1450093467      -15.4473247677      -17.3865200000  MEMB      71              0.0000000000
      8156        71  CHL1      H3            -13.3506516564      -14.6313356192      -16.6611400000  MEMB      71              0.0000000000
      8157        71  CHL1      O3            -13.8109596533      -15.3407128323      -18.6134800000  MEMB      71              0.0000000000
      8158        71  CHL1      H3'           -14.1593584146      -14.4465467818      -18.6396500000  MEMB      71              0.0000000000
      8159        71  CHL1      C4            -11.6048037633      -15.4440093412      -17.6534100000  MEMB      71              0.0000000000
      8160        71  CHL1      H4A           -11.2785404538      -16.3322148992      -18.2356300000  MEMB      71              0.0000000000
      8161        71  CHL1      H4B           -11.2581591511      -14.5568534919      -18.2253500000  MEMB      71              0.0000000000
      8162        71  CHL1      C5            -10.9241246544      -15.5105578259      -16.3089100000  MEMB      71              0.0000000000
      8163        71  CHL1      C6            -10.1164367638      -14.5568660807      -15.9131500000  MEMB      71              0.0000000000
      8164        71  CHL1      H6             -9.9530604414      -13.6541735639      -16.5201600000  MEMB      71              0.0000000000
      8165        71  CHL1      C7             -9.2991852502      -14.6675047828      -14.6338900000  MEMB      71              0.0000000000
      8166        71  CHL1      H7A            -8.2534267953      -14.4630607597      -14.9483900000  MEMB      71              0.0000000000
      8167        71  CHL1      H7B            -9.6929734725      -13.8983508747      -13.9355700000  MEMB      71              0.0000000000
      8168        71  CHL1      C8             -9.4558475819      -15.9689375394      -13.7709000000  MEMB      71              0.0000000000
      8169        71  CHL1      H8             -8.6788363810      -16.6826404751      -14.1190400000  MEMB      71              0.0000000000
      8170        71  CHL1      C14            -9.1993838307      -15.8059142603      -12.2615500000  MEMB      71              0.0000000000
      8171        71  CHL1      H14           -10.0709002139      -15.1734928492      -11.9880100000  MEMB      71              0.0000000000
      8172        71  CHL1      C15            -7.9011539602      -15.1063126638      -11.8539300000  MEMB      71              0.0000000000
      8173        71  CHL1      H15A           -6.9796528262      -15.4363885612      -12.3794800000  MEMB      71              0.0000000000
      8174        71  CHL1      H15B           -8.0502360702      -14.0093435971      -11.9474900000  MEMB      71              0.0000000000
      8175        71  CHL1      C16            -7.7664452474      -15.5536805612      -10.3564200000  MEMB      71              0.0000000000
      8176        71  CHL1      H16A           -6.8032838944      -16.1008028756      -10.2710000000  MEMB      71              0.0000000000
      8177        71  CHL1      H16B           -7.8927415812      -14.7179091324       -9.6354100000  MEMB      71              0.0000000000
      8178        71  CHL1      C17            -8.8728615865      -16.5965269192      -10.0600200000  MEMB      71              0.0000000000
      8179        71  CHL1      H17            -9.7846749688      -16.0652343649       -9.7126900000  MEMB      71              0.0000000000
      8180        71  CHL1      C13            -9.3131238208      -17.1028668956      -11.4544700000  MEMB      71              0.0000000000
      8181        71  CHL1      C18            -8.3106856523      -18.0924806765      -12.0581100000  MEMB      71              0.0000000000
      8182        71  CHL1      H18A           -7.8259798516      -18.6774540003      -11.2474400000  MEMB      71              0.0000000000
      8183        71  CHL1      H18B           -8.8268909103      -18.8062557532      -12.7351400000  MEMB      71              0.0000000000
      8184        71  CHL1      H18C           -7.4542907096      -17.5614116121      -12.5259600000  MEMB      71              0.0000000000
      8185        71  CHL1      C12           -10.8289497117      -17.5144200497      -11.5511800000  MEMB      71              0.0000000000
      8186        71  CHL1      H12A          -10.9303550783      -18.4247792639      -10.9224500000  MEMB      71              0.0000000000
      8187        71  CHL1      H12B          -11.5740193865      -16.8192706962      -11.1085100000  MEMB      71              0.0000000000
      8188        71  CHL1      C11           -11.2874392643      -17.7474550118      -12.9886000000  MEMB      71              0.0000000000
      8189        71  CHL1      H11A          -10.7435410950      -18.6739674606      -13.2715600000  MEMB      71              0.0000000000
      8190        71  CHL1      H11B          -12.3765516858      -17.9655090082      -13.0133600000  MEMB      71              0.0000000000
      8191        71  CHL1      C9            -10.8641979556      -16.5857559590      -14.0012100000  MEMB      71              0.0000000000
      8192        71  CHL1      H9            -11.5748913320      -15.8170802306      -13.6292300000  MEMB      71              0.0000000000
      8193        71  CHL1      C10           -11.3467132245      -16.7626408769      -15.4679100000  MEMB      71              0.0000000000
      8194        71  CHL1      C19           -10.6910877900      -18.0802969973      -15.9323400000  MEMB      71              0.0000000000
      8195        71  CHL1      H19A          -11.2002777420      -18.9967241275      -15.5646200000  MEMB      71              0.0000000000
      8196        71  CHL1      H19B          -10.5355992588      -18.0593996970      -17.0322100000  MEMB      71              0.0000000000
      8197        71  CHL1      H19C           -9.6519621904      -18.1365092981      -15.5432700000  MEMB      71              0.0000000000
      8198        71  CHL1      C1            -12.9122763069      -16.9699630544      -15.4335500000  MEMB      71              0.0000000000
      8199        71  CHL1      H1A           -13.1357760884      -18.0183702326      -15.1416700000  MEMB      71              0.0000000000
      8200        71  CHL1      H1B           -13.3320250608      -16.2218686643      -14.7275100000  MEMB      71              0.0000000000
      8201        71  CHL1      C2            -13.5117787228      -16.7604557472      -16.8021400000  MEMB      71              0.0000000000
      8202        71  CHL1      H2A           -14.5877126827      -17.0223892554      -16.7122200000  MEMB      71              0.0000000000
      8203        71  CHL1      H2B           -13.0652281435      -17.5612088038      -17.4296000000  MEMB      71              0.0000000000
      8204        71  CHL1      C20            -8.4732397904      -17.6035269487       -8.9216800000  MEMB      71              0.0000000000
      8205        71  CHL1      H20            -7.5960569102      -18.0763151612       -9.4129600000  MEMB      71              0.0000000000
      8206        71  CHL1      C21            -9.4918252156      -18.7394889572       -8.6290900000  MEMB      71              0.0000000000
      8207        71  CHL1      H21A          -10.4403597721      -18.3799966687       -8.1759000000  MEMB      71              0.0000000000
      8208        71  CHL1      H21B           -8.9845951664      -19.5156007469       -8.0169700000  MEMB      71              0.0000000000
      8209        71  CHL1      H21C           -9.9321775740      -19.1889400166       -9.5447300000  MEMB      71              0.0000000000
      8210        71  CHL1      C22            -8.0550509137      -16.8300789317       -7.6350100000  MEMB      71              0.0000000000
      8211        71  CHL1      H22A           -7.1535236519      -16.2095627819       -7.8261400000  MEMB      71              0.0000000000
      8212        71  CHL1      H22B           -8.8535632406      -16.1162930567       -7.3397100000  MEMB      71              0.0000000000
      8213        71  CHL1      C23            -7.7742242198      -17.6802530546       -6.3688400000  MEMB      71              0.0000000000
      8214        71  CHL1      H23A           -8.6780239154      -18.2665042420       -6.0972200000  MEMB      71              0.0000000000
      8215        71  CHL1      H23B           -7.0527310131      -18.4731547807       -6.6605400000  MEMB      71              0.0000000000
      8216        71  CHL1      C24            -7.1624043889      -16.9007542344       -5.1447100000  MEMB      71              0.0000000000
      8217        71  CHL1      H24A           -6.2472058656      -16.4203221890       -5.5520300000  MEMB      71              0.0000000000
      8218        71  CHL1      H24B           -7.8810160204      -16.1267674104       -4.7999300000  MEMB      71              0.0000000000
      8219        71  CHL1      C25            -6.8008201871      -17.8339534215       -4.0322700000  MEMB      71              0.0000000000
      8220        71  CHL1      H25            -6.3888950628      -18.6810376325       -4.6214100000  MEMB      71              0.0000000000
      8221        71  CHL1      C26            -5.8452527502      -17.1970081767       -3.0834900000  MEMB      71              0.0000000000
      8222        71  CHL1      H26A           -5.9164219691      -17.6147262002       -2.0564700000  MEMB      71              0.0000000000
      8223        71  CHL1      H26B           -4.7859020576      -17.3202239894       -3.3948100000  MEMB      71              0.0000000000
      8224        71  CHL1      H26C           -6.1077159962      -16.1177797550       -3.1099500000  MEMB      71              0.0000000000
      8225        71  CHL1      C27            -8.0214536206      -18.2362837917       -3.1780400000  MEMB      71              0.0000000000
      8226        71  CHL1      H27A           -7.6901433783      -18.8264312017       -2.2969700000  MEMB      71              0.0000000000
      8227        71  CHL1      H27B           -8.5217209677      -17.2833591686       -2.9024000000  MEMB      71              0.0000000000
      8228        71  CHL1      H27C           -8.7333057815      -18.8805600981       -3.7370600000  MEMB      71              0.0000000000
      8229        72  OSM       N               9.1491676409      -18.2488755837      -21.2921530500  MEMB      72              0.0000000000
      8230        72  OSM       C15            10.0534187800      -17.2801813409      -21.9330759072  MEMB      72              0.0000000000
      8231        72  OSM       H15A            9.9131232009      -17.1564307853      -22.9967502536  MEMB      72              0.0000000000
      8232        72  OSM       H15B           11.0779382474      -17.5572615789      -21.7331105154  MEMB      72              0.0000000000
      8233        72  OSM       H15C            9.9329330739      -16.2991856950      -21.4977244989  MEMB      72              0.0000000000
      8234        72  OSM       C14             9.2825050532      -19.5913229578      -21.9670622286  MEMB      72              0.0000000000
      8235        72  OSM       H14A            8.5307986311      -20.3268497536      -21.7214246986  MEMB      72              0.0000000000
      8236        72  OSM       H14B           10.2976745019      -19.8737225639      -21.7302472183  MEMB      72              0.0000000000
      8237        72  OSM       H14C            9.2870016946      -19.3410585389      -23.0176561103  MEMB      72              0.0000000000
      8238        72  OSM       C13             9.4727630345      -18.2972650926      -19.8106776486  MEMB      72              0.0000000000
      8239        72  OSM       H13A            9.7009444958      -17.3116676996      -19.4326154704  MEMB      72              0.0000000000
      8240        72  OSM       H13B           10.3561130751      -18.8984385568      -19.6535685448  MEMB      72              0.0000000000
      8241        72  OSM       H13C            8.7097580645      -18.6915729441      -19.1558915301  MEMB      72              0.0000000000
      8242        72  OSM       C12             7.7054026606      -17.7113055102      -21.4970912945  MEMB      72              0.0000000000
      8243        72  OSM       H12A            7.5295395764      -17.8035081689      -22.5586800967  MEMB      72              0.0000000000
      8244        72  OSM       H12B            7.6531707044      -16.6628097053      -21.2434613340  MEMB      72              0.0000000000
      8245        72  OSM       C11             6.4364468269      -18.4677417331      -20.8862723707  MEMB      72              0.0000000000
      8246        72  OSM       H11A            5.5420281939      -17.8255982577      -21.0345557844  MEMB      72              0.0000000000
      8247        72  OSM       H11B            6.6924311160      -18.4448721541      -19.8054069472  MEMB      72              0.0000000000
      8248        72  OSM       P               5.0908012221      -20.7002356899      -20.7754012632  MEMB      72              0.0000000000
      8249        72  OSM       O13             3.9229316407      -19.8826842020      -21.0703475971  MEMB      72              0.0000000000
      8250        72  OSM       O14             5.1596232066      -22.1031205616      -21.2504152852  MEMB      72              0.0000000000
      8251        72  OSM       O11             5.2507117642      -20.6852670941      -19.1448945342  MEMB      72              0.0000000000
      8252        72  OSM       O12             6.3194120504      -19.8226827391      -21.3726088231  MEMB      72              0.0000000000
      8253        72  OSM       C1S             6.4500900858      -21.3186531561      -18.6769670090  MEMB      72              0.0000000000
      8254        72  OSM       H1S             7.3269691081      -20.6773335086      -18.9095893484  MEMB      72              0.0000000000
      8255        72  OSM       H1T             6.5123475429      -22.3644512073      -19.0467659787  MEMB      72              0.0000000000
      8256        72  OSM       NF              7.6459913226      -21.4622569780      -16.5732816439  MEMB      72              0.0000000000
      8257        72  OSM       HNF             7.9426658935      -22.4069953688      -16.4572545830  MEMB      72              0.0000000000
      8258        72  OSM       C2S             6.2951289671      -21.3988120712      -17.1770986403  MEMB      72              0.0000000000
      8259        72  OSM       H2S             5.7783947049      -20.4823988347      -16.8200364109  MEMB      72              0.0000000000
      8260        72  OSM       C3S             5.4212087031      -22.6529299388      -16.8657653628  MEMB      72              0.0000000000
      8261        72  OSM       H3S             5.9659526138      -23.5214087542      -17.2939242608  MEMB      72              0.0000000000
      8262        72  OSM       O3              4.0684790502      -22.6396666362      -17.3660447722  MEMB      72              0.0000000000
      8263        72  OSM       HO3             4.0849083954      -21.8890132820      -17.9642500023  MEMB      72              0.0000000000
      8264        72  OSM       C4S             5.2415655715      -22.8245184737      -15.3937582315  MEMB      72              0.0000000000
      8265        72  OSM       H4S             4.4354531412      -22.2240692213      -14.9469435932  MEMB      72              0.0000000000
      8266        72  OSM       C5S             5.9777970031      -23.6889901976      -14.6768715157  MEMB      72              0.0000000000
      8267        72  OSM       H5S             6.6342222107      -24.3664612274      -15.2426797736  MEMB      72              0.0000000000
      8268        72  OSM       C6S             5.8284777585      -23.9151013632      -13.2216442742  MEMB      72              0.0000000000
      8269        72  OSM       H6S             6.7960967410      -23.6369739488      -12.7518783086  MEMB      72              0.0000000000
      8270        72  OSM       H6T             5.7296739506      -25.0216294863      -13.2340606497  MEMB      72              0.0000000000
      8271        72  OSM       C7S             4.7604866074      -23.2480686403      -12.3652879278  MEMB      72              0.0000000000
      8272        72  OSM       H7S             3.8043056488      -23.4715574607      -12.8849917467  MEMB      72              0.0000000000
      8273        72  OSM       H7T             4.8500516194      -22.1441923761      -12.2772186164  MEMB      72              0.0000000000
      8274        72  OSM       C8S             4.6133323459      -23.7100006750      -10.9231348305  MEMB      72              0.0000000000
      8275        72  OSM       H8S             4.2088927029      -24.7447042322      -10.9349129252  MEMB      72              0.0000000000
      8276        72  OSM       H8T             3.8787980522      -23.0282461244      -10.4435609200  MEMB      72              0.0000000000
      8277        72  OSM       C9S             5.8666805963      -23.6720682567      -10.0782998838  MEMB      72              0.0000000000
      8278        72  OSM       H9S             6.1734840853      -22.6086293762       -9.9819131661  MEMB      72              0.0000000000
      8279        72  OSM       H9T             6.6689622317      -24.1914118282      -10.6448217207  MEMB      72              0.0000000000
      8280        72  OSM       C10S            5.8170717382      -24.3316370772       -8.7329842091  MEMB      72              0.0000000000
      8281        72  OSM       H10S            6.7652506222      -24.1468764142       -8.1842206406  MEMB      72              0.0000000000
      8282        72  OSM       H10T            5.6667622655      -25.4239998521       -8.8688943036  MEMB      72              0.0000000000
      8283        72  OSM       C11S            4.7173606263      -23.8119717846       -7.7669151008  MEMB      72              0.0000000000
      8284        72  OSM       H11S            4.7988630166      -24.2756748025       -6.7606067304  MEMB      72              0.0000000000
      8285        72  OSM       H11T            3.7325275900      -24.0970505912       -8.1948816617  MEMB      72              0.0000000000
      8286        72  OSM       C12S            4.7807687729      -22.3045176459       -7.6089129976  MEMB      72              0.0000000000
      8287        72  OSM       H12S            3.9976612821      -21.9006781748       -6.9321728728  MEMB      72              0.0000000000
      8288        72  OSM       H12T            4.6104555358      -21.7951211193       -8.5814504352  MEMB      72              0.0000000000
      8289        72  OSM       C13S            6.0230219306      -21.5964096729       -7.0581541655  MEMB      72              0.0000000000
      8290        72  OSM       H13S            5.6326183079      -20.5644322508       -6.9280435070  MEMB      72              0.0000000000
      8291        72  OSM       H13T            6.8770400945      -21.5657948642       -7.7681102738  MEMB      72              0.0000000000
      8292        72  OSM       C14S            6.4228702389      -21.9269816542       -5.6279119944  MEMB      72              0.0000000000
      8293        72  OSM       H14S            6.8728891603      -22.9336647937       -5.4922924194  MEMB      72              0.0000000000
      8294        72  OSM       H14T            5.4519756041      -22.0489631437       -5.1017899290  MEMB      72              0.0000000000
      8295        72  OSM       C15S            7.1484998384      -20.8514056537       -4.8751443976  MEMB      72              0.0000000000
      8296        72  OSM       H15S            7.9534570553      -20.4585437589       -5.5324297517  MEMB      72              0.0000000000
      8297        72  OSM       H15T            7.7223510221      -21.2594741183       -4.0157865244  MEMB      72              0.0000000000
      8298        72  OSM       C16S            6.2446946511      -19.7306165526       -4.3317639706  MEMB      72              0.0000000000
      8299        72  OSM       H16S            5.4208379672      -19.5063770015       -5.0426065126  MEMB      72              0.0000000000
      8300        72  OSM       H16T            6.8328213261      -18.7902704428       -4.2671341735  MEMB      72              0.0000000000
      8301        72  OSM       C17S            5.5799771926      -20.0791347810       -3.0586289127  MEMB      72              0.0000000000
      8302        72  OSM       H17S            5.4031808509      -21.1748931110       -3.0098608318  MEMB      72              0.0000000000
      8303        72  OSM       H17T            4.5268911678      -19.7465260776       -3.1798773847  MEMB      72              0.0000000000
      8304        72  OSM       C18S            6.0633721070      -19.4392426413       -1.7722611712  MEMB      72              0.0000000000
      8305        72  OSM       H18S            6.0401231291      -18.3286332257       -1.7903547461  MEMB      72              0.0000000000
      8306        72  OSM       H18T            7.1160876667      -19.7352900188       -1.5761345142  MEMB      72              0.0000000000
      8307        72  OSM       H18U            5.3706681955      -19.7625560151       -0.9660661228  MEMB      72              0.0000000000
      8308        72  OSM       C1F             8.4475769208      -20.3290044434      -16.3902444204  MEMB      72              0.0000000000
      8309        72  OSM       OF              8.1059461688      -19.2241581736      -16.7568065211  MEMB      72              0.0000000000
      8310        72  OSM       C2F             9.8243255935      -20.5542777109      -15.7232477268  MEMB      72              0.0000000000
      8311        72  OSM       H2F            10.6243541865      -20.0343881106      -16.2924485812  MEMB      72              0.0000000000
      8312        72  OSM       H2G             9.9670779405      -21.6560436027      -15.7306630915  MEMB      72              0.0000000000
      8313        72  OSM       C3F             9.8184165726      -20.0157710494      -14.2845059445  MEMB      72              0.0000000000
      8314        72  OSM       H3F             9.7720630263      -18.9069508246      -14.2326400810  MEMB      72              0.0000000000
      8315        72  OSM       H3G            10.8669859264      -20.0658291119      -13.9207515047  MEMB      72              0.0000000000
      8316        72  OSM       C4F             9.0251023276      -20.9612107084      -13.3585472792  MEMB      72              0.0000000000
      8317        72  OSM       H4F             9.3064887056      -22.0254173729      -13.5089026888  MEMB      72              0.0000000000
      8318        72  OSM       H4G             7.9792928976      -20.9028170041      -13.7289443301  MEMB      72              0.0000000000
      8319        72  OSM       C5F             8.9629081373      -20.5772016727      -11.8640506581  MEMB      72              0.0000000000
      8320        72  OSM       H5F             9.9427123934      -20.8402647745      -11.4111686254  MEMB      72              0.0000000000
      8321        72  OSM       H5G             8.3324286894      -21.2414119829      -11.2350509485  MEMB      72              0.0000000000
      8322        72  OSM       C6F             8.4635567504      -19.1325853077      -11.4922806632  MEMB      72              0.0000000000
      8323        72  OSM       H6F             8.8241203886      -18.3294133173      -12.1699461641  MEMB      72              0.0000000000
      8324        72  OSM       H6G             8.7491860505      -18.8412782811      -10.4588994004  MEMB      72              0.0000000000
      8325        72  OSM       C7F             6.8890154029      -19.1084255600      -11.4519677752  MEMB      72              0.0000000000
      8326        72  OSM       H7F             6.5452184688      -20.1062616574      -11.1049119342  MEMB      72              0.0000000000
      8327        72  OSM       H7G             6.3425867821      -19.0653069919      -12.4183415132  MEMB      72              0.0000000000
      8328        72  OSM       C8F             6.3247293172      -18.0827620991      -10.3996615362  MEMB      72              0.0000000000
      8329        72  OSM       H8F             6.4233391684      -18.5747900631       -9.4084482018  MEMB      72              0.0000000000
      8330        72  OSM       H8G             5.2426190950      -17.9461156332      -10.6110532327  MEMB      72              0.0000000000
      8331        72  OSM       C9F             6.9346666691      -16.7591531005      -10.3757936099  MEMB      72              0.0000000000
      8332        72  OSM       H9F             6.9828195721      -16.2127400032      -11.3292683548  MEMB      72              0.0000000000
      8333        72  OSM       C10F            7.4318723946      -16.0681299897       -9.3402949244  MEMB      72              0.0000000000
      8334        72  OSM       H10F            7.7530345182      -15.0277680679       -9.4968249982  MEMB      72              0.0000000000
      8335        72  OSM       C11F            7.3753478500      -16.6923433849       -7.9205193647  MEMB      72              0.0000000000
      8336        72  OSM       H11F            6.5441260656      -17.4166783749       -7.7836610602  MEMB      72              0.0000000000
      8337        72  OSM       H11G            7.2719731857      -15.9723895694       -7.0806977951  MEMB      72              0.0000000000
      8338        72  OSM       C12F            8.5957228580      -17.6688544637       -7.6757442647  MEMB      72              0.0000000000
      8339        72  OSM       H12F            9.3775930009      -17.1347028025       -8.2568479631  MEMB      72              0.0000000000
      8340        72  OSM       H12G            8.3536181846      -18.6935198941       -8.0303811277  MEMB      72              0.0000000000
      8341        72  OSM       C13F            9.0495853616      -17.6370709491       -6.2341702115  MEMB      72              0.0000000000
      8342        72  OSM       H13F            8.1996470714      -17.9609460076       -5.5961802424  MEMB      72              0.0000000000
      8343        72  OSM       H13G            9.4970005720      -16.6411700730       -6.0284462765  MEMB      72              0.0000000000
      8344        72  OSM       C14F           10.2038136304      -18.5429526658       -6.0545503893  MEMB      72              0.0000000000
      8345        72  OSM       H14F           10.9675872629      -18.3939484837       -6.8474999168  MEMB      72              0.0000000000
      8346        72  OSM       H14G            9.8809732131      -19.6024946658       -6.1409556606  MEMB      72              0.0000000000
      8347        72  OSM       C15F           10.9044360213      -18.4850352453       -4.6220935443  MEMB      72              0.0000000000
      8348        72  OSM       H15F           11.0697433089      -17.4160761662       -4.3684788877  MEMB      72              0.0000000000
      8349        72  OSM       H15G           11.8399253478      -19.0562783835       -4.8033721630  MEMB      72              0.0000000000
      8350        72  OSM       C16F           10.0256265502      -19.2189553037       -3.5854521997  MEMB      72              0.0000000000
      8351        72  OSM       H16F            9.6036275242      -20.1292683343       -4.0624932264  MEMB      72              0.0000000000
      8352        72  OSM       H16G            9.1808954928      -18.5609879559       -3.2890913546  MEMB      72              0.0000000000
      8353        72  OSM       C17F           10.8746691645      -19.5395796899       -2.3775458319  MEMB      72              0.0000000000
      8354        72  OSM       H17F           11.1578355300      -18.5283171117       -2.0149347932  MEMB      72              0.0000000000
      8355        72  OSM       H17G           11.8003232850      -19.9446369710       -2.8395124957  MEMB      72              0.0000000000
      8356        72  OSM       C18F           10.1768885446      -20.5328195701       -1.4490298098  MEMB      72              0.0000000000
      8357        72  OSM       H18F           10.9765491112      -21.1556279700       -0.9940863516  MEMB      72              0.0000000000
      8358        72  OSM       H18G            9.6043041364      -21.3277197275       -1.9730548162  MEMB      72              0.0000000000
      8359        72  OSM       H18H            9.6504137516      -20.0803639040       -0.5816040259  MEMB      72              0.0000000000
      8360        73  SLPC      N              -1.9542067520      -18.9187566609      -18.1334708105  MEMB      73              0.0000000000
      8361        73  SLPC      C13            -0.5034056513      -19.0378726504      -18.5896419135  MEMB      73              0.0000000000
      8362        73  SLPC      H13A           -0.3172421645      -18.3712672418      -19.4187259735  MEMB      73              0.0000000000
      8363        73  SLPC      H13B            0.2477564157      -18.7946255896      -17.8527657941  MEMB      73              0.0000000000
      8364        73  SLPC      H13C           -0.2953860349      -20.0594055128      -18.8717735054  MEMB      73              0.0000000000
      8365        73  SLPC      C14            -2.7673547443      -19.9070998542      -18.9576736242  MEMB      73              0.0000000000
      8366        73  SLPC      H14A           -2.5250701918      -19.9293042683      -20.0099117949  MEMB      73              0.0000000000
      8367        73  SLPC      H14B           -2.5845437093      -20.9062588323      -18.5907110589  MEMB      73              0.0000000000
      8368        73  SLPC      H14C           -3.8148896593      -19.7149075057      -18.7784177085  MEMB      73              0.0000000000
      8369        73  SLPC      C15            -2.3133808765      -17.4626830831      -18.3058025963  MEMB      73              0.0000000000
      8370        73  SLPC      H15A           -3.1910826123      -17.1962854462      -17.7356518971  MEMB      73              0.0000000000
      8371        73  SLPC      H15B           -1.4949673979      -16.8553860944      -17.9483257866  MEMB      73              0.0000000000
      8372        73  SLPC      H15C           -2.5542845402      -17.2755435360      -19.3418257031  MEMB      73              0.0000000000
      8373        73  SLPC      C12            -1.9721157701      -19.3384833372      -16.6388212285  MEMB      73              0.0000000000
      8374        73  SLPC      H12A           -2.8692807372      -18.8175614785      -16.3385953569  MEMB      73              0.0000000000
      8375        73  SLPC      H12B           -1.1188484742      -19.0124017975      -16.0626217456  MEMB      73              0.0000000000
      8376        73  SLPC      C11            -2.2089339240      -20.8041747261      -16.3174416817  MEMB      73              0.0000000000
      8377        73  SLPC      H11A           -3.2083636457      -21.1144631297      -16.6905131362  MEMB      73              0.0000000000
      8378        73  SLPC      H11B           -2.1981868290      -20.8869355302      -15.2095806004  MEMB      73              0.0000000000
      8379        73  SLPC      P              -0.2005324557      -22.5957583820      -15.9940588775  MEMB      73              0.0000000000
      8380        73  SLPC      O13            -0.9615894093      -23.5827364647      -15.1849970829  MEMB      73              0.0000000000
      8381        73  SLPC      O14             0.7988232085      -23.2031875193      -16.9041189841  MEMB      73              0.0000000000
      8382        73  SLPC      O12            -1.2572868525      -21.7720417357      -16.8665703076  MEMB      73              0.0000000000
      8383        73  SLPC      O11             0.4564433301      -21.4660951894      -15.1074028933  MEMB      73              0.0000000000
      8384        73  SLPC      C1              1.3626992382      -20.5179279149      -15.6833787048  MEMB      73              0.0000000000
      8385        73  SLPC      HA              1.6230404014      -20.8064888706      -16.7241841336  MEMB      73              0.0000000000
      8386        73  SLPC      HB              0.7497544858      -19.5960157661      -15.7766408142  MEMB      73              0.0000000000
      8387        73  SLPC      C2              2.6228494473      -20.2693488379      -14.9190820102  MEMB      73              0.0000000000
      8388        73  SLPC      HS              3.3723957032      -19.8512668203      -15.6245669885  MEMB      73              0.0000000000
      8389        73  SLPC      O21             3.1314711765      -21.4382477693      -14.2463254121  MEMB      73              0.0000000000
      8390        73  SLPC      C21             4.2921832781      -21.3996706582      -13.6631603641  MEMB      73              0.0000000000
      8391        73  SLPC      O22             5.1512533634      -20.4864336699      -13.6661952632  MEMB      73              0.0000000000
      8392        73  SLPC      C22             4.4748457577      -22.8248717237      -12.9894679551  MEMB      73              0.0000000000
      8393        73  SLPC      H2R             5.0932216544      -23.4728364421      -13.6467914546  MEMB      73              0.0000000000
      8394        73  SLPC      H2S             5.2589481519      -22.6636480303      -12.2190706771  MEMB      73              0.0000000000
      8395        73  SLPC      C3              2.3561182332      -19.1327369919      -13.7936272761  MEMB      73              0.0000000000
      8396        73  SLPC      HX              2.1117821248      -18.2179089032      -14.3747556177  MEMB      73              0.0000000000
      8397        73  SLPC      HY              3.2995265848      -18.9395288072      -13.2395766523  MEMB      73              0.0000000000
      8398        73  SLPC      O31             1.3212778941      -19.5036480819      -12.8785162383  MEMB      73              0.0000000000
      8399        73  SLPC      C31             0.4728113767      -18.5336035420      -12.4808939174  MEMB      73              0.0000000000
      8400        73  SLPC      O32             0.5226400154      -17.3932941704      -12.8780390858  MEMB      73              0.0000000000
      8401        73  SLPC      C32            -0.6584379268      -19.1628231837      -11.7018787894  MEMB      73              0.0000000000
      8402        73  SLPC      H2X            -1.2212572818      -18.4049065368      -11.1161163885  MEMB      73              0.0000000000
      8403        73  SLPC      H2Y            -0.1464978151      -19.6956609652      -10.8722265828  MEMB      73              0.0000000000
      8404        73  SLPC      C23             3.1922413743      -23.6149890536      -12.6458679723  MEMB      73              0.0000000000
      8405        73  SLPC      H3R             3.4021886582      -24.7058372758      -12.6287451134  MEMB      73              0.0000000000
      8406        73  SLPC      H3S             2.3692234516      -23.6588697334      -13.3908761090  MEMB      73              0.0000000000
      8407        73  SLPC      C24             2.5676362514      -23.0487729503      -11.3842809118  MEMB      73              0.0000000000
      8408        73  SLPC      H4R             2.2277971155      -22.0109345648      -11.5885400851  MEMB      73              0.0000000000
      8409        73  SLPC      H4S             3.3319787224      -23.0571513212      -10.5780353430  MEMB      73              0.0000000000
      8410        73  SLPC      C25             1.3296575970      -23.7547449095      -10.8839355861  MEMB      73              0.0000000000
      8411        73  SLPC      H5R             1.6326999101      -24.7185917220      -10.4218903744  MEMB      73              0.0000000000
      8412        73  SLPC      H5S             0.6737771899      -23.8706761129      -11.7731497032  MEMB      73              0.0000000000
      8413        73  SLPC      C26             0.4716982833      -23.0235594575       -9.8199574782  MEMB      73              0.0000000000
      8414        73  SLPC      H6R             0.2403274562      -21.9999144062      -10.1845661523  MEMB      73              0.0000000000
      8415        73  SLPC      H6S             1.0350439506      -22.8453390201       -8.8791070739  MEMB      73              0.0000000000
      8416        73  SLPC      C27            -0.7990554624      -23.7979957459       -9.4052062831  MEMB      73              0.0000000000
      8417        73  SLPC      H7R            -1.2992786526      -24.1909030935      -10.3160964537  MEMB      73              0.0000000000
      8418        73  SLPC      H7S            -1.3544902133      -23.0897578611       -8.7538903606  MEMB      73              0.0000000000
      8419        73  SLPC      C28            -0.6207179390      -25.0876437479       -8.5181488857  MEMB      73              0.0000000000
      8420        73  SLPC      H8R            -0.0829903341      -25.8059562249       -9.1732801565  MEMB      73              0.0000000000
      8421        73  SLPC      H8S            -1.6160356353      -25.5017449720       -8.2494782446  MEMB      73              0.0000000000
      8422        73  SLPC      C29             0.2667123932      -24.8994614719       -7.2654551053  MEMB      73              0.0000000000
      8423        73  SLPC      H9R             1.3330160918      -24.7654495457       -7.5000554241  MEMB      73              0.0000000000
      8424        73  SLPC      C210           -0.1810112417      -24.7768839793       -5.9893748632  MEMB      73              0.0000000000
      8425        73  SLPC      H10R            0.5998767380      -24.6719590592       -5.2217782907  MEMB      73              0.0000000000
      8426        73  SLPC      C211           -1.6069873451      -24.7559207945       -5.5249703788  MEMB      73              0.0000000000
      8427        73  SLPC      H11R           -2.2670456916      -25.3586652315       -6.1847756847  MEMB      73              0.0000000000
      8428        73  SLPC      H11S           -1.9986247199      -23.7229787611       -5.6431733159  MEMB      73              0.0000000000
      8429        73  SLPC      C212           -1.7643014534      -25.1490852044       -4.0977425458  MEMB      73              0.0000000000
      8430        73  SLPC      H12R           -1.9022543088      -26.2357505075       -3.9971059322  MEMB      73              0.0000000000
      8431        73  SLPC      C213           -1.6702282335      -24.4001968052       -2.9549408140  MEMB      73              0.0000000000
      8432        73  SLPC      H13R           -1.8443438202      -24.8950509336       -1.9880880543  MEMB      73              0.0000000000
      8433        73  SLPC      C214           -1.3640913986      -22.9288036239       -2.8282537428  MEMB      73              0.0000000000
      8434        73  SLPC      H14R           -1.1839863362      -22.5412228983       -3.8537605072  MEMB      73              0.0000000000
      8435        73  SLPC      H14S           -0.5137507777      -22.7156800508       -2.1457437738  MEMB      73              0.0000000000
      8436        73  SLPC      C215           -2.5552611594      -22.1670099464       -2.1901702236  MEMB      73              0.0000000000
      8437        73  SLPC      H15R           -2.7750751540      -22.7054310653       -1.2435420239  MEMB      73              0.0000000000
      8438        73  SLPC      H15S           -3.4634675065      -22.3636292698       -2.7991233447  MEMB      73              0.0000000000
      8439        73  SLPC      C216           -2.2354073447      -20.6699104685       -2.0378828463  MEMB      73              0.0000000000
      8440        73  SLPC      H16R           -3.1426315133      -20.3119674553       -1.5057724752  MEMB      73              0.0000000000
      8441        73  SLPC      H16S           -2.1743012068      -20.2275006279       -3.0551636349  MEMB      73              0.0000000000
      8442        73  SLPC      C217           -0.9378105908      -20.2689974002       -1.2976839595  MEMB      73              0.0000000000
      8443        73  SLPC      H17R           -1.0599743718      -19.1652928145       -1.2625650325  MEMB      73              0.0000000000
      8444        73  SLPC      H17S            0.0200153644      -20.4929638702       -1.8141427267  MEMB      73              0.0000000000
      8445        73  SLPC      C218           -0.7715795696      -20.8167453867        0.1036640439  MEMB      73              0.0000000000
      8446        73  SLPC      H18R            0.2532277356      -20.9766971218        0.5017933952  MEMB      73              0.0000000000
      8447        73  SLPC      H18S           -1.4094882430      -21.7195100937        0.2150617167  MEMB      73              0.0000000000
      8448        73  SLPC      H18T           -1.0856004842      -20.0079117869        0.7975668076  MEMB      73              0.0000000000
      8449        73  SLPC      C33            -1.5666311450      -20.0972959585      -12.5214238159  MEMB      73              0.0000000000
      8450        73  SLPC      H3X            -1.0245214848      -20.5852510660      -13.3594799665  MEMB      73              0.0000000000
      8451        73  SLPC      H3Y            -2.3113761072      -19.4295682102      -13.0049684970  MEMB      73              0.0000000000
      8452        73  SLPC      C34            -2.1686305960      -21.2102583104      -11.7417263694  MEMB      73              0.0000000000
      8453        73  SLPC      H4X            -1.6018074578      -21.4366860990      -10.8134146326  MEMB      73              0.0000000000
      8454        73  SLPC      H4Y            -2.2662901611      -22.0983328304      -12.4021104638  MEMB      73              0.0000000000
      8455        73  SLPC      C35            -3.6154142591      -20.8844180089      -11.2167365405  MEMB      73              0.0000000000
      8456        73  SLPC      H5X            -4.1104064737      -21.8638889285      -11.0437040683  MEMB      73              0.0000000000
      8457        73  SLPC      H5Y            -4.2100811706      -20.4099583884      -12.0264156401  MEMB      73              0.0000000000
      8458        73  SLPC      C36            -3.6894865502      -20.0587084700       -9.9437605340  MEMB      73              0.0000000000
      8459        73  SLPC      H6X            -4.6177923030      -19.4532089517       -9.8666920392  MEMB      73              0.0000000000
      8460        73  SLPC      H6Y            -2.8752078869      -19.3030585181       -9.9600189094  MEMB      73              0.0000000000
      8461        73  SLPC      C37            -3.5632823422      -20.8929933539       -8.5817609893  MEMB      73              0.0000000000
      8462        73  SLPC      H7X            -2.7618414411      -21.6609416854       -8.6293909035  MEMB      73              0.0000000000
      8463        73  SLPC      H7Y            -4.4423050936      -21.5694744781       -8.5184045486  MEMB      73              0.0000000000
      8464        73  SLPC      C38            -3.4049783893      -19.8552165733       -7.4379702721  MEMB      73              0.0000000000
      8465        73  SLPC      H8X            -3.7695631948      -20.4183207295       -6.5523561555  MEMB      73              0.0000000000
      8466        73  SLPC      H8Y            -4.0344122444      -18.9434733795       -7.5207859644  MEMB      73              0.0000000000
      8467        73  SLPC      C39            -1.9912171292      -19.3100100890       -7.1905220235  MEMB      73              0.0000000000
      8468        73  SLPC      H9X            -2.0693069977      -18.4423531793       -6.5010337408  MEMB      73              0.0000000000
      8469        73  SLPC      H9Y            -1.6047818660      -19.0140814042       -8.1892293940  MEMB      73              0.0000000000
      8470        73  SLPC      C310           -0.8192867569      -20.2939602019       -6.7783204788  MEMB      73              0.0000000000
      8471        73  SLPC      H10X           -0.6315903366      -20.8830227031       -7.7014108263  MEMB      73              0.0000000000
      8472        73  SLPC      H10Y           -1.2547817882      -21.0713635791       -6.1147627603  MEMB      73              0.0000000000
      8473        73  SLPC      C311            0.3818573365      -19.6069629284       -6.1514308260  MEMB      73              0.0000000000
      8474        73  SLPC      H11X           -0.1127839381      -19.1308961346       -5.2779262012  MEMB      73              0.0000000000
      8475        73  SLPC      H11Y            0.7360004844      -18.8730448747       -6.9065919715  MEMB      73              0.0000000000
      8476        73  SLPC      C312            1.5055405463      -20.5798970341       -5.7477163150  MEMB      73              0.0000000000
      8477        73  SLPC      H12X            2.0925242307      -20.9142982033       -6.6297297788  MEMB      73              0.0000000000
      8478        73  SLPC      H12Y            0.9918651304      -21.5112112434       -5.4266052521  MEMB      73              0.0000000000
      8479        73  SLPC      C313            2.4384168033      -19.9814251691       -4.6922961345  MEMB      73              0.0000000000
      8480        73  SLPC      H13X            1.8282157966      -19.8632080772       -3.7714266378  MEMB      73              0.0000000000
      8481        73  SLPC      H13Y            2.7178960924      -18.9688390708       -5.0540720439  MEMB      73              0.0000000000
      8482        73  SLPC      C314            3.7480752235      -20.7353200859       -4.4656577044  MEMB      73              0.0000000000
      8483        73  SLPC      H14X            4.3780990601      -20.2326253699       -3.7010081014  MEMB      73              0.0000000000
      8484        73  SLPC      H14Y            4.2207889357      -20.9069958458       -5.4563089634  MEMB      73              0.0000000000
      8485        73  SLPC      C315            3.5809143492      -22.1821961890       -3.8238301456  MEMB      73              0.0000000000
      8486        73  SLPC      H15X            4.5556629762      -22.6475164280       -3.5637090422  MEMB      73              0.0000000000
      8487        73  SLPC      H15Y            3.0274944836      -22.8241424543       -4.5421287107  MEMB      73              0.0000000000
      8488        73  SLPC      C316            2.7078772427      -22.1675243109       -2.5413235240  MEMB      73              0.0000000000
      8489        73  SLPC      H16X            1.6635123597      -21.8735029564       -2.7804360079  MEMB      73              0.0000000000
      8490        73  SLPC      H16Y            3.0171288564      -21.2850697471       -1.9413589208  MEMB      73              0.0000000000
      8491        73  SLPC      C317            2.6140416236      -23.4923439738       -1.8409027926  MEMB      73              0.0000000000
      8492        73  SLPC      H17X            3.6279040628      -23.9260536615       -1.7056281806  MEMB      73              0.0000000000
      8493        73  SLPC      H17Y            2.1449164919      -24.1256286614       -2.6239700958  MEMB      73              0.0000000000
      8494        73  SLPC      C318            2.0654002615      -23.5511455023       -0.4327481578  MEMB      73              0.0000000000
      8495        73  SLPC      H18X            1.0112466998      -23.2351171962       -0.2804082075  MEMB      73              0.0000000000
      8496        73  SLPC      H18Y            2.6186613380      -22.8583912571        0.2368163986  MEMB      73              0.0000000000
      8497        73  SLPC      H18Z            2.0550316910      -24.5954717148       -0.0538069161  MEMB      73              0.0000000000
      8498        74  SAPS      N             -16.8028835851       16.0459391339      -20.7488446558  MEMB      74              0.0000000000
      8499        74  SAPS      HN1           -16.2490953188       16.7690971085      -21.2508018939  MEMB      74              0.0000000000
      8500        74  SAPS      HN2           -17.7969113825       16.0574559006      -21.0544198945  MEMB      74              0.0000000000
      8501        74  SAPS      HN3           -16.8677542156       16.0735095907      -19.7112360379  MEMB      74              0.0000000000
      8502        74  SAPS      C12           -16.1978397865       14.6652134498      -20.9824856697  MEMB      74              0.0000000000
      8503        74  SAPS      H12A          -16.9352520663       13.9846059779      -20.5832407136  MEMB      74              0.0000000000
      8504        74  SAPS      C13           -16.0037531193       14.3798856593      -22.5305215139  MEMB      74              0.0000000000
      8505        74  SAPS      O13A          -16.5132987011       15.1254013014      -23.3763790685  MEMB      74              0.0000000000
      8506        74  SAPS      O13B          -15.3759876607       13.3142653890      -22.8716628732  MEMB      74              0.0000000000
      8507        74  SAPS      C11           -14.8273536736       14.4900909722      -20.2181736930  MEMB      74              0.0000000000
      8508        74  SAPS      H11A          -14.0143339099       15.1861795303      -20.5161342648  MEMB      74              0.0000000000
      8509        74  SAPS      H11B          -14.5679219945       13.4240177318      -20.3928278029  MEMB      74              0.0000000000
      8510        74  SAPS      P             -14.7081088339       13.4853095799      -17.8155120623  MEMB      74              0.0000000000
      8511        74  SAPS      O13           -13.5016307706       12.7545894179      -18.2126953023  MEMB      74              0.0000000000
      8512        74  SAPS      O14           -14.7429982415       13.9952102687      -16.4353714523  MEMB      74              0.0000000000
      8513        74  SAPS      O12           -15.0545323548       14.6037627358      -18.7776691281  MEMB      74              0.0000000000
      8514        74  SAPS      O11           -15.9629020757       12.5417738961      -18.0306845828  MEMB      74              0.0000000000
      8515        74  SAPS      C1            -17.1524823472       12.6888692593      -17.2893623799  MEMB      74              0.0000000000
      8516        74  SAPS      HA            -17.3615317635       13.7755671645      -17.1908385260  MEMB      74              0.0000000000
      8517        74  SAPS      HB            -17.9355062851       12.3157761819      -17.9836219340  MEMB      74              0.0000000000
      8518        74  SAPS      C2            -17.2373288000       12.0375368415      -15.8738798316  MEMB      74              0.0000000000
      8519        74  SAPS      HS            -18.2728933230       11.6445951277      -15.7871393663  MEMB      74              0.0000000000
      8520        74  SAPS      O21           -16.8933346315       12.9890434864      -14.8067722854  MEMB      74              0.0000000000
      8521        74  SAPS      C21           -17.7861613544       13.9642557948      -14.6777700792  MEMB      74              0.0000000000
      8522        74  SAPS      O22           -18.8271092213       14.0357862455      -15.2898173500  MEMB      74              0.0000000000
      8523        74  SAPS      C22           -17.1977772035       15.0927706972      -13.7641883769  MEMB      74              0.0000000000
      8524        74  SAPS      H2R           -16.1244621915       14.9132680503      -13.5403699587  MEMB      74              0.0000000000
      8525        74  SAPS      H2S           -17.4182349063       16.0736672762      -14.2370113541  MEMB      74              0.0000000000
      8526        74  SAPS      C3            -16.2995984170       10.7220586566      -15.7009834508  MEMB      74              0.0000000000
      8527        74  SAPS      HX            -15.2436694189       10.9843835005      -15.9257511871  MEMB      74              0.0000000000
      8528        74  SAPS      HY            -16.5915611029        9.8699969510      -16.3514215715  MEMB      74              0.0000000000
      8529        74  SAPS      O31           -16.4950884412       10.2846400142      -14.3167922924  MEMB      74              0.0000000000
      8530        74  SAPS      C31           -15.5438210775       10.6154098735      -13.4526764522  MEMB      74              0.0000000000
      8531        74  SAPS      O32           -14.5315158104       11.2489220690      -13.6368205770  MEMB      74              0.0000000000
      8532        74  SAPS      C32           -16.1008456258       10.3208877289      -12.0074305355  MEMB      74              0.0000000000
      8533        74  SAPS      H2X           -15.2576918234       10.4359273913      -11.2931631282  MEMB      74              0.0000000000
      8534        74  SAPS      H2Y           -16.3567847615        9.2399369674      -12.0264466093  MEMB      74              0.0000000000
      8535        74  SAPS      C23           -17.8971499748       15.1108413432      -12.4338299458  MEMB      74              0.0000000000
      8536        74  SAPS      H3R           -17.0978457844       15.1994193239      -11.6672873820  MEMB      74              0.0000000000
      8537        74  SAPS      H3S           -18.4461717474       14.1538061447      -12.3035239642  MEMB      74              0.0000000000
      8538        74  SAPS      C24           -18.8808777777       16.2598018838      -12.4836967856  MEMB      74              0.0000000000
      8539        74  SAPS      H4R           -19.2065414606       16.4062744495      -13.5357473746  MEMB      74              0.0000000000
      8540        74  SAPS      H4S           -18.3822185793       17.1814788380      -12.1146821346  MEMB      74              0.0000000000
      8541        74  SAPS      C25           -20.1439827463       16.0190565605      -11.7635417217  MEMB      74              0.0000000000
      8542        74  SAPS      H5R           -21.0147864913       15.7544376456      -12.3813426452  MEMB      74              0.0000000000
      8543        74  SAPS      C26           -20.3864865869       16.1402224381      -10.3985979948  MEMB      74              0.0000000000
      8544        74  SAPS      H6R           -21.3269064953       15.7724550300       -9.9622987627  MEMB      74              0.0000000000
      8545        74  SAPS      C27           -19.1870653342       16.5676066831       -9.5290821324  MEMB      74              0.0000000000
      8546        74  SAPS      H7R           -19.2732954023       17.6724973355       -9.4509668642  MEMB      74              0.0000000000
      8547        74  SAPS      H7S           -18.2115818739       16.1804193448       -9.8935525789  MEMB      74              0.0000000000
      8548        74  SAPS      C28           -19.4411787650       16.1811281083       -8.0389001040  MEMB      74              0.0000000000
      8549        74  SAPS      H8R           -20.5135755259       16.0113659615       -7.8624177545  MEMB      74              0.0000000000
      8550        74  SAPS      C29           -18.5218764363       16.2044778558       -7.0343802935  MEMB      74              0.0000000000
      8551        74  SAPS      H9R           -18.7029506450       16.0586653478       -5.9592282139  MEMB      74              0.0000000000
      8552        74  SAPS      C210          -17.1207864136       16.6045872304       -7.1592500741  MEMB      74              0.0000000000
      8553        74  SAPS      H10R          -16.9044715788       17.5228058182       -6.5723913610  MEMB      74              0.0000000000
      8554        74  SAPS      H10S          -16.8662878017       16.7616055971       -8.2292489827  MEMB      74              0.0000000000
      8555        74  SAPS      C211          -16.0883160557       15.5781014413       -6.7676576683  MEMB      74              0.0000000000
      8556        74  SAPS      H11R          -16.2485640564       14.4984117255       -6.9040053416  MEMB      74              0.0000000000
      8557        74  SAPS      C212          -14.9200569190       15.7424296337       -6.0898103968  MEMB      74              0.0000000000
      8558        74  SAPS      H12R          -14.2496540792       14.8895582245       -5.9076828055  MEMB      74              0.0000000000
      8559        74  SAPS      C213          -14.4849051469       17.1189441628       -5.6357647323  MEMB      74              0.0000000000
      8560        74  SAPS      H13R          -15.3723550943       17.6234528722       -5.1973309718  MEMB      74              0.0000000000
      8561        74  SAPS      H13S          -14.2309097097       17.6041120753       -6.6024188606  MEMB      74              0.0000000000
      8562        74  SAPS      C214          -13.2562650692       17.0416560319       -4.7574398207  MEMB      74              0.0000000000
      8563        74  SAPS      H14R          -12.4331195946       16.4121499278       -5.1264301676  MEMB      74              0.0000000000
      8564        74  SAPS      C215          -13.0017501921       17.6026691512       -3.6032919312  MEMB      74              0.0000000000
      8565        74  SAPS      H15R          -11.9658284764       17.4808071249       -3.2539849884  MEMB      74              0.0000000000
      8566        74  SAPS      C216          -14.0304271639       18.5410369918       -2.8808681889  MEMB      74              0.0000000000
      8567        74  SAPS      H16R          -14.8046679339       18.7983833717       -3.6349545265  MEMB      74              0.0000000000
      8568        74  SAPS      H16S          -13.5218507392       19.4890518211       -2.6034899544  MEMB      74              0.0000000000
      8569        74  SAPS      C217          -14.7156145856       17.9078398398       -1.6675912689  MEMB      74              0.0000000000
      8570        74  SAPS      H17R          -15.5143068960       18.6301553027       -1.3943282133  MEMB      74              0.0000000000
      8571        74  SAPS      H17S          -13.9969545269       17.9115652936       -0.8203401169  MEMB      74              0.0000000000
      8572        74  SAPS      C218          -15.3809318455       16.5377981396       -1.8412003073  MEMB      74              0.0000000000
      8573        74  SAPS      H18R          -14.5970734649       15.7906607214       -2.0895396387  MEMB      74              0.0000000000
      8574        74  SAPS      H18S          -16.1253035267       16.6452902455       -2.6589265336  MEMB      74              0.0000000000
      8575        74  SAPS      C219          -16.1161795500       16.0421157978       -0.6089252267  MEMB      74              0.0000000000
      8576        74  SAPS      H19R          -16.4743643310       16.9027172963       -0.0044506711  MEMB      74              0.0000000000
      8577        74  SAPS      H19S          -15.3378165364       15.5274700776       -0.0059217158  MEMB      74              0.0000000000
      8578        74  SAPS      C220          -17.2907203330       15.0901671282       -0.9586805643  MEMB      74              0.0000000000
      8579        74  SAPS      H20R          -18.1544774651       15.6814706443       -1.3309768496  MEMB      74              0.0000000000
      8580        74  SAPS      H20S          -17.6122389704       14.5052755830       -0.0705089086  MEMB      74              0.0000000000
      8581        74  SAPS      H20T          -16.9362446051       14.4028638907       -1.7563524350  MEMB      74              0.0000000000
      8582        74  SAPS      C33           -17.2895385138       11.1050059461      -11.6537858065  MEMB      74              0.0000000000
      8583        74  SAPS      H3X           -18.1513326357       10.8389557982      -12.3025150559  MEMB      74              0.0000000000
      8584        74  SAPS      H3Y           -17.2866281421       12.1757296177      -11.9502035479  MEMB      74              0.0000000000
      8585        74  SAPS      C34           -17.7820871415       10.8192614466      -10.1480088387  MEMB      74              0.0000000000
      8586        74  SAPS      H4X           -16.8707447084       10.8781375639       -9.5153083297  MEMB      74              0.0000000000
      8587        74  SAPS      H4Y           -18.1381243591        9.7668751014      -10.1415368267  MEMB      74              0.0000000000
      8588        74  SAPS      C35           -18.8951218908       11.7421191955       -9.5825206422  MEMB      74              0.0000000000
      8589        74  SAPS      H5X           -19.7285607040       11.6722777720      -10.3138364053  MEMB      74              0.0000000000
      8590        74  SAPS      H5Y           -18.5264002885       12.7899154618       -9.5604149306  MEMB      74              0.0000000000
      8591        74  SAPS      C36           -19.4060611745       11.3792677754       -8.1952656283  MEMB      74              0.0000000000
      8592        74  SAPS      H6X           -19.4280181671       10.2735194648       -8.0896259990  MEMB      74              0.0000000000
      8593        74  SAPS      H6Y           -20.4174339993       11.7820896292       -7.9734989310  MEMB      74              0.0000000000
      8594        74  SAPS      C37           -18.6208439767       12.0781673697       -7.0337935184  MEMB      74              0.0000000000
      8595        74  SAPS      H7X           -18.5635991291       13.0910761991       -7.4866284687  MEMB      74              0.0000000000
      8596        74  SAPS      H7Y           -17.6131476638       11.6105963141       -7.0494962475  MEMB      74              0.0000000000
      8597        74  SAPS      C38           -19.2293367949       12.0054572845       -5.5933273640  MEMB      74              0.0000000000
      8598        74  SAPS      H8X           -19.1598782421       10.9246688828       -5.3455498403  MEMB      74              0.0000000000
      8599        74  SAPS      H8Y           -20.2711337579       12.3875807644       -5.5389067915  MEMB      74              0.0000000000
      8600        74  SAPS      C39           -18.4047889252       12.7809358591       -4.5812159028  MEMB      74              0.0000000000
      8601        74  SAPS      H9X           -18.7557389128       12.8916177280       -3.5329296774  MEMB      74              0.0000000000
      8602        74  SAPS      H9Y           -18.5733222284       13.8210922616       -4.9333412312  MEMB      74              0.0000000000
      8603        74  SAPS      C310          -16.9232739403       12.2864944451       -4.4572151410  MEMB      74              0.0000000000
      8604        74  SAPS      H10X          -16.4298996041       13.1172888638       -3.9088685826  MEMB      74              0.0000000000
      8605        74  SAPS      H10Y          -16.5147558008       12.1977409010       -5.4865628692  MEMB      74              0.0000000000
      8606        74  SAPS      C311          -16.6727894910       11.0292320634       -3.7005891971  MEMB      74              0.0000000000
      8607        74  SAPS      H11X          -17.3942973190       10.2556137504       -4.0400908083  MEMB      74              0.0000000000
      8608        74  SAPS      H11Y          -16.9550590605       11.2357476543       -2.6460759342  MEMB      74              0.0000000000
      8609        74  SAPS      C312          -15.2946420579       10.4931311657       -3.8118678056  MEMB      74              0.0000000000
      8610        74  SAPS      H12X          -15.0555344520       10.0212099205       -4.7888216410  MEMB      74              0.0000000000
      8611        74  SAPS      H12Y          -15.1964970644        9.6930677230       -3.0472852252  MEMB      74              0.0000000000
      8612        74  SAPS      C313          -14.1841153142       11.5587905681       -3.5427287691  MEMB      74              0.0000000000
      8613        74  SAPS      H13X          -14.6668572400       12.4532767369       -3.0942016265  MEMB      74              0.0000000000
      8614        74  SAPS      H13Y          -13.7883099419       11.7969042348       -4.5531546633  MEMB      74              0.0000000000
      8615        74  SAPS      C314          -12.9863323334       11.0475024003       -2.7108104019  MEMB      74              0.0000000000
      8616        74  SAPS      H14X          -12.4789249582       10.2656493891       -3.3154306252  MEMB      74              0.0000000000
      8617        74  SAPS      H14Y          -13.3475287612       10.5176821347       -1.8035359798  MEMB      74              0.0000000000
      8618        74  SAPS      C315          -11.9709889124       12.1349761725       -2.2276268456  MEMB      74              0.0000000000
      8619        74  SAPS      H15X          -11.9059474112       12.8504355566       -3.0750990376  MEMB      74              0.0000000000
      8620        74  SAPS      H15Y          -11.0099119129       11.6308726020       -1.9898631184  MEMB      74              0.0000000000
      8621        74  SAPS      C316          -12.4122401813       13.0662432943       -1.0519523736  MEMB      74              0.0000000000
      8622        74  SAPS      H16X          -12.5649661536       12.3890724870       -0.1845220824  MEMB      74              0.0000000000
      8623        74  SAPS      H16Y          -13.3118112815       13.5883169952       -1.4425038504  MEMB      74              0.0000000000
      8624        74  SAPS      C317          -11.2812743264       14.1428794861       -0.5632118174  MEMB      74              0.0000000000
      8625        74  SAPS      H17X          -10.3900211068       13.7151742970       -0.0562030606  MEMB      74              0.0000000000
      8626        74  SAPS      H17Y          -11.7427363967       14.7939725300        0.2097387117  MEMB      74              0.0000000000
      8627        74  SAPS      C318          -10.7785042336       15.1336518089       -1.6519483209  MEMB      74              0.0000000000
      8628        74  SAPS      H18X          -11.6972774355       15.6424532904       -2.0142997390  MEMB      74              0.0000000000
      8629        74  SAPS      H18Y          -10.4497073281       14.6097806400       -2.5748638009  MEMB      74              0.0000000000
      8630        74  SAPS      H18Z          -10.0114131712       15.8728304151       -1.3365016834  MEMB      74              0.0000000000
      8631        75  SAPS      N              16.4030968233       -9.9594523011      -20.6023081457  MEMB      75              0.0000000000
      8632        75  SAPS      HN1            16.6901795351       -9.0670951839      -20.1518835648  MEMB      75              0.0000000000
      8633        75  SAPS      HN2            15.8005174474       -9.7866422818      -21.4321483607  MEMB      75              0.0000000000
      8634        75  SAPS      HN3            15.8523361510      -10.4742205553      -19.8858750685  MEMB      75              0.0000000000
      8635        75  SAPS      C12            17.5093030661      -10.8582882863      -20.6372730129  MEMB      75              0.0000000000
      8636        75  SAPS      H12A           17.4996085245      -11.4275361059      -19.7195241528  MEMB      75              0.0000000000
      8637        75  SAPS      C13            17.4534029443      -11.7965423828      -21.8963559386  MEMB      75              0.0000000000
      8638        75  SAPS      O13A           16.6236990824      -11.6412298808      -22.7908462417  MEMB      75              0.0000000000
      8639        75  SAPS      O13B           18.4341916185      -12.6140994345      -21.9315468514  MEMB      75              0.0000000000
      8640        75  SAPS      C11            18.8203778201      -10.0488044370      -20.6862991343  MEMB      75              0.0000000000
      8641        75  SAPS      H11A           18.6531567950       -9.2128619686      -21.3987304341  MEMB      75              0.0000000000
      8642        75  SAPS      H11B           19.6043520570      -10.7162126499      -21.1037577531  MEMB      75              0.0000000000
      8643        75  SAPS      P              19.8435271576      -10.4022543473      -18.3190411582  MEMB      75              0.0000000000
      8644        75  SAPS      O13            20.2886936422      -11.7328434429      -18.8295161277  MEMB      75              0.0000000000
      8645        75  SAPS      O14            20.8944260224       -9.5391341765      -17.7962648534  MEMB      75              0.0000000000
      8646        75  SAPS      O12            19.0595638592       -9.5832528455      -19.3750147145  MEMB      75              0.0000000000
      8647        75  SAPS      O11            18.7760995658      -10.5552395625      -17.1355338627  MEMB      75              0.0000000000
      8648        75  SAPS      C1             17.6636884076       -9.6199080168      -17.0992671010  MEMB      75              0.0000000000
      8649        75  SAPS      HA             17.9958146680       -8.6510501581      -17.5297641963  MEMB      75              0.0000000000
      8650        75  SAPS      HB             16.8297900356       -9.9449177843      -17.7575246904  MEMB      75              0.0000000000
      8651        75  SAPS      C2             17.1855194285       -9.2220156934      -15.6888599650  MEMB      75              0.0000000000
      8652        75  SAPS      HS             16.8571471813       -8.1622561354      -15.7471912882  MEMB      75              0.0000000000
      8653        75  SAPS      O21            18.2377944917       -9.5180373028      -14.8342556485  MEMB      75              0.0000000000
      8654        75  SAPS      C21            19.3775492437       -8.7748801274      -14.8693455202  MEMB      75              0.0000000000
      8655        75  SAPS      O22            19.5877091733       -7.8765297723      -15.6588582857  MEMB      75              0.0000000000
      8656        75  SAPS      C22            20.3213261671       -9.2366874615      -13.7270833094  MEMB      75              0.0000000000
      8657        75  SAPS      H2R            19.8934972832      -10.1210402335      -13.2082348613  MEMB      75              0.0000000000
      8658        75  SAPS      H2S            21.2810471010       -9.5741244692      -14.1736176459  MEMB      75              0.0000000000
      8659        75  SAPS      C3             15.9799725013      -10.1127457753      -15.1652099173  MEMB      75              0.0000000000
      8660        75  SAPS      HX             16.3795471237      -11.1482631552      -15.2138396388  MEMB      75              0.0000000000
      8661        75  SAPS      HY             15.0106062651       -9.9832739350      -15.6923600954  MEMB      75              0.0000000000
      8662        75  SAPS      O31            15.7552001509       -9.7799469364      -13.7854499956  MEMB      75              0.0000000000
      8663        75  SAPS      C31            15.1873530691       -8.6173479126      -13.4524748547  MEMB      75              0.0000000000
      8664        75  SAPS      O32            14.6958219755       -7.8721734057      -14.2621087662  MEMB      75              0.0000000000
      8665        75  SAPS      C32            15.0175612152       -8.5319877298      -11.9289571442  MEMB      75              0.0000000000
      8666        75  SAPS      H2X            14.8741899385       -9.5480761785      -11.5031295353  MEMB      75              0.0000000000
      8667        75  SAPS      H2Y            14.2064967159       -7.8039092161      -11.7135556297  MEMB      75              0.0000000000
      8668        75  SAPS      C23            20.2156747066       -8.0960958232      -12.7187707176  MEMB      75              0.0000000000
      8669        75  SAPS      H3R            19.1277132563       -7.9995137178      -12.5154656042  MEMB      75              0.0000000000
      8670        75  SAPS      H3S            20.4923719123       -7.1099575025      -13.1492251149  MEMB      75              0.0000000000
      8671        75  SAPS      C24            20.9184634740       -8.3588240551      -11.3673598174  MEMB      75              0.0000000000
      8672        75  SAPS      H4R            20.3420279984       -9.2239053523      -10.9753427010  MEMB      75              0.0000000000
      8673        75  SAPS      H4S            20.8267612235       -7.4515287123      -10.7327518572  MEMB      75              0.0000000000
      8674        75  SAPS      C25            22.3255242692       -8.8404210343      -11.3882543801  MEMB      75              0.0000000000
      8675        75  SAPS      H5R            23.0065087412       -7.9765964097      -11.3800279078  MEMB      75              0.0000000000
      8676        75  SAPS      C26            22.7910986195      -10.1117290423      -11.4044777454  MEMB      75              0.0000000000
      8677        75  SAPS      H6R            23.8792508082      -10.2714545153      -11.4247961065  MEMB      75              0.0000000000
      8678        75  SAPS      C27            21.9487730307      -11.3456656537      -11.4732787271  MEMB      75              0.0000000000
      8679        75  SAPS      H7R            21.9193822302      -11.8974935195      -12.4370953097  MEMB      75              0.0000000000
      8680        75  SAPS      H7S            20.9003537881      -11.0717515550      -11.2281069881  MEMB      75              0.0000000000
      8681        75  SAPS      C28            22.3903559748      -12.3110457185      -10.3629460050  MEMB      75              0.0000000000
      8682        75  SAPS      H8R            23.4147883945      -12.6629359855      -10.5545486919  MEMB      75              0.0000000000
      8683        75  SAPS      C29            21.6699185532      -12.7546115157       -9.2927098174  MEMB      75              0.0000000000
      8684        75  SAPS      H9R            22.1382298054      -13.2033400253       -8.4042690471  MEMB      75              0.0000000000
      8685        75  SAPS      C210           20.2033944782      -12.4574031690       -9.0069157831  MEMB      75              0.0000000000
      8686        75  SAPS      H10R           20.1309787001      -11.3762817139       -8.7614504705  MEMB      75              0.0000000000
      8687        75  SAPS      H10S           19.9329594360      -12.8684386194       -8.0108056175  MEMB      75              0.0000000000
      8688        75  SAPS      C211           19.2077640958      -13.0451996147       -9.9609808060  MEMB      75              0.0000000000
      8689        75  SAPS      H11R           19.6283289428      -13.3970667948      -10.9145610125  MEMB      75              0.0000000000
      8690        75  SAPS      C212           17.8542219928      -13.1088454535       -9.8385755090  MEMB      75              0.0000000000
      8691        75  SAPS      H12R           17.2168750639      -13.6226153008      -10.5733056470  MEMB      75              0.0000000000
      8692        75  SAPS      C213           17.1228767207      -12.5719989455       -8.6443620911  MEMB      75              0.0000000000
      8693        75  SAPS      H13R           16.1476865204      -12.1260964523       -8.9350432607  MEMB      75              0.0000000000
      8694        75  SAPS      H13S           17.6022498207      -11.6543396734       -8.2413432770  MEMB      75              0.0000000000
      8695        75  SAPS      C214           17.0226561687      -13.5065709211       -7.5170262048  MEMB      75              0.0000000000
      8696        75  SAPS      H14R           16.6036019341      -14.4956343474       -7.7539796780  MEMB      75              0.0000000000
      8697        75  SAPS      C215           17.2971727460      -13.3171541013       -6.1947774631  MEMB      75              0.0000000000
      8698        75  SAPS      H15R           17.1950670168      -14.2598718802       -5.6372317338  MEMB      75              0.0000000000
      8699        75  SAPS      C216           17.7440379471      -12.0333094741       -5.5022639873  MEMB      75              0.0000000000
      8700        75  SAPS      H16R           18.0380383289      -11.2473315384       -6.2303597304  MEMB      75              0.0000000000
      8701        75  SAPS      H16S           18.6431887810      -12.3085055623       -4.9105580323  MEMB      75              0.0000000000
      8702        75  SAPS      C217           16.7230601955      -11.4342078518       -4.4435333108  MEMB      75              0.0000000000
      8703        75  SAPS      H17R           17.1849875812      -10.6802431581       -3.7708663318  MEMB      75              0.0000000000
      8704        75  SAPS      H17S           16.3824761952      -12.3246196736       -3.8730161145  MEMB      75              0.0000000000
      8705        75  SAPS      C218           15.4917530867      -10.7777590836       -5.1701827468  MEMB      75              0.0000000000
      8706        75  SAPS      H18R           15.2085456803      -11.4172936717       -6.0333800217  MEMB      75              0.0000000000
      8707        75  SAPS      H18S           15.9053713127       -9.8394812068       -5.5978228282  MEMB      75              0.0000000000
      8708        75  SAPS      C219           14.3118351795      -10.4499186711       -4.2827615828  MEMB      75              0.0000000000
      8709        75  SAPS      H19R           13.8685607205      -11.3708084755       -3.8471128083  MEMB      75              0.0000000000
      8710        75  SAPS      H19S           13.5049548821       -9.9469019606       -4.8574260654  MEMB      75              0.0000000000
      8711        75  SAPS      C220           14.4927603442       -9.5212457240       -3.1303591696  MEMB      75              0.0000000000
      8712        75  SAPS      H20R           15.2914640912       -8.7799298745       -3.3467933988  MEMB      75              0.0000000000
      8713        75  SAPS      H20S           14.8175916976      -10.0860033357       -2.2304403417  MEMB      75              0.0000000000
      8714        75  SAPS      H20T           13.5393176833       -8.9618972152       -3.0190156724  MEMB      75              0.0000000000
      8715        75  SAPS      C33            16.3369338409       -8.0286378996      -11.4892577006  MEMB      75              0.0000000000
      8716        75  SAPS      H3X            16.4944655897       -6.9508422000      -11.7080289271  MEMB      75              0.0000000000
      8717        75  SAPS      H3Y            17.1822458383       -8.6488277819      -11.8568616275  MEMB      75              0.0000000000
      8718        75  SAPS      C34            16.3750890756       -7.9560436413       -9.9313010670  MEMB      75              0.0000000000
      8719        75  SAPS      H4X            16.0011103570       -8.9459233362       -9.5927763712  MEMB      75              0.0000000000
      8720        75  SAPS      H4Y            15.6840432984       -7.2701882493       -9.3961571085  MEMB      75              0.0000000000
      8721        75  SAPS      C35            17.9039679302       -7.8565531424       -9.4810632054  MEMB      75              0.0000000000
      8722        75  SAPS      H5X            18.1567322897       -6.7753864146       -9.4422089920  MEMB      75              0.0000000000
      8723        75  SAPS      H5Y            18.4990553238       -8.2794446570      -10.3185322723  MEMB      75              0.0000000000
      8724        75  SAPS      C36            18.1053885956       -8.3690771529       -8.0476056365  MEMB      75              0.0000000000
      8725        75  SAPS      H6X            18.1712379609       -9.4770547175       -8.0962916611  MEMB      75              0.0000000000
      8726        75  SAPS      H6Y            17.2762790431       -8.0169462600       -7.3972965253  MEMB      75              0.0000000000
      8727        75  SAPS      C37            19.4561310939       -7.8278714611       -7.4281514221  MEMB      75              0.0000000000
      8728        75  SAPS      H7X            19.4692918130       -6.7238934068       -7.5521690815  MEMB      75              0.0000000000
      8729        75  SAPS      H7Y            20.3182001179       -8.1754933538       -8.0366882897  MEMB      75              0.0000000000
      8730        75  SAPS      C38            19.5962779758       -8.1171480178       -5.9364129379  MEMB      75              0.0000000000
      8731        75  SAPS      H8X            19.0052768041       -9.0329356979       -5.7210732707  MEMB      75              0.0000000000
      8732        75  SAPS      H8Y            19.2127566620       -7.2356304849       -5.3794933804  MEMB      75              0.0000000000
      8733        75  SAPS      C39            21.0617123098       -8.4649543881       -5.4535650106  MEMB      75              0.0000000000
      8734        75  SAPS      H9X            21.6592755319       -7.5636703995       -5.7083696912  MEMB      75              0.0000000000
      8735        75  SAPS      H9Y            21.4232676169       -9.2295690498       -6.1739558823  MEMB      75              0.0000000000
      8736        75  SAPS      C310           21.2027926791       -8.8521487723       -3.9896248598  MEMB      75              0.0000000000
      8737        75  SAPS      H10X           20.8448457910       -7.9261718971       -3.4908650817  MEMB      75              0.0000000000
      8738        75  SAPS      H10Y           22.2998579452       -8.9642636960       -3.8547213518  MEMB      75              0.0000000000
      8739        75  SAPS      C311           20.3901725049      -10.0243373776       -3.4810167690  MEMB      75              0.0000000000
      8740        75  SAPS      H11X           20.9334424455      -10.9248157966       -3.8392311076  MEMB      75              0.0000000000
      8741        75  SAPS      H11Y           19.3603677924      -10.0730926183       -3.8950772428  MEMB      75              0.0000000000
      8742        75  SAPS      C312           20.3291917801       -9.9265236403       -1.9711061384  MEMB      75              0.0000000000
      8743        75  SAPS      H12X           20.0208049358       -8.8828399861       -1.7476250172  MEMB      75              0.0000000000
      8744        75  SAPS      H12Y           21.2922518099      -10.1062720526       -1.4471527445  MEMB      75              0.0000000000
      8745        75  SAPS      C313           19.3019516516      -10.9232942342       -1.3886940491  MEMB      75              0.0000000000
      8746        75  SAPS      H13X           19.7009111111      -11.9601897669       -1.3890419098  MEMB      75              0.0000000000
      8747        75  SAPS      H13Y           18.4111122750      -11.0940119965       -2.0302395643  MEMB      75              0.0000000000
      8748        75  SAPS      C314           18.7479796872      -10.5244515814        0.0239535552  MEMB      75              0.0000000000
      8749        75  SAPS      H14X           18.2374724082       -9.5377507174        0.0351216701  MEMB      75              0.0000000000
      8750        75  SAPS      H14Y           19.6059052666      -10.5093761475        0.7296862922  MEMB      75              0.0000000000
      8751        75  SAPS      C315           17.6407352999      -11.4300949374        0.5948265697  MEMB      75              0.0000000000
      8752        75  SAPS      H15X           16.8007585899      -11.5150372488       -0.1273529668  MEMB      75              0.0000000000
      8753        75  SAPS      H15Y           17.2390980409      -10.9110796811        1.4912828078  MEMB      75              0.0000000000
      8754        75  SAPS      C316           18.0982158262      -12.8376225298        0.9652261808  MEMB      75              0.0000000000
      8755        75  SAPS      H16X           18.9532094975      -12.8695194578        1.6739502626  MEMB      75              0.0000000000
      8756        75  SAPS      H16Y           18.4624174110      -13.2483592583       -0.0006787861  MEMB      75              0.0000000000
      8757        75  SAPS      C317           17.0606339234      -13.9199764079        1.4966196479  MEMB      75              0.0000000000
      8758        75  SAPS      H17X           16.1350555639      -13.7520089891        0.9055083048  MEMB      75              0.0000000000
      8759        75  SAPS      H17Y           16.6521173917      -13.5961983124        2.4777430557  MEMB      75              0.0000000000
      8760        75  SAPS      C318           17.5142278114      -15.3774657248        1.4085590170  MEMB      75              0.0000000000
      8761        75  SAPS      H18X           17.9807515671      -15.6757570382        0.4453867179  MEMB      75              0.0000000000
      8762        75  SAPS      H18Y           16.7029068975      -16.0734935362        1.7112551437  MEMB      75              0.0000000000
      8763        75  SAPS      H18Z           18.3118983039      -15.4386769507        2.1794642125  MEMB      75              0.0000000000
      8764        76  POPC      N              21.7380135923       -5.6265208555      -19.0484364315  MEMB      76              0.0000000000
      8765        76  POPC      C12            20.6511872143       -4.5084923922      -18.7025154503  MEMB      76              0.0000000000
      8766        76  POPC      H12A           20.6572194358       -4.0543287223      -17.7226689789  MEMB      76              0.0000000000
      8767        76  POPC      H12B           19.6859645400       -4.9702602486      -18.5558332347  MEMB      76              0.0000000000
      8768        76  POPC      C13            21.6889576288       -6.7233758639      -18.0624519238  MEMB      76              0.0000000000
      8769        76  POPC      H13A           20.7583079437       -7.2648049668      -18.1469850629  MEMB      76              0.0000000000
      8770        76  POPC      H13B           22.5999394939       -7.3034524329      -18.0576816919  MEMB      76              0.0000000000
      8771        76  POPC      H13C           21.6119766383       -6.2348581350      -17.1023351194  MEMB      76              0.0000000000
      8772        76  POPC      C14            21.5605806674       -6.3067106853      -20.3579758695  MEMB      76              0.0000000000
      8773        76  POPC      H14A           20.6740235465       -6.9234872348      -20.3561282132  MEMB      76              0.0000000000
      8774        76  POPC      H14B           21.4296058394       -5.6403415990      -21.1977362561  MEMB      76              0.0000000000
      8775        76  POPC      H14C           22.4107828419       -6.9504345173      -20.5287864317  MEMB      76              0.0000000000
      8776        76  POPC      C15            23.0342067118       -4.9162055016      -19.1139110067  MEMB      76              0.0000000000
      8777        76  POPC      H15A           23.1801448915       -4.2971656970      -18.2410468637  MEMB      76              0.0000000000
      8778        76  POPC      H15B           23.1919581656       -4.3114253018      -19.9946808538  MEMB      76              0.0000000000
      8779        76  POPC      H15C           23.7371963308       -5.7334805774      -19.1792306737  MEMB      76              0.0000000000
      8780        76  POPC      C11            20.3596853812       -3.2823102730      -19.6912061629  MEMB      76              0.0000000000
      8781        76  POPC      H11A           19.4260264445       -2.8150324692      -19.3113990617  MEMB      76              0.0000000000
      8782        76  POPC      H11B           20.1797951526       -3.6287221207      -20.7313788760  MEMB      76              0.0000000000
      8783        76  POPC      P              21.5118445731       -1.1423722081      -18.8019568739  MEMB      76              0.0000000000
      8784        76  POPC      O13            20.9841471334       -1.4647561906      -17.4779773070  MEMB      76              0.0000000000
      8785        76  POPC      O14            20.8602268527        0.0159798543      -19.4383913711  MEMB      76              0.0000000000
      8786        76  POPC      O12            21.4635983258       -2.4589384190      -19.7337745307  MEMB      76              0.0000000000
      8787        76  POPC      O11            23.0968788193       -0.8634376563      -18.5714030362  MEMB      76              0.0000000000
      8788        76  POPC      C1             24.0320316903       -0.4026061121      -19.5468685191  MEMB      76              0.0000000000
      8789        76  POPC      HA             23.6439100319        0.3762351468      -20.2375845412  MEMB      76              0.0000000000
      8790        76  POPC      HB             24.2564892877       -1.3216780012      -20.1293174162  MEMB      76              0.0000000000
      8791        76  POPC      C2             25.3111639248        0.1299640843      -18.8379139484  MEMB      76              0.0000000000
      8792        76  POPC      HS             26.0865658713       -0.0534071494      -19.6121540361  MEMB      76              0.0000000000
      8793        76  POPC      O21            25.5778453813       -0.6280215323      -17.6833301600  MEMB      76              0.0000000000
      8794        76  POPC      C21            25.6007812390       -1.8983346200      -17.7574291391  MEMB      76              0.0000000000
      8795        76  POPC      O22            25.7598443830       -2.5932924830      -18.7879881262  MEMB      76              0.0000000000
      8796        76  POPC      C22            25.5079503295       -2.4964103074      -16.3874242841  MEMB      76              0.0000000000
      8797        76  POPC      H2R            24.5858291440       -2.1135761907      -15.9001343052  MEMB      76              0.0000000000
      8798        76  POPC      H2S            26.4151481957       -2.2850255415      -15.7819246528  MEMB      76              0.0000000000
      8799        76  POPC      C3             25.2950775598        1.6020215828      -18.3655287213  MEMB      76              0.0000000000
      8800        76  POPC      HX             25.4562625767        2.1657882941      -19.3091955433  MEMB      76              0.0000000000
      8801        76  POPC      HY             26.2271841746        1.7734882667      -17.7857901548  MEMB      76              0.0000000000
      8802        76  POPC      O31            23.9829665671        1.7972923775      -17.8126151165  MEMB      76              0.0000000000
      8803        76  POPC      C31            23.9984418557        1.6342260555      -16.4989601115  MEMB      76              0.0000000000
      8804        76  POPC      O32            24.9342209565        1.4767681563      -15.7784786006  MEMB      76              0.0000000000
      8805        76  POPC      C32            22.5466530812        1.6980169403      -15.9708930293  MEMB      76              0.0000000000
      8806        76  POPC      H2X            21.9093829498        1.6140164881      -16.8770671304  MEMB      76              0.0000000000
      8807        76  POPC      H2Y            22.4136876694        2.7270169503      -15.5736521619  MEMB      76              0.0000000000
      8808        76  POPC      C23            25.5901752707       -4.1145871244      -16.3121036779  MEMB      76              0.0000000000
      8809        76  POPC      H3R            26.4920604128       -4.3848338860      -16.9019261544  MEMB      76              0.0000000000
      8810        76  POPC      H3S            24.6513852728       -4.4895544445      -16.7729655513  MEMB      76              0.0000000000
      8811        76  POPC      C24            25.8118925426       -4.6476775771      -14.9949204780  MEMB      76              0.0000000000
      8812        76  POPC      H4R            26.7526070020       -4.1723771147      -14.6435425574  MEMB      76              0.0000000000
      8813        76  POPC      H4S            25.8225517826       -5.7578618074      -14.9537060438  MEMB      76              0.0000000000
      8814        76  POPC      C25            24.6489275202       -4.4664516116      -14.0215687141  MEMB      76              0.0000000000
      8815        76  POPC      H5R            23.6924897619       -4.9611300158      -14.2951395114  MEMB      76              0.0000000000
      8816        76  POPC      H5S            24.3690341803       -3.3918008408      -13.9883052009  MEMB      76              0.0000000000
      8817        76  POPC      C26            24.8477468010       -5.0157205185      -12.6090881431  MEMB      76              0.0000000000
      8818        76  POPC      H6R            24.8566085143       -6.1260726424      -12.5722030189  MEMB      76              0.0000000000
      8819        76  POPC      H6S            23.9259108902       -4.6824688157      -12.0861322859  MEMB      76              0.0000000000
      8820        76  POPC      C27            26.0619316192       -4.5799580874      -11.8452950338  MEMB      76              0.0000000000
      8821        76  POPC      H7R            26.9387667950       -5.0008117078      -12.3822896230  MEMB      76              0.0000000000
      8822        76  POPC      H7S            25.8666979590       -5.0893226126      -10.8774349191  MEMB      76              0.0000000000
      8823        76  POPC      C28            26.2696881502       -3.0665362667      -11.6547624651  MEMB      76              0.0000000000
      8824        76  POPC      H8R            25.2813853503       -2.6179159671      -11.4174474677  MEMB      76              0.0000000000
      8825        76  POPC      H8S            26.5325986672       -2.5010932173      -12.5742585906  MEMB      76              0.0000000000
      8826        76  POPC      C29            27.1726829477       -2.7594874319      -10.4966222957  MEMB      76              0.0000000000
      8827        76  POPC      H91            28.0942181370       -3.3600416624      -10.5069880835  MEMB      76              0.0000000000
      8828        76  POPC      C210           26.9063349178       -2.0558936688       -9.4023460213  MEMB      76              0.0000000000
      8829        76  POPC      H101           27.7071169904       -2.1734495565       -8.6574105763  MEMB      76              0.0000000000
      8830        76  POPC      C211           25.6570383563       -1.3257729526       -9.0217600759  MEMB      76              0.0000000000
      8831        76  POPC      H11R           24.9582085359       -1.2003357356       -9.8762906458  MEMB      76              0.0000000000
      8832        76  POPC      H11S           25.8224684016       -0.2762571568       -8.6969975555  MEMB      76              0.0000000000
      8833        76  POPC      C212           24.8439640783       -2.0594678414       -7.9570128538  MEMB      76              0.0000000000
      8834        76  POPC      H12R           24.3748009503       -3.0307148786       -8.2232568987  MEMB      76              0.0000000000
      8835        76  POPC      H12S           23.8776797696       -1.5296754321       -7.8158190520  MEMB      76              0.0000000000
      8836        76  POPC      C213           25.5970062291       -2.1395750515       -6.5930879589  MEMB      76              0.0000000000
      8837        76  POPC      H13R           26.3485652874       -1.3522599959       -6.3703439798  MEMB      76              0.0000000000
      8838        76  POPC      H13S           26.2825000693       -3.0090689535       -6.6847372329  MEMB      76              0.0000000000
      8839        76  POPC      C214           24.5971987628       -2.3547358590       -5.4577134415  MEMB      76              0.0000000000
      8840        76  POPC      H14R           23.7123155500       -1.7378726395       -5.7237632575  MEMB      76              0.0000000000
      8841        76  POPC      H14S           24.9073986326       -2.0074388277       -4.4490106575  MEMB      76              0.0000000000
      8842        76  POPC      C215           24.1902336214       -3.8900647875       -5.3320545170  MEMB      76              0.0000000000
      8843        76  POPC      H15R           24.9738463082       -4.5453982300       -4.8952354736  MEMB      76              0.0000000000
      8844        76  POPC      H15S           24.0703836351       -4.2072976145       -6.3900336260  MEMB      76              0.0000000000
      8845        76  POPC      C216           22.9680549596       -4.0420744936       -4.4556834745  MEMB      76              0.0000000000
      8846        76  POPC      H16R           22.5791381394       -5.0823923048       -4.4840316744  MEMB      76              0.0000000000
      8847        76  POPC      H16S           22.2327063554       -3.2585038849       -4.7378193865  MEMB      76              0.0000000000
      8848        76  POPC      C217           23.4320132446       -3.7696697699       -2.9645644466  MEMB      76              0.0000000000
      8849        76  POPC      H17R           22.6196554149       -3.1253718617       -2.5654717513  MEMB      76              0.0000000000
      8850        76  POPC      H17S           24.2829445534       -3.0727180947       -2.8080543659  MEMB      76              0.0000000000
      8851        76  POPC      C218           23.5346883129       -5.0163926045       -2.0311929070  MEMB      76              0.0000000000
      8852        76  POPC      H18R           24.1022967153       -5.8437125875       -2.5083550571  MEMB      76              0.0000000000
      8853        76  POPC      H18S           22.5485229542       -5.3869805228       -1.6783997713  MEMB      76              0.0000000000
      8854        76  POPC      H18T           24.0704918631       -4.7771135806       -1.0878057405  MEMB      76              0.0000000000
      8855        76  POPC      C33            22.1228637661        0.6329728174      -14.9886246337  MEMB      76              0.0000000000
      8856        76  POPC      H3X            22.3299265664       -0.3247675193      -15.5122459400  MEMB      76              0.0000000000
      8857        76  POPC      H3Y            21.0171028148        0.6004585474      -14.8858797827  MEMB      76              0.0000000000
      8858        76  POPC      C34            22.5408446807        0.8969842384      -13.5481430841  MEMB      76              0.0000000000
      8859        76  POPC      H4X            22.2678430196        1.9070382418      -13.1745364879  MEMB      76              0.0000000000
      8860        76  POPC      H4Y            23.6386736187        0.8007391079      -13.4073264766  MEMB      76              0.0000000000
      8861        76  POPC      C35            21.8912674212       -0.1433948406      -12.6669621161  MEMB      76              0.0000000000
      8862        76  POPC      H5X            22.4657400081       -1.0811950494      -12.8245466527  MEMB      76              0.0000000000
      8863        76  POPC      H5Y            20.9024333440       -0.3982747827      -13.1046426193  MEMB      76              0.0000000000
      8864        76  POPC      C36            21.7011272482        0.2685158824      -11.2047319600  MEMB      76              0.0000000000
      8865        76  POPC      H6X            21.0988596458        1.1940215104      -11.0821180257  MEMB      76              0.0000000000
      8866        76  POPC      H6Y            22.6607279481        0.5473820139      -10.7192204896  MEMB      76              0.0000000000
      8867        76  POPC      C37            20.9533539973       -0.7844104388      -10.3793506687  MEMB      76              0.0000000000
      8868        76  POPC      H7X            21.6577964117       -1.5480711436       -9.9857723521  MEMB      76              0.0000000000
      8869        76  POPC      H7Y            20.2038028257       -1.3409152569      -10.9816772092  MEMB      76              0.0000000000
      8870        76  POPC      C38            20.2813643752       -0.1810592941       -9.1212236981  MEMB      76              0.0000000000
      8871        76  POPC      H8X            19.5426248614        0.4935807404       -9.6043856627  MEMB      76              0.0000000000
      8872        76  POPC      H8Y            21.0301464325        0.3692021857       -8.5122420919  MEMB      76              0.0000000000
      8873        76  POPC      C39            19.3965419715       -1.2042476672       -8.3245782969  MEMB      76              0.0000000000
      8874        76  POPC      H9X            20.1059625083       -1.8246403730       -7.7362283001  MEMB      76              0.0000000000
      8875        76  POPC      H9Y            18.8837185716       -1.8782603368       -9.0436336893  MEMB      76              0.0000000000
      8876        76  POPC      C310           18.3180234727       -0.5338464885       -7.4618439105  MEMB      76              0.0000000000
      8877        76  POPC      H10X           17.5785088329       -1.3436111107       -7.2837430799  MEMB      76              0.0000000000
      8878        76  POPC      H10Y           17.6553072227        0.1806669486       -7.9953224592  MEMB      76              0.0000000000
      8879        76  POPC      C311           18.8119241278       -0.0113342475       -6.1129970282  MEMB      76              0.0000000000
      8880        76  POPC      H11X           17.9635469982        0.5615239998       -5.6812444183  MEMB      76              0.0000000000
      8881        76  POPC      H11Y           19.6663964214        0.6769811619       -6.2874100208  MEMB      76              0.0000000000
      8882        76  POPC      C312           18.9167522921       -1.1552211914       -5.1001613194  MEMB      76              0.0000000000
      8883        76  POPC      H12X           19.4462177247       -2.0510861194       -5.4892807525  MEMB      76              0.0000000000
      8884        76  POPC      H12Y           17.8463290868       -1.3827659611       -4.9084901342  MEMB      76              0.0000000000
      8885        76  POPC      C313           19.5954249470       -0.6866523131       -3.7832304558  MEMB      76              0.0000000000
      8886        76  POPC      H13X           19.0360487954        0.1244456953       -3.2698696046  MEMB      76              0.0000000000
      8887        76  POPC      H13Y           20.6085685216       -0.3132895429       -4.0448812456  MEMB      76              0.0000000000
      8888        76  POPC      C314           19.6609289577       -1.7814429566       -2.7866025755  MEMB      76              0.0000000000
      8889        76  POPC      H14X           20.1274505112       -2.7189765219       -3.1576945166  MEMB      76              0.0000000000
      8890        76  POPC      H14Y           18.6573602406       -2.1204286524       -2.4515513736  MEMB      76              0.0000000000
      8891        76  POPC      C315           20.3461591571       -1.4276023246       -1.4762150451  MEMB      76              0.0000000000
      8892        76  POPC      H15X           19.7341973931       -0.5423271320       -1.2003316342  MEMB      76              0.0000000000
      8893        76  POPC      H15Y           21.3487016492       -1.0407785630       -1.7583442659  MEMB      76              0.0000000000
      8894        76  POPC      C316           20.5079561228       -2.5069117815       -0.3885668099  MEMB      76              0.0000000000
      8895        76  POPC      H16X           21.1352188339       -3.2613631902       -0.9097822707  MEMB      76              0.0000000000
      8896        76  POPC      H16Y           19.5655620392       -3.0066480954       -0.0779574934  MEMB      76              0.0000000000
      8897        76  POPC      H16Z           21.0321703941       -2.1713187405        0.5317034790  MEMB      76              0.0000000000
      8898        77  OSM       N              10.7404355099       21.3715649194      -21.2688417121  MEMB      77              0.0000000000
      8899        77  OSM       C15            10.7502142998       21.1933144233      -19.7772248391  MEMB      77              0.0000000000
      8900        77  OSM       H15A           10.6334605222       22.1451862391      -19.2805269171  MEMB      77              0.0000000000
      8901        77  OSM       H15B           11.6836931488       20.8285675246      -19.3747616445  MEMB      77              0.0000000000
      8902        77  OSM       H15C            9.9409234650       20.5366664511      -19.4939194613  MEMB      77              0.0000000000
      8903        77  OSM       C14             9.6517674869       22.3982785771      -21.6183731706  MEMB      77              0.0000000000
      8904        77  OSM       H14A            8.6873615592       22.0915637110      -21.2412164030  MEMB      77              0.0000000000
      8905        77  OSM       H14B            9.6362232672       22.4719336030      -22.6957465194  MEMB      77              0.0000000000
      8906        77  OSM       H14C            9.8991317961       23.3242498551      -21.1205901406  MEMB      77              0.0000000000
      8907        77  OSM       C13            12.1107012191       21.8164475235      -21.6331824559  MEMB      77              0.0000000000
      8908        77  OSM       H13A           12.8967729281       21.3084429318      -21.0942740307  MEMB      77              0.0000000000
      8909        77  OSM       H13B           12.0675521161       22.8715151925      -21.4065317668  MEMB      77              0.0000000000
      8910        77  OSM       H13C           12.1562692508       21.6522520965      -22.6996549118  MEMB      77              0.0000000000
      8911        77  OSM       C12            10.5380612688       20.0615478603      -21.9550687221  MEMB      77              0.0000000000
      8912        77  OSM       H12A           11.4932441936       19.5722546092      -21.8341650666  MEMB      77              0.0000000000
      8913        77  OSM       H12B           10.5339322077       20.2316332027      -23.0215834647  MEMB      77              0.0000000000
      8914        77  OSM       C11             9.4628989723       19.0682859248      -21.4369106236  MEMB      77              0.0000000000
      8915        77  OSM       H11A            9.7926748494       18.5128302004      -20.5330092266  MEMB      77              0.0000000000
      8916        77  OSM       H11B            9.3918697857       18.2750442166      -22.2115353783  MEMB      77              0.0000000000
      8917        77  OSM       P               7.0183511292       18.7239183963      -20.6970757994  MEMB      77              0.0000000000
      8918        77  OSM       O13             5.8901982165       19.5879721223      -20.8645214456  MEMB      77              0.0000000000
      8919        77  OSM       O14             7.0040463734       17.4032439752      -21.3798602058  MEMB      77              0.0000000000
      8920        77  OSM       O11             7.3218241867       18.4564877032      -19.1637854886  MEMB      77              0.0000000000
      8921        77  OSM       O12             8.2049324376       19.5728092795      -21.2051555369  MEMB      77              0.0000000000
      8922        77  OSM       C1S             7.2466889335       19.4891563776      -18.2102632255  MEMB      77              0.0000000000
      8923        77  OSM       H1S             6.1578400697       19.6736356431      -18.0890350323  MEMB      77              0.0000000000
      8924        77  OSM       H1T             7.6516349158       20.4550336646      -18.5809662576  MEMB      77              0.0000000000
      8925        77  OSM       NF              9.2015577779       19.4165424046      -16.5345309201  MEMB      77              0.0000000000
      8926        77  OSM       HNF             9.8260452700       18.6424116076      -16.4656397882  MEMB      77              0.0000000000
      8927        77  OSM       C2S             7.8028477341       19.0169716748      -16.7765505004  MEMB      77              0.0000000000
      8928        77  OSM       H2S             7.0970775862       19.5397009552      -16.0961363442  MEMB      77              0.0000000000
      8929        77  OSM       C3S             7.8058723268       17.5449221811      -16.6458147366  MEMB      77              0.0000000000
      8930        77  OSM       H3S             8.5377235424       17.0246389163      -17.3000471957  MEMB      77              0.0000000000
      8931        77  OSM       O3              6.5525076420       17.0097184296      -16.9682546921  MEMB      77              0.0000000000
      8932        77  OSM       HO3             6.0429821969       17.7891154706      -17.2017590588  MEMB      77              0.0000000000
      8933        77  OSM       C4S             8.0818524945       17.0593597041      -15.2224073966  MEMB      77              0.0000000000
      8934        77  OSM       H4S             7.3129126084       17.4651867099      -14.5485852563  MEMB      77              0.0000000000
      8935        77  OSM       C5S             9.0557014923       16.1232777054      -14.8907554105  MEMB      77              0.0000000000
      8936        77  OSM       H5S             9.6959289099       15.7181511206      -15.6882397419  MEMB      77              0.0000000000
      8937        77  OSM       C6S             9.2784791730       15.6282926157      -13.4527990096  MEMB      77              0.0000000000
      8938        77  OSM       H6S            10.3724282521       15.5183826902      -13.2930609190  MEMB      77              0.0000000000
      8939        77  OSM       H6T             8.8280465688       14.6250792042      -13.2947015110  MEMB      77              0.0000000000
      8940        77  OSM       C7S             8.7065246628       16.5691868459      -12.3312490195  MEMB      77              0.0000000000
      8941        77  OSM       H7S             7.6000935499       16.6186044634      -12.4189359437  MEMB      77              0.0000000000
      8942        77  OSM       H7T             9.0050853162       17.6126581689      -12.5686311062  MEMB      77              0.0000000000
      8943        77  OSM       C8S             9.0448361572       16.2285799794      -10.8452232488  MEMB      77              0.0000000000
      8944        77  OSM       H8S            10.1309166817       15.9972752879      -10.8098964195  MEMB      77              0.0000000000
      8945        77  OSM       H8T             8.5478402922       15.3043657684      -10.4803331878  MEMB      77              0.0000000000
      8946        77  OSM       C9S             8.7836109494       17.3169743299       -9.8383813222  MEMB      77              0.0000000000
      8947        77  OSM       H9S             7.6863372848       17.4315070724       -9.7072569897  MEMB      77              0.0000000000
      8948        77  OSM       H9T             9.1780256083       18.2883174611      -10.2061456852  MEMB      77              0.0000000000
      8949        77  OSM       C10S            9.2960227206       16.9079583825       -8.4375824446  MEMB      77              0.0000000000
      8950        77  OSM       H10S           10.3924513903       16.8057113174       -8.2902370117  MEMB      77              0.0000000000
      8951        77  OSM       H10T            8.8904889668       15.8852439006       -8.2829251778  MEMB      77              0.0000000000
      8952        77  OSM       C11S            8.7076349664       17.5843426140       -7.2745600073  MEMB      77              0.0000000000
      8953        77  OSM       H11S            7.5997796240       17.5008149791       -7.2753676485  MEMB      77              0.0000000000
      8954        77  OSM       H11T            8.9300152603       18.6728586907       -7.2736963067  MEMB      77              0.0000000000
      8955        77  OSM       C12S            9.1861628567       17.0330357106       -5.9730063900  MEMB      77              0.0000000000
      8956        77  OSM       H12S            9.2673651854       15.9289054896       -6.0658714520  MEMB      77              0.0000000000
      8957        77  OSM       H12T            8.4759356794       17.1833092182       -5.1319847826  MEMB      77              0.0000000000
      8958        77  OSM       C13S           10.5619711199       17.5802880446       -5.5700577828  MEMB      77              0.0000000000
      8959        77  OSM       H13S           10.4263602555       18.6703819777       -5.4038478666  MEMB      77              0.0000000000
      8960        77  OSM       H13T           11.2949066742       17.4043102636       -6.3862422227  MEMB      77              0.0000000000
      8961        77  OSM       C14S           11.2003229169       16.9160730687       -4.3593180577  MEMB      77              0.0000000000
      8962        77  OSM       H14S           12.3034745765       16.9419088219       -4.4885850973  MEMB      77              0.0000000000
      8963        77  OSM       H14T           11.0313133880       15.8212315309       -4.2751783583  MEMB      77              0.0000000000
      8964        77  OSM       C15S           10.8330429933       17.5070497128       -3.0042583914  MEMB      77              0.0000000000
      8965        77  OSM       H15S            9.7713452590       17.3605608840       -2.7115813259  MEMB      77              0.0000000000
      8966        77  OSM       H15T           10.9679520771       18.5970146173       -3.1718804588  MEMB      77              0.0000000000
      8967        77  OSM       C16S           11.8291666468       17.0442610589       -1.8861968684  MEMB      77              0.0000000000
      8968        77  OSM       H16S           12.8192300344       16.9954606862       -2.3879077197  MEMB      77              0.0000000000
      8969        77  OSM       H16T           11.5873950797       16.0118990318       -1.5543891863  MEMB      77              0.0000000000
      8970        77  OSM       C17S           11.9805914421       17.9710454660       -0.6709578389  MEMB      77              0.0000000000
      8971        77  OSM       H17S           12.3657170755       18.9134673440       -1.1157497246  MEMB      77              0.0000000000
      8972        77  OSM       H17T           12.7433110610       17.6469947575        0.0690221942  MEMB      77              0.0000000000
      8973        77  OSM       C18S           10.6040343585       18.2482933045       -0.0202773382  MEMB      77              0.0000000000
      8974        77  OSM       H18S           10.6593145732       19.1055978261        0.6842046941  MEMB      77              0.0000000000
      8975        77  OSM       H18T           10.1925721371       17.3951322632        0.5603573846  MEMB      77              0.0000000000
      8976        77  OSM       H18U            9.8717007084       18.5490383112       -0.7997389032  MEMB      77              0.0000000000
      8977        77  OSM       C1F             9.6127779818       20.6757084296      -16.4493336183  MEMB      77              0.0000000000
      8978        77  OSM       OF              8.8841682600       21.6345881830      -16.6803608348  MEMB      77              0.0000000000
      8979        77  OSM       C2F            11.0665055826       20.8040652103      -16.1190684641  MEMB      77              0.0000000000
      8980        77  OSM       H2F            11.3978045207       21.7947268823      -16.4974220872  MEMB      77              0.0000000000
      8981        77  OSM       H2G            11.5632124978       19.9724976565      -16.6632178065  MEMB      77              0.0000000000
      8982        77  OSM       C3F            11.2936684986       20.7780362887      -14.5322918739  MEMB      77              0.0000000000
      8983        77  OSM       H3F            11.1758816281       19.7201550813      -14.2139609478  MEMB      77              0.0000000000
      8984        77  OSM       H3G            10.6165046378       21.4530351271      -13.9664771338  MEMB      77              0.0000000000
      8985        77  OSM       C4F            12.7558343118       21.0405507322      -14.2891185464  MEMB      77              0.0000000000
      8986        77  OSM       H4F            12.9607170979       22.1222029894      -14.1395429760  MEMB      77              0.0000000000
      8987        77  OSM       H4G            13.4299092578       20.6225512473      -15.0670779005  MEMB      77              0.0000000000
      8988        77  OSM       C5F            13.2479138534       20.4045468801      -13.0121157858  MEMB      77              0.0000000000
      8989        77  OSM       H5F            14.2928539707       20.7472737225      -12.8541314599  MEMB      77              0.0000000000
      8990        77  OSM       H5G            13.3668690983       19.3006092272      -12.9734856557  MEMB      77              0.0000000000
      8991        77  OSM       C6F            12.2281203521       20.7511549763      -11.8859270179  MEMB      77              0.0000000000
      8992        77  OSM       H6F            11.3050208023       20.1492258658      -12.0269559610  MEMB      77              0.0000000000
      8993        77  OSM       H6G            11.9434052577       21.8234410332      -11.9447586218  MEMB      77              0.0000000000
      8994        77  OSM       C7F            12.7830498326       20.5384159396      -10.4092602375  MEMB      77              0.0000000000
      8995        77  OSM       H7F            13.8246072630       20.9216357590      -10.4604605988  MEMB      77              0.0000000000
      8996        77  OSM       H7G            12.7295997445       19.4626231566      -10.1369844898  MEMB      77              0.0000000000
      8997        77  OSM       C8F            12.1222630876       21.5036171576       -9.4789325936  MEMB      77              0.0000000000
      8998        77  OSM       H8F            11.0349648167       21.2758603885       -9.4637672498  MEMB      77              0.0000000000
      8999        77  OSM       H8G            12.1205370766       22.5454019719       -9.8649408953  MEMB      77              0.0000000000
      9000        77  OSM       C9F            12.6304356196       21.5254145948       -8.0919158908  MEMB      77              0.0000000000
      9001        77  OSM       H9F            13.6139738389       21.1768361957       -7.7438548036  MEMB      77              0.0000000000
      9002        77  OSM       C10F           11.9036853417       21.9678452783       -7.0705757017  MEMB      77              0.0000000000
      9003        77  OSM       H10F           12.3276548694       21.9287212042       -6.0563170354  MEMB      77              0.0000000000
      9004        77  OSM       C11F           10.4890049429       22.5129780942       -7.1664942778  MEMB      77              0.0000000000
      9005        77  OSM       H11F            9.7985623635       21.7581337241       -6.7331121383  MEMB      77              0.0000000000
      9006        77  OSM       H11G           10.1661652419       22.6280109874       -8.2233114208  MEMB      77              0.0000000000
      9007        77  OSM       C12F           10.0220094456       23.8144101789       -6.4049027349  MEMB      77              0.0000000000
      9008        77  OSM       H12F            8.9120789166       23.8584081469       -6.3839385894  MEMB      77              0.0000000000
      9009        77  OSM       H12G           10.4152621692       24.6227302772       -7.0578130964  MEMB      77              0.0000000000
      9010        77  OSM       C13F           10.4494782215       24.0974889944       -4.9828791039  MEMB      77              0.0000000000
      9011        77  OSM       H13F            9.9687791789       24.9967345986       -4.5417370953  MEMB      77              0.0000000000
      9012        77  OSM       H13G           11.5550752914       24.2069109061       -4.9810846400  MEMB      77              0.0000000000
      9013        77  OSM       C14F           10.1397116720       22.8485526392       -4.0836824901  MEMB      77              0.0000000000
      9014        77  OSM       H14F           10.4334606483       23.0948878271       -3.0409196827  MEMB      77              0.0000000000
      9015        77  OSM       H14G           10.6532686575       21.9167552677       -4.4035787655  MEMB      77              0.0000000000
      9016        77  OSM       C15F            8.6801795659       22.3233805295       -4.2041716054  MEMB      77              0.0000000000
      9017        77  OSM       H15F            8.6697442436       21.7167179063       -5.1348557795  MEMB      77              0.0000000000
      9018        77  OSM       H15G            8.0188458112       23.2068758877       -4.3322135247  MEMB      77              0.0000000000
      9019        77  OSM       C16F            8.1770119867       21.5564371193       -3.0259687227  MEMB      77              0.0000000000
      9020        77  OSM       H16F            8.9658971502       20.9364647193       -2.5488783911  MEMB      77              0.0000000000
      9021        77  OSM       H16G            7.4971085775       20.7134444600       -3.2737906501  MEMB      77              0.0000000000
      9022        77  OSM       C17F            7.5004987305       22.4362208026       -2.0467884007  MEMB      77              0.0000000000
      9023        77  OSM       H17F            6.9482420695       23.2564602011       -2.5532871982  MEMB      77              0.0000000000
      9024        77  OSM       H17G            8.3793945008       22.8766137517       -1.5291816919  MEMB      77              0.0000000000
      9025        77  OSM       C18F            6.4718553384       21.8592247375       -1.0722907223  MEMB      77              0.0000000000
      9026        77  OSM       H18F            6.8920169414       21.3238032776       -0.1941628353  MEMB      77              0.0000000000
      9027        77  OSM       H18G            5.7995701490       21.1392484100       -1.5860897011  MEMB      77              0.0000000000
      9028        77  OSM       H18H            5.8264558565       22.6380737631       -0.6127539463  MEMB      77              0.0000000000
      9029        78  SAPE      N             -20.6208186721       -1.4613621718      -22.2091924150  MEMB      78              0.0000000000
      9030        78  SAPE      HN1           -20.4611989664       -0.9982426990      -23.1266029464  MEMB      78              0.0000000000
      9031        78  SAPE      HN2           -19.6822481036       -1.5743068106      -21.7756845368  MEMB      78              0.0000000000
      9032        78  SAPE      HN3           -21.0572739923       -2.3906244995      -22.3752593671  MEMB      78              0.0000000000
      9033        78  SAPE      C12           -21.2830542369       -0.5932076491      -21.2010796382  MEMB      78              0.0000000000
      9034        78  SAPE      H12A          -22.3201948248       -0.3635192457      -21.5265081495  MEMB      78              0.0000000000
      9035        78  SAPE      H12B          -20.6814717192        0.3171158405      -20.9919603634  MEMB      78              0.0000000000
      9036        78  SAPE      C11           -21.3224843159       -1.4072241450      -19.8621684895  MEMB      78              0.0000000000
      9037        78  SAPE      H11A          -21.6613131565       -0.6971703739      -19.0777325356  MEMB      78              0.0000000000
      9038        78  SAPE      H11B          -20.2807930612       -1.6746222350      -19.5834237887  MEMB      78              0.0000000000
      9039        78  SAPE      P             -23.5190036298       -2.6513300592      -19.4030579985  MEMB      78              0.0000000000
      9040        78  SAPE      O13           -24.3615652946       -1.5790734088      -19.9510049980  MEMB      78              0.0000000000
      9041        78  SAPE      O14           -24.0250805265       -4.0741807986      -19.5196939313  MEMB      78              0.0000000000
      9042        78  SAPE      O12           -22.1380452515       -2.5730535809      -20.0063058981  MEMB      78              0.0000000000
      9043        78  SAPE      O11           -23.2600521021       -2.4815363689      -17.8474966290  MEMB      78              0.0000000000
      9044        78  SAPE      C1            -22.0779648977       -3.0038378747      -17.2609434755  MEMB      78              0.0000000000
      9045        78  SAPE      HA            -21.8812239884       -4.0582391870      -17.5505150451  MEMB      78              0.0000000000
      9046        78  SAPE      HB            -21.1667733959       -2.4301643014      -17.5347126407  MEMB      78              0.0000000000
      9047        78  SAPE      C2            -22.2752756870       -3.0115581530      -15.7269030170  MEMB      78              0.0000000000
      9048        78  SAPE      HS            -21.3586755602       -3.5076197837      -15.3420807011  MEMB      78              0.0000000000
      9049        78  SAPE      O21           -23.4857124340       -3.6444567764      -15.2803791290  MEMB      78              0.0000000000
      9050        78  SAPE      C21           -23.2493128373       -4.7051527374      -14.5841557186  MEMB      78              0.0000000000
      9051        78  SAPE      O22           -22.1700256891       -5.3161098632      -14.5190952231  MEMB      78              0.0000000000
      9052        78  SAPE      C22           -24.4983772612       -5.1709217100      -13.9320072840  MEMB      78              0.0000000000
      9053        78  SAPE      H2R           -25.3641894983       -4.4811346801      -13.8377503867  MEMB      78              0.0000000000
      9054        78  SAPE      H2S           -24.8069415931       -6.0859964330      -14.4813223684  MEMB      78              0.0000000000
      9055        78  SAPE      C3            -22.2021963249       -1.5473979565      -15.2110263970  MEMB      78              0.0000000000
      9056        78  SAPE      HX            -23.0872138475       -1.0224101883      -15.6298971443  MEMB      78              0.0000000000
      9057        78  SAPE      HY            -21.2882481582       -1.1112455768      -15.6679628084  MEMB      78              0.0000000000
      9058        78  SAPE      O31           -22.1955570011       -1.6623141365      -13.7840774125  MEMB      78              0.0000000000
      9059        78  SAPE      C31           -23.3409512041       -1.3048896286      -13.1740502351  MEMB      78              0.0000000000
      9060        78  SAPE      O32           -24.3282311473       -0.8214202485      -13.6778718489  MEMB      78              0.0000000000
      9061        78  SAPE      C32           -23.4446871526       -1.6767115215      -11.7044492044  MEMB      78              0.0000000000
      9062        78  SAPE      H2X           -22.6320223545       -2.3795884114      -11.4218519774  MEMB      78              0.0000000000
      9063        78  SAPE      H2Y           -24.4870820905       -2.0565258707      -11.6455022266  MEMB      78              0.0000000000
      9064        78  SAPE      C23           -24.0591321327       -5.4384583009      -12.4897854906  MEMB      78              0.0000000000
      9065        78  SAPE      H3R           -23.3441296983       -4.6612858114      -12.1446834471  MEMB      78              0.0000000000
      9066        78  SAPE      H3S           -23.3152320445       -6.2636451044      -12.4893660368  MEMB      78              0.0000000000
      9067        78  SAPE      C24           -25.2754007360       -5.6442875860      -11.5556940996  MEMB      78              0.0000000000
      9068        78  SAPE      H4R           -24.8736805625       -6.1946429457      -10.6781686078  MEMB      78              0.0000000000
      9069        78  SAPE      H4S           -25.7953039133       -6.4310827276      -12.1430403702  MEMB      78              0.0000000000
      9070        78  SAPE      C25           -26.1667276348       -4.4283156750      -11.3114888328  MEMB      78              0.0000000000
      9071        78  SAPE      H5R           -26.2863495903       -3.7659678426      -12.1815384604  MEMB      78              0.0000000000
      9072        78  SAPE      C26           -26.6582388871       -4.0302000239      -10.1078510539  MEMB      78              0.0000000000
      9073        78  SAPE      H6R           -27.1978761519       -3.0719637561      -10.0838771684  MEMB      78              0.0000000000
      9074        78  SAPE      C27           -26.3881135494       -4.7170155477       -8.7790812950  MEMB      78              0.0000000000
      9075        78  SAPE      H7R           -25.7240485110       -5.5900540230       -8.9555535665  MEMB      78              0.0000000000
      9076        78  SAPE      H7S           -27.3380047035       -5.0125675007       -8.2844331703  MEMB      78              0.0000000000
      9077        78  SAPE      C28           -25.6701789909       -4.0197116939       -7.6535600856  MEMB      78              0.0000000000
      9078        78  SAPE      H8R           -26.4065564531       -3.4259855178       -7.0920994752  MEMB      78              0.0000000000
      9079        78  SAPE      C29           -24.3750070453       -4.0574415135       -7.1570804907  MEMB      78              0.0000000000
      9080        78  SAPE      H9R           -24.2415395646       -3.4707855634       -6.2361988753  MEMB      78              0.0000000000
      9081        78  SAPE      C210          -23.2211480180       -4.8731199611       -7.7464747132  MEMB      78              0.0000000000
      9082        78  SAPE      H10R          -23.4831376168       -5.6508225002       -8.4953816890  MEMB      78              0.0000000000
      9083        78  SAPE      H10S          -22.7355100915       -5.4691254418       -6.9444434860  MEMB      78              0.0000000000
      9084        78  SAPE      C211          -22.1870328804       -4.1677267818       -8.5828072910  MEMB      78              0.0000000000
      9085        78  SAPE      H11R          -22.4224120607       -4.1694609892       -9.6573278109  MEMB      78              0.0000000000
      9086        78  SAPE      C212          -21.0238152435       -3.6160836918       -8.2020074636  MEMB      78              0.0000000000
      9087        78  SAPE      H12R          -20.3212976614       -3.1882890010       -8.9323913748  MEMB      78              0.0000000000
      9088        78  SAPE      C213          -20.4115866103       -3.5905681881       -6.8311946323  MEMB      78              0.0000000000
      9089        78  SAPE      H13R          -19.3168920487       -3.7039057274       -6.9832441964  MEMB      78              0.0000000000
      9090        78  SAPE      H13S          -20.7342422906       -4.4710169060       -6.2353552035  MEMB      78              0.0000000000
      9091        78  SAPE      C214          -20.7630783250       -2.3675396723       -6.0666657938  MEMB      78              0.0000000000
      9092        78  SAPE      H14R          -20.2176013584       -1.4661863057       -6.3829203028  MEMB      78              0.0000000000
      9093        78  SAPE      C215          -21.4165862096       -2.3039900653       -4.8581289761  MEMB      78              0.0000000000
      9094        78  SAPE      H15R          -21.4250799293       -1.2823810531       -4.4504005168  MEMB      78              0.0000000000
      9095        78  SAPE      C216          -21.9170198888       -3.4217342237       -4.0884204140  MEMB      78              0.0000000000
      9096        78  SAPE      H16R          -22.3414459574       -4.3302101010       -4.5668082092  MEMB      78              0.0000000000
      9097        78  SAPE      H16S          -22.8810838310       -3.0885345144       -3.6481013433  MEMB      78              0.0000000000
      9098        78  SAPE      C217          -20.8981726555       -3.8289089086       -2.9860487999  MEMB      78              0.0000000000
      9099        78  SAPE      H17R          -19.9323386058       -4.0782465278       -3.4752487432  MEMB      78              0.0000000000
      9100        78  SAPE      H17S          -21.2384238094       -4.7969047680       -2.5599805586  MEMB      78              0.0000000000
      9101        78  SAPE      C218          -20.6621044153       -2.8008295930       -1.8263900293  MEMB      78              0.0000000000
      9102        78  SAPE      H18R          -20.0784557110       -1.9486359680       -2.2355865208  MEMB      78              0.0000000000
      9103        78  SAPE      H18S          -19.9798410866       -3.2532835937       -1.0753093929  MEMB      78              0.0000000000
      9104        78  SAPE      C219          -21.8038879411       -2.2666556062       -0.9685742916  MEMB      78              0.0000000000
      9105        78  SAPE      H19R          -22.3772198625       -3.0746504386       -0.4658262029  MEMB      78              0.0000000000
      9106        78  SAPE      H19S          -22.5200967016       -1.7202614341       -1.6188184975  MEMB      78              0.0000000000
      9107        78  SAPE      C220          -21.2325166475       -1.5207202629        0.2232934194  MEMB      78              0.0000000000
      9108        78  SAPE      H20R          -20.5430907846       -0.7529156804       -0.1883973519  MEMB      78              0.0000000000
      9109        78  SAPE      H20S          -20.5817756603       -2.2451043622        0.7581992170  MEMB      78              0.0000000000
      9110        78  SAPE      H20T          -22.0597249137       -1.0401998574        0.7882240011  MEMB      78              0.0000000000
      9111        78  SAPE      C33           -23.3796516100       -0.4833985130      -10.7613841226  MEMB      78              0.0000000000
      9112        78  SAPE      H3X           -24.0889641822        0.2852419632      -11.1360688585  MEMB      78              0.0000000000
      9113        78  SAPE      H3Y           -22.3816658295        0.0046575210      -10.7492722365  MEMB      78              0.0000000000
      9114        78  SAPE      C34           -23.7195923379       -0.7361394496       -9.2451662372  MEMB      78              0.0000000000
      9115        78  SAPE      H4X           -23.0940496401       -1.6131332525       -8.9733224511  MEMB      78              0.0000000000
      9116        78  SAPE      H4Y           -24.7863739684       -1.0457421092       -9.2240952940  MEMB      78              0.0000000000
      9117        78  SAPE      C35           -23.4501619796        0.5019189328       -8.3874514064  MEMB      78              0.0000000000
      9118        78  SAPE      H5X           -23.8403488668        1.4323863258       -8.8525381460  MEMB      78              0.0000000000
      9119        78  SAPE      H5Y           -22.3395855747        0.4888999106       -8.3596768646  MEMB      78              0.0000000000
      9120        78  SAPE      C36           -23.9571992506        0.3897564413       -6.8967136510  MEMB      78              0.0000000000
      9121        78  SAPE      H6X           -23.4081854663       -0.5240319599       -6.5838308757  MEMB      78              0.0000000000
      9122        78  SAPE      H6Y           -25.0453699160        0.1725805097       -6.8415754347  MEMB      78              0.0000000000
      9123        78  SAPE      C37           -23.4466892282        1.5510371233       -6.0787586200  MEMB      78              0.0000000000
      9124        78  SAPE      H7X           -24.1102725651        2.4364367428       -6.1789862735  MEMB      78              0.0000000000
      9125        78  SAPE      H7Y           -22.4238577452        1.9255172146       -6.2976222857  MEMB      78              0.0000000000
      9126        78  SAPE      C38           -23.5596981577        1.3097959009       -4.5405906228  MEMB      78              0.0000000000
      9127        78  SAPE      H8X           -23.0012741323        2.1333365040       -4.0463590554  MEMB      78              0.0000000000
      9128        78  SAPE      H8Y           -23.0345172739        0.3431456463       -4.3853699770  MEMB      78              0.0000000000
      9129        78  SAPE      C39           -25.0770460492        1.1690606535       -4.1675580860  MEMB      78              0.0000000000
      9130        78  SAPE      H9X           -25.5264026192        0.3042561340       -4.7009558189  MEMB      78              0.0000000000
      9131        78  SAPE      H9Y           -25.5359283346        2.1691900120       -4.3208210708  MEMB      78              0.0000000000
      9132        78  SAPE      C310          -25.4040177463        1.0342485543       -2.6211675535  MEMB      78              0.0000000000
      9133        78  SAPE      H10X          -25.4715469384       -0.0711173024       -2.5321328102  MEMB      78              0.0000000000
      9134        78  SAPE      H10Y          -26.4420834818        1.3342785101       -2.3628588680  MEMB      78              0.0000000000
      9135        78  SAPE      C311          -24.4148033821        1.4487129062       -1.4636961568  MEMB      78              0.0000000000
      9136        78  SAPE      H11X          -23.9675418531        2.4513476264       -1.6339947247  MEMB      78              0.0000000000
      9137        78  SAPE      H11Y          -23.7759446951        0.5400560870       -1.4865720787  MEMB      78              0.0000000000
      9138        78  SAPE      C312          -25.1112065375        1.4646798018       -0.0919042206  MEMB      78              0.0000000000
      9139        78  SAPE      H12X          -25.7563543228        2.3682149770       -0.0503163183  MEMB      78              0.0000000000
      9140        78  SAPE      H12Y          -24.3665446160        1.5003508436        0.7318244869  MEMB      78              0.0000000000
      9141        78  SAPE      C313          -26.0582969482        0.2504767798        0.2346007675  MEMB      78              0.0000000000
      9142        78  SAPE      H13X          -26.9503527591        0.1598551618       -0.4214053933  MEMB      78              0.0000000000
      9143        78  SAPE      H13Y          -26.5146789222        0.4536473478        1.2269497775  MEMB      78              0.0000000000
      9144        78  SAPE      C314          -25.3266541140       -1.0518564720        0.4267068128  MEMB      78              0.0000000000
      9145        78  SAPE      H14X          -24.4648428408       -0.9575399516        1.1214780050  MEMB      78              0.0000000000
      9146        78  SAPE      H14Y          -24.9537732287       -1.3815171863       -0.5665721330  MEMB      78              0.0000000000
      9147        78  SAPE      C315          -26.2724786852       -2.0601071515        1.0285804971  MEMB      78              0.0000000000
      9148        78  SAPE      H15X          -25.9892239150       -3.0541197045        0.6211161251  MEMB      78              0.0000000000
      9149        78  SAPE      H15Y          -27.2836811306       -1.8467767414        0.6208058250  MEMB      78              0.0000000000
      9150        78  SAPE      C316          -26.2966258978       -2.0409886159        2.6093917867  MEMB      78              0.0000000000
      9151        78  SAPE      H16X          -27.0789018447       -2.7075058961        3.0314340254  MEMB      78              0.0000000000
      9152        78  SAPE      H16Y          -26.5898518424       -0.9919634291        2.8282181961  MEMB      78              0.0000000000
      9153        78  SAPE      C317          -25.0709397789       -2.6147318095        3.2678561238  MEMB      78              0.0000000000
      9154        78  SAPE      H17X          -25.3173045531       -2.8244983816        4.3306944161  MEMB      78              0.0000000000
      9155        78  SAPE      H17Y          -24.2446324433       -1.8771071357        3.3541542388  MEMB      78              0.0000000000
      9156        78  SAPE      C318          -24.5365684011       -3.9778470242        2.8315309295  MEMB      78              0.0000000000
      9157        78  SAPE      H18X          -23.7955388790       -4.3068724423        3.5910957459  MEMB      78              0.0000000000
      9158        78  SAPE      H18Y          -24.0955135246       -4.0012122035        1.8120955318  MEMB      78              0.0000000000
      9159        78  SAPE      H18Z          -25.3281085242       -4.7467912999        2.9600206576  MEMB      78              0.0000000000
      9160        79  CHL1      C3             15.2589739216      -17.8699724067      -17.2901150000  MEMB      79              0.0000000000
      9161        79  CHL1      H3             16.2712170768      -17.5621550895      -16.9510950000  MEMB      79              0.0000000000
      9162        79  CHL1      O3             15.1714660784      -18.1006277933      -18.7098850000  MEMB      79              0.0000000000
      9163        79  CHL1      H3'            15.3193516038      -17.2800397360      -19.1856550000  MEMB      79              0.0000000000
      9164        79  CHL1      C4             15.1275487602      -19.2869176849      -16.6798050000  MEMB      79              0.0000000000
      9165        79  CHL1      H4A            14.2595704476      -19.8087508487      -17.1365550000  MEMB      79              0.0000000000
      9166        79  CHL1      H4B            16.0496987932      -19.8473484695      -16.9441850000  MEMB      79              0.0000000000
      9167        79  CHL1      C5             14.9640777112      -19.3033947338      -15.2124950000  MEMB      79              0.0000000000
      9168        79  CHL1      C6             15.7855008250      -20.0657967137      -14.4287150000  MEMB      79              0.0000000000
      9169        79  CHL1      H6             16.5602541246      -20.6976778104      -14.8874950000  MEMB      79              0.0000000000
      9170        79  CHL1      C7             15.6275312072      -20.1727460697      -12.8973650000  MEMB      79              0.0000000000
      9171        79  CHL1      H7A            15.5614646468      -21.2063797319      -12.4954050000  MEMB      79              0.0000000000
      9172        79  CHL1      H7B            16.5447389247      -19.7926716090      -12.3987850000  MEMB      79              0.0000000000
      9173        79  CHL1      C8             14.3570057306      -19.4737500283      -12.4368650000  MEMB      79              0.0000000000
      9174        79  CHL1      H8             13.4749699951      -20.0833331975      -12.7279650000  MEMB      79              0.0000000000
      9175        79  CHL1      C14            14.4908993498      -19.1955057839      -10.9717050000  MEMB      79              0.0000000000
      9176        79  CHL1      H14            15.2440540922      -18.3795915629      -10.9347950000  MEMB      79              0.0000000000
      9177        79  CHL1      C15            15.0179765619      -20.2860369955      -10.0633250000  MEMB      79              0.0000000000
      9178        79  CHL1      H15A           14.4460166890      -21.2008167421      -10.3285850000  MEMB      79              0.0000000000
      9179        79  CHL1      H15B           16.0899417001      -20.5774693067      -10.0801150000  MEMB      79              0.0000000000
      9180        79  CHL1      C16            14.7154072639      -19.7354735964       -8.6514550000  MEMB      79              0.0000000000
      9181        79  CHL1      H16A           14.3526973118      -20.5406000020       -7.9772650000  MEMB      79              0.0000000000
      9182        79  CHL1      H16B           15.6663883346      -19.3214976074       -8.2532250000  MEMB      79              0.0000000000
      9183        79  CHL1      C17            13.7451825314      -18.5370066228       -8.7866150000  MEMB      79              0.0000000000
      9184        79  CHL1      H17            14.3644142637      -17.6230747612       -8.6616850000  MEMB      79              0.0000000000
      9185        79  CHL1      C13            13.2598915173      -18.6924734287      -10.2100950000  MEMB      79              0.0000000000
      9186        79  CHL1      C18            12.1639631220      -19.6850030028      -10.3190550000  MEMB      79              0.0000000000
      9187        79  CHL1      H18A           12.0902128418      -20.0794018285      -11.3550750000  MEMB      79              0.0000000000
      9188        79  CHL1      H18B           12.2623558893      -20.6695920279       -9.8138550000  MEMB      79              0.0000000000
      9189        79  CHL1      H18C           11.1874405057      -19.2574222008      -10.0061850000  MEMB      79              0.0000000000
      9190        79  CHL1      C12            13.0334316361      -17.3155092944      -10.8306350000  MEMB      79              0.0000000000
      9191        79  CHL1      H12A           12.0967490096      -16.8455847833      -10.4616750000  MEMB      79              0.0000000000
      9192        79  CHL1      H12B           13.8716278582      -16.6645852790      -10.5019350000  MEMB      79              0.0000000000
      9193        79  CHL1      C11            12.9112727607      -17.3983818229      -12.3531350000  MEMB      79              0.0000000000
      9194        79  CHL1      H11A           12.0893152907      -18.1035348834      -12.6010450000  MEMB      79              0.0000000000
      9195        79  CHL1      H11B           12.6404306704      -16.3910467323      -12.7355450000  MEMB      79              0.0000000000
      9196        79  CHL1      C9             14.1282708174      -18.0832269696      -13.0903150000  MEMB      79              0.0000000000
      9197        79  CHL1      H9             15.0324117181      -17.4493616636      -12.9675850000  MEMB      79              0.0000000000
      9198        79  CHL1      C10            13.9456892902      -18.2969704224      -14.6758650000  MEMB      79              0.0000000000
      9199        79  CHL1      C19            12.5314145996      -18.8636969050      -14.9546650000  MEMB      79              0.0000000000
      9200        79  CHL1      H19A           12.4406572127      -19.0519502862      -16.0458350000  MEMB      79              0.0000000000
      9201        79  CHL1      H19B           12.3390842706      -19.8234320066      -14.4290750000  MEMB      79              0.0000000000
      9202        79  CHL1      H19C           11.6832561898      -18.1590144855      -14.8191050000  MEMB      79              0.0000000000
      9203        79  CHL1      C1             14.1935230708      -16.9077130022      -15.2816550000  MEMB      79              0.0000000000
      9204        79  CHL1      H1A            13.4536525744      -16.1861825233      -14.8738350000  MEMB      79              0.0000000000
      9205        79  CHL1      H1B            15.2338483568      -16.6102648523      -15.0295450000  MEMB      79              0.0000000000
      9206        79  CHL1      C2             14.1819374614      -16.9255546853      -16.8152250000  MEMB      79              0.0000000000
      9207        79  CHL1      H2A            14.5081092985      -16.0033150501      -17.3419250000  MEMB      79              0.0000000000
      9208        79  CHL1      H2B            13.2402028642      -17.2780631566      -17.2876650000  MEMB      79              0.0000000000
      9209        79  CHL1      C20            12.7038764924      -18.4179938714       -7.5984850000  MEMB      79              0.0000000000
      9210        79  CHL1      H20            12.1482503048      -19.3718639714       -7.4730750000  MEMB      79              0.0000000000
      9211        79  CHL1      C21            11.6866059612      -17.2449199368       -7.8221550000  MEMB      79              0.0000000000
      9212        79  CHL1      H21A           11.1527397374      -17.5043853726       -8.7612950000  MEMB      79              0.0000000000
      9213        79  CHL1      H21B           12.2384026126      -16.2900245798       -7.9563850000  MEMB      79              0.0000000000
      9214        79  CHL1      H21C           10.9881072428      -17.0439268987       -6.9818950000  MEMB      79              0.0000000000
      9215        79  CHL1      C22            13.3866710189      -18.1766257159       -6.2125050000  MEMB      79              0.0000000000
      9216        79  CHL1      H22A           14.3606464060      -18.6958869488       -6.0857950000  MEMB      79              0.0000000000
      9217        79  CHL1      H22B           13.6339064526      -17.0969488972       -6.1259250000  MEMB      79              0.0000000000
      9218        79  CHL1      C23            12.4173639142      -18.5096267058       -5.0147450000  MEMB      79              0.0000000000
      9219        79  CHL1      H23A           11.5352656368      -17.8356763393       -5.0597250000  MEMB      79              0.0000000000
      9220        79  CHL1      H23B           12.1475329751      -19.5857525198       -5.0734750000  MEMB      79              0.0000000000
      9221        79  CHL1      C24            13.0023519393      -18.1948014043       -3.5760350000  MEMB      79              0.0000000000
      9222        79  CHL1      H24A           13.8120983014      -18.9479520886       -3.4692150000  MEMB      79              0.0000000000
      9223        79  CHL1      H24B           13.4346431077      -17.1829730866       -3.7298050000  MEMB      79              0.0000000000
      9224        79  CHL1      C25            12.0676042408      -18.1689818399       -2.3756150000  MEMB      79              0.0000000000
      9225        79  CHL1      H25            11.3617045811      -17.3211549827       -2.5068150000  MEMB      79              0.0000000000
      9226        79  CHL1      C26            11.3919189809      -19.4875070036       -2.3242050000  MEMB      79              0.0000000000
      9227        79  CHL1      H26A           12.1472603971      -20.2836405806       -2.1511450000  MEMB      79              0.0000000000
      9228        79  CHL1      H26B           10.8524756204      -19.4464628687       -1.3538150000  MEMB      79              0.0000000000
      9229        79  CHL1      H26C           10.7298418540      -19.6809717246       -3.1951450000  MEMB      79              0.0000000000
      9230        79  CHL1      C27            12.8559669573      -17.9107830642       -1.0217850000  MEMB      79              0.0000000000
      9231        79  CHL1      H27A           12.9097931542      -16.8140502165       -0.8526450000  MEMB      79              0.0000000000
      9232        79  CHL1      H27B           12.3711421634      -18.4377555297       -0.1723350000  MEMB      79              0.0000000000
      9233        79  CHL1      H27C           13.8487653096      -18.4078679769       -1.0615450000  MEMB      79              0.0000000000
      9234        80  CHL1      C3             -9.3362997589      -22.0780450510      -17.4814550000  MEMB      80              0.0000000000
      9235        80  CHL1      H3            -10.1640493789      -21.3620752091      -17.6725550000  MEMB      80              0.0000000000
      9236        80  CHL1      O3             -8.4775807611      -21.9072039490      -18.5185450000  MEMB      80              0.0000000000
      9237        80  CHL1      H3'            -9.0580969114      -21.7982084820      -19.2753250000  MEMB      80              0.0000000000
      9238        80  CHL1      C4             -8.6503904027      -21.8363752544      -16.1286450000  MEMB      80              0.0000000000
      9239        80  CHL1      H4A            -7.6334513366      -22.2825041455      -16.0952250000  MEMB      80              0.0000000000
      9240        80  CHL1      H4B            -8.4787198315      -20.7405857597      -16.0646050000  MEMB      80              0.0000000000
      9241        80  CHL1      C5             -9.4226275214      -22.2877568862      -14.8167050000  MEMB      80              0.0000000000
      9242        80  CHL1      C6             -9.6325072815      -21.3303215991      -13.8589550000  MEMB      80              0.0000000000
      9243        80  CHL1      H6             -9.3107527951      -20.2784944454      -13.8698350000  MEMB      80              0.0000000000
      9244        80  CHL1      C7            -10.2271601642      -21.6705934310      -12.5787650000  MEMB      80              0.0000000000
      9245        80  CHL1      H7A            -9.7116243750      -21.2503937159      -11.6888350000  MEMB      80              0.0000000000
      9246        80  CHL1      H7B           -11.2267816047      -21.1864806126      -12.5521750000  MEMB      80              0.0000000000
      9247        80  CHL1      C8            -10.3932291824      -23.2196697995      -12.3161150000  MEMB      80              0.0000000000
      9248        80  CHL1      H8             -9.4124744809      -23.6915800297      -12.0930850000  MEMB      80              0.0000000000
      9249        80  CHL1      C14           -11.2725783123      -23.5063603014      -11.1635850000  MEMB      80              0.0000000000
      9250        80  CHL1      H14           -12.2623920819      -23.1254617038      -11.4945250000  MEMB      80              0.0000000000
      9251        80  CHL1      C15           -10.9911146148      -22.6645468968       -9.8652050000  MEMB      80              0.0000000000
      9252        80  CHL1      H15A           -9.8941340682      -22.7973910930       -9.7499550000  MEMB      80              0.0000000000
      9253        80  CHL1      H15B          -11.2714925449      -21.5994521442      -10.0111150000  MEMB      80              0.0000000000
      9254        80  CHL1      C16           -11.7520657685      -23.4961017889       -8.8424450000  MEMB      80              0.0000000000
      9255        80  CHL1      H16A          -11.0207373357      -23.8180632579       -8.0705550000  MEMB      80              0.0000000000
      9256        80  CHL1      H16B          -12.5977675486      -23.0469225873       -8.2790950000  MEMB      80              0.0000000000
      9257        80  CHL1      C17           -12.2926336742      -24.7943180959       -9.5827050000  MEMB      80              0.0000000000
      9258        80  CHL1      H17           -13.2987179367      -24.4895787792       -9.9422050000  MEMB      80              0.0000000000
      9259        80  CHL1      C13           -11.3724727801      -24.9456301150      -10.8984550000  MEMB      80              0.0000000000
      9260        80  CHL1      C18           -10.0326273978      -25.6303501850      -10.5285450000  MEMB      80              0.0000000000
      9261        80  CHL1      H18A          -10.3187279885      -26.6754374781      -10.2830750000  MEMB      80              0.0000000000
      9262        80  CHL1      H18B           -9.2316227939      -25.6616545102      -11.2977950000  MEMB      80              0.0000000000
      9263        80  CHL1      H18C           -9.6001788125      -25.2748424745       -9.5688950000  MEMB      80              0.0000000000
      9264        80  CHL1      C12           -12.0335969356      -25.5348772958      -12.1019550000  MEMB      80              0.0000000000
      9265        80  CHL1      H12A          -12.1155216348      -26.6327549585      -11.9526750000  MEMB      80              0.0000000000
      9266        80  CHL1      H12B          -13.0153911611      -25.1095109233      -12.4010750000  MEMB      80              0.0000000000
      9267        80  CHL1      C11           -11.2364716263      -25.4189869822      -13.4096050000  MEMB      80              0.0000000000
      9268        80  CHL1      H11A          -10.3019212651      -25.9883037469      -13.2177750000  MEMB      80              0.0000000000
      9269        80  CHL1      H11B          -11.8360972825      -25.9031393327      -14.2098350000  MEMB      80              0.0000000000
      9270        80  CHL1      C9            -10.8966466626      -23.9619676434      -13.6486550000  MEMB      80              0.0000000000
      9271        80  CHL1      H9            -11.8473826586      -23.4384130512      -13.8859650000  MEMB      80              0.0000000000
      9272        80  CHL1      C10            -9.9028865198      -23.7083127379      -14.8149750000  MEMB      80              0.0000000000
      9273        80  CHL1      C19            -8.7037470039      -24.7739859206      -14.6688650000  MEMB      80              0.0000000000
      9274        80  CHL1      H19A           -8.3504276463      -24.7727071584      -13.6155450000  MEMB      80              0.0000000000
      9275        80  CHL1      H19B           -9.0692606760      -25.7953364445      -14.9087950000  MEMB      80              0.0000000000
      9276        80  CHL1      H19C           -7.8658757123      -24.4898791042      -15.3408550000  MEMB      80              0.0000000000
      9277        80  CHL1      C1            -10.5444855344      -23.9722437504      -16.2296450000  MEMB      80              0.0000000000
      9278        80  CHL1      H1A           -10.6604585595      -25.0737869697      -16.3161850000  MEMB      80              0.0000000000
      9279        80  CHL1      H1B           -11.5739677153      -23.5581850616      -16.1744050000  MEMB      80              0.0000000000
      9280        80  CHL1      C2             -9.8480958553      -23.5167546005      -17.5036150000  MEMB      80              0.0000000000
      9281        80  CHL1      H2A           -10.5696271821      -23.6250182830      -18.3414650000  MEMB      80              0.0000000000
      9282        80  CHL1      H2B            -9.0374661953      -24.2268225894      -17.7737750000  MEMB      80              0.0000000000
      9283        80  CHL1      C20           -12.5141374823      -26.0930416020       -8.6553150000  MEMB      80              0.0000000000
      9284        80  CHL1      H20           -11.5727151814      -26.6829009602       -8.6655650000  MEMB      80              0.0000000000
      9285        80  CHL1      C21           -13.5629393423      -27.0957435834       -9.1918850000  MEMB      80              0.0000000000
      9286        80  CHL1      H21A          -14.5935698647      -26.7482673315       -8.9652250000  MEMB      80              0.0000000000
      9287        80  CHL1      H21B          -13.5748093866      -28.0322679940       -8.5943050000  MEMB      80              0.0000000000
      9288        80  CHL1      H21C          -13.3427930459      -27.3974183771      -10.2382350000  MEMB      80              0.0000000000
      9289        80  CHL1      C22           -12.7733447187      -25.5736944346       -7.2677550000  MEMB      80              0.0000000000
      9290        80  CHL1      H22A          -11.8754800756      -25.0600644911       -6.8623550000  MEMB      80              0.0000000000
      9291        80  CHL1      H22B          -13.5549814903      -24.7845123805       -7.2441050000  MEMB      80              0.0000000000
      9292        80  CHL1      C23           -13.2296256361      -26.6288707766       -6.2695550000  MEMB      80              0.0000000000
      9293        80  CHL1      H23A          -14.2435053722      -26.9685216608       -6.5711950000  MEMB      80              0.0000000000
      9294        80  CHL1      H23B          -12.6274116952      -27.5615868818       -6.3107750000  MEMB      80              0.0000000000
      9295        80  CHL1      C24           -13.3886172023      -26.2483271381       -4.7794950000  MEMB      80              0.0000000000
      9296        80  CHL1      H24A          -14.0590740638      -25.3630296430       -4.7471850000  MEMB      80              0.0000000000
      9297        80  CHL1      H24B          -13.9251527314      -27.0651731902       -4.2510850000  MEMB      80              0.0000000000
      9298        80  CHL1      C25           -12.1098578165      -26.0284028525       -4.0022250000  MEMB      80              0.0000000000
      9299        80  CHL1      H25           -11.4393177134      -25.3419855052       -4.5621550000  MEMB      80              0.0000000000
      9300        80  CHL1      C26           -12.2882953027      -25.3873708037       -2.5660750000  MEMB      80              0.0000000000
      9301        80  CHL1      H26A          -12.7420874750      -26.1899331796       -1.9461650000  MEMB      80              0.0000000000
      9302        80  CHL1      H26B          -11.2515447778      -25.1099349910       -2.2788350000  MEMB      80              0.0000000000
      9303        80  CHL1      H26C          -12.9977425072      -24.5372034972       -2.4753750000  MEMB      80              0.0000000000
      9304        80  CHL1      C27           -11.3235950888      -27.3275949952       -3.6486750000  MEMB      80              0.0000000000
      9305        80  CHL1      H27A          -12.0666973644      -28.0027608745       -3.1730050000  MEMB      80              0.0000000000
      9306        80  CHL1      H27B          -10.9449693494      -27.9628570282       -4.4777850000  MEMB      80              0.0000000000
      9307        80  CHL1      H27C          -10.4770589888      -27.0554655739       -2.9826150000  MEMB      80              0.0000000000
      9308        81  SAPI      C12            -4.5340544059       22.6215298235      -24.3100655516  MEMB      81              0.0000000000
      9309        81  SAPI      H2             -4.4645521869       23.7149528813      -24.1259015073  MEMB      81              0.0000000000
      9310        81  SAPI      O2             -5.8737601374       22.1891777150      -23.9070576814  MEMB      81              0.0000000000
      9311        81  SAPI      HO2            -6.5157990852       22.8372805801      -24.2059702365  MEMB      81              0.0000000000
      9312        81  SAPI      C13            -4.3111738550       22.4360086816      -25.7557397059  MEMB      81              0.0000000000
      9313        81  SAPI      H3             -3.2740273336       22.8060278367      -25.9031639353  MEMB      81              0.0000000000
      9314        81  SAPI      O3             -5.1946343533       23.2138532024      -26.5855498715  MEMB      81              0.0000000000
      9315        81  SAPI      HO3            -6.0659583729       22.8134005232      -26.5404710085  MEMB      81              0.0000000000
      9316        81  SAPI      C14            -4.2773431090       20.9657664662      -26.1853488725  MEMB      81              0.0000000000
      9317        81  SAPI      H4             -5.3041056320       20.6337754960      -25.9210349263  MEMB      81              0.0000000000
      9318        81  SAPI      O4             -4.2329596870       20.8144836877      -27.6204055132  MEMB      81              0.0000000000
      9319        81  SAPI      HO4            -4.6731266550       19.9924869344      -27.8488228253  MEMB      81              0.0000000000
      9320        81  SAPI      C15            -3.1311526029       20.2088004402      -25.4637481574  MEMB      81              0.0000000000
      9321        81  SAPI      H5             -2.2293013325       20.8356632559      -25.6311646386  MEMB      81              0.0000000000
      9322        81  SAPI      O5             -2.9702730165       18.8825542326      -25.8543485874  MEMB      81              0.0000000000
      9323        81  SAPI      HO5            -2.2553503503       18.3962214649      -25.4372557064  MEMB      81              0.0000000000
      9324        81  SAPI      C16            -3.4334416083       20.3310114288      -23.9293079273  MEMB      81              0.0000000000
      9325        81  SAPI      H6             -4.4312772703       19.8833393473      -23.7337710252  MEMB      81              0.0000000000
      9326        81  SAPI      O6             -2.5265674266       19.5590376625      -23.1871516388  MEMB      81              0.0000000000
      9327        81  SAPI      HO6            -2.6680187980       18.6201068947      -23.3285744555  MEMB      81              0.0000000000
      9328        81  SAPI      C11            -3.4074695608       21.8116282618      -23.5677567406  MEMB      81              0.0000000000
      9329        81  SAPI      H1             -2.3897308529       22.2286776763      -23.7245964907  MEMB      81              0.0000000000
      9330        81  SAPI      P              -3.6326620569       23.2514874856      -21.2769417813  MEMB      81              0.0000000000
      9331        81  SAPI      O13            -4.8082795214       24.0036899295      -21.6274134998  MEMB      81              0.0000000000
      9332        81  SAPI      O14            -2.2829163107       23.8109309404      -21.5033799051  MEMB      81              0.0000000000
      9333        81  SAPI      O12            -3.6305105793       21.8457977803      -22.1535764222  MEMB      81              0.0000000000
      9334        81  SAPI      O11            -3.7197709355       22.6202975424      -19.8293337892  MEMB      81              0.0000000000
      9335        81  SAPI      C1             -4.3958989377       23.2539782740      -18.7212043369  MEMB      81              0.0000000000
      9336        81  SAPI      HA             -5.2180336307       23.8742355578      -19.1379733592  MEMB      81              0.0000000000
      9337        81  SAPI      HB             -4.9228793597       22.4601958818      -18.1497832303  MEMB      81              0.0000000000
      9338        81  SAPI      C2             -3.4654680474       24.0486723728      -17.8141503488  MEMB      81              0.0000000000
      9339        81  SAPI      HS             -2.7042452251       24.5739789240      -18.4297102112  MEMB      81              0.0000000000
      9340        81  SAPI      O21            -2.8225629670       23.1527133409      -16.9288383388  MEMB      81              0.0000000000
      9341        81  SAPI      C21            -1.7356658759       22.4614628140      -17.3845020716  MEMB      81              0.0000000000
      9342        81  SAPI      O22            -1.2292565713       22.6203384326      -18.4992512868  MEMB      81              0.0000000000
      9343        81  SAPI      C22            -1.1200103014       21.5760660632      -16.3569597556  MEMB      81              0.0000000000
      9344        81  SAPI      H2R            -1.6342703789       21.7364686442      -15.3852968447  MEMB      81              0.0000000000
      9345        81  SAPI      H2S            -1.1429371627       20.5097870026      -16.6681577784  MEMB      81              0.0000000000
      9346        81  SAPI      C3             -4.3495490256       25.1111289286      -17.0739999135  MEMB      81              0.0000000000
      9347        81  SAPI      HX             -5.0112901062       24.5480247257      -16.3816608171  MEMB      81              0.0000000000
      9348        81  SAPI      HY             -4.9867246428       25.6340165617      -17.8189269936  MEMB      81              0.0000000000
      9349        81  SAPI      O31            -3.5377906289       25.9857475350      -16.3005001290  MEMB      81              0.0000000000
      9350        81  SAPI      C31            -3.0062045238       25.6250591252      -15.1176289110  MEMB      81              0.0000000000
      9351        81  SAPI      O32            -3.3424902829       24.5899085536      -14.4977159917  MEMB      81              0.0000000000
      9352        81  SAPI      C32            -2.1047099176       26.6246425168      -14.5577995690  MEMB      81              0.0000000000
      9353        81  SAPI      H2X            -2.5518842102       27.6379679160      -14.4710370542  MEMB      81              0.0000000000
      9354        81  SAPI      H2Y            -1.3192531694       26.7885701517      -15.3262439428  MEMB      81              0.0000000000
      9355        81  SAPI      C23             0.3355709351       21.9258074485      -16.3195436851  MEMB      81              0.0000000000
      9356        81  SAPI      H3R             0.8712621427       21.9367509384      -17.2928044795  MEMB      81              0.0000000000
      9357        81  SAPI      H3S             0.8614972184       21.1754572240      -15.6912945240  MEMB      81              0.0000000000
      9358        81  SAPI      C24             0.5036879749       23.3481611372      -15.6191153731  MEMB      81              0.0000000000
      9359        81  SAPI      H4R            -0.4678622110       23.6549522383      -15.1760685070  MEMB      81              0.0000000000
      9360        81  SAPI      H4S             0.8660951166       24.0302698666      -16.4176829514  MEMB      81              0.0000000000
      9361        81  SAPI      C25             1.6195660526       23.3740618320      -14.6120128039  MEMB      81              0.0000000000
      9362        81  SAPI      H5R             2.4851127296       23.9655801004      -14.9450821346  MEMB      81              0.0000000000
      9363        81  SAPI      C26             1.7478798871       22.5538972694      -13.5441318432  MEMB      81              0.0000000000
      9364        81  SAPI      H6R             2.6316631164       22.7406707092      -12.9164036762  MEMB      81              0.0000000000
      9365        81  SAPI      C27             0.7949991790       21.4957877243      -13.0224246991  MEMB      81              0.0000000000
      9366        81  SAPI      H7R             1.3295813430       20.5411706411      -13.2154249653  MEMB      81              0.0000000000
      9367        81  SAPI      H7S            -0.1507565816       21.5166111246      -13.6050339340  MEMB      81              0.0000000000
      9368        81  SAPI      C28             0.4559923409       21.6423053167      -11.5483740496  MEMB      81              0.0000000000
      9369        81  SAPI      H8R             1.2359639506       21.4635490890      -10.7935954108  MEMB      81              0.0000000000
      9370        81  SAPI      C29            -0.6884006889       22.0070821994      -10.9445066640  MEMB      81              0.0000000000
      9371        81  SAPI      H9R            -0.7216013500       22.0874871557       -9.8479516243  MEMB      81              0.0000000000
      9372        81  SAPI      C210           -1.9696833029       22.4036261557      -11.6908109618  MEMB      81              0.0000000000
      9373        81  SAPI      H10R           -1.8575017585       22.5104426998      -12.7909595198  MEMB      81              0.0000000000
      9374        81  SAPI      H10S           -2.2442233413       23.4249827271      -11.3505472276  MEMB      81              0.0000000000
      9375        81  SAPI      C211           -3.1415677265       21.4720199467      -11.2852329954  MEMB      81              0.0000000000
      9376        81  SAPI      H11R           -3.4497572748       20.7946903005      -12.0953215973  MEMB      81              0.0000000000
      9377        81  SAPI      C212           -3.6406132271       21.3609250947      -10.0845447888  MEMB      81              0.0000000000
      9378        81  SAPI      H12R           -4.5080826221       20.7158217971       -9.8812256355  MEMB      81              0.0000000000
      9379        81  SAPI      C213           -3.2143279104       22.0402785029       -8.7402230763  MEMB      81              0.0000000000
      9380        81  SAPI      H13R           -2.1454538074       21.7698456074       -8.6034924877  MEMB      81              0.0000000000
      9381        81  SAPI      H13S           -3.7600531903       21.4981946380       -7.9385688386  MEMB      81              0.0000000000
      9382        81  SAPI      C214           -3.2359342793       23.5456912420       -8.7242759852  MEMB      81              0.0000000000
      9383        81  SAPI      H14R           -2.5695653081       23.9334111687       -9.5088941946  MEMB      81              0.0000000000
      9384        81  SAPI      C215           -4.0727670428       24.3359738227       -7.9478844567  MEMB      81              0.0000000000
      9385        81  SAPI      H15R           -4.0051254855       25.4292483890       -7.8470118796  MEMB      81              0.0000000000
      9386        81  SAPI      C216           -5.0763030211       23.6657246734       -6.9998486401  MEMB      81              0.0000000000
      9387        81  SAPI      H16R           -5.6596396665       22.8048352538       -7.3908839938  MEMB      81              0.0000000000
      9388        81  SAPI      H16S           -5.8987722066       24.3626360196       -6.7311849615  MEMB      81              0.0000000000
      9389        81  SAPI      C217           -4.5410940592       23.0944557369       -5.6416554465  MEMB      81              0.0000000000
      9390        81  SAPI      H17R           -4.1254840477       23.9017499198       -5.0014480243  MEMB      81              0.0000000000
      9391        81  SAPI      H17S           -3.7388495549       22.3602956996       -5.8691062235  MEMB      81              0.0000000000
      9392        81  SAPI      C218           -5.6354520879       22.1722714580       -4.8790751798  MEMB      81              0.0000000000
      9393        81  SAPI      H18R           -5.9617014255       21.2050564681       -5.3176840597  MEMB      81              0.0000000000
      9394        81  SAPI      H18S           -6.4901515730       22.8542857321       -4.6824380430  MEMB      81              0.0000000000
      9395        81  SAPI      C219           -4.9659244924       21.7787730288       -3.5700696526  MEMB      81              0.0000000000
      9396        81  SAPI      H19R           -3.9710326770       21.3513621483       -3.8187283405  MEMB      81              0.0000000000
      9397        81  SAPI      H19S           -5.5207329843       20.9564762901       -3.0697330189  MEMB      81              0.0000000000
      9398        81  SAPI      C220           -4.9367944894       22.9362461873       -2.5522730151  MEMB      81              0.0000000000
      9399        81  SAPI      H20R           -5.9197328210       23.3730386508       -2.2741251652  MEMB      81              0.0000000000
      9400        81  SAPI      H20S           -4.2802881004       23.7612250961       -2.9026010033  MEMB      81              0.0000000000
      9401        81  SAPI      H20T           -4.5364623308       22.5933221387       -1.5742861523  MEMB      81              0.0000000000
      9402        81  SAPI      C33            -1.5513090811       26.1209372089      -13.2233508318  MEMB      81              0.0000000000
      9403        81  SAPI      H3X            -1.1101865165       25.1063997327      -13.1211475256  MEMB      81              0.0000000000
      9404        81  SAPI      H3Y            -2.4473525605       26.2052806234      -12.5719575433  MEMB      81              0.0000000000
      9405        81  SAPI      C34            -0.6398834626       27.2343170228      -12.6280157961  MEMB      81              0.0000000000
      9406        81  SAPI      H4X            -1.1189064647       28.2072340769      -12.8694502009  MEMB      81              0.0000000000
      9407        81  SAPI      H4Y             0.3395761491       27.0693103045      -13.1257639024  MEMB      81              0.0000000000
      9408        81  SAPI      C35            -0.4861930602       27.1639613662      -11.0920417824  MEMB      81              0.0000000000
      9409        81  SAPI      H5X            -1.4750289094       27.4120371719      -10.6504731438  MEMB      81              0.0000000000
      9410        81  SAPI      H5Y             0.1420920864       27.9856190647      -10.6865073328  MEMB      81              0.0000000000
      9411        81  SAPI      C36             0.0954083707       25.8697867537      -10.5627399863  MEMB      81              0.0000000000
      9412        81  SAPI      H6X             1.0592259397       25.5634415377      -11.0226637843  MEMB      81              0.0000000000
      9413        81  SAPI      H6Y            -0.6761664011       25.1023974555      -10.7865866193  MEMB      81              0.0000000000
      9414        81  SAPI      C37             0.4222560757       26.1254065967       -9.0987450296  MEMB      81              0.0000000000
      9415        81  SAPI      H7X            -0.5029654581       26.5612440161       -8.6647732486  MEMB      81              0.0000000000
      9416        81  SAPI      H7Y             1.1331259876       26.9777387193       -9.1488969224  MEMB      81              0.0000000000
      9417        81  SAPI      C38             0.8523757215       24.8761062667       -8.3466100485  MEMB      81              0.0000000000
      9418        81  SAPI      H8X             1.7628008223       24.4418505998       -8.8123022296  MEMB      81              0.0000000000
      9419        81  SAPI      H8Y             0.0169526233       24.1481142891       -8.2665026548  MEMB      81              0.0000000000
      9420        81  SAPI      C39             1.1403441731       25.1593208786       -6.8254557531  MEMB      81              0.0000000000
      9421        81  SAPI      H9X             1.8062531042       26.0290770245       -6.6399538053  MEMB      81              0.0000000000
      9422        81  SAPI      H9Y             1.8386643858       24.3978884758       -6.4169340896  MEMB      81              0.0000000000
      9423        81  SAPI      C310           -0.1221478439       25.2063467028       -5.9805488843  MEMB      81              0.0000000000
      9424        81  SAPI      H10X           -0.9449894550       25.5964566077       -6.6169972181  MEMB      81              0.0000000000
      9425        81  SAPI      H10Y            0.0504893845       25.9298857258       -5.1553167120  MEMB      81              0.0000000000
      9426        81  SAPI      C311           -0.5085676180       23.8729501644       -5.3312879311  MEMB      81              0.0000000000
      9427        81  SAPI      H11X           -1.0831530533       23.1574698418       -5.9575953424  MEMB      81              0.0000000000
      9428        81  SAPI      H11Y           -1.2879957201       24.1960897954       -4.6085204599  MEMB      81              0.0000000000
      9429        81  SAPI      C312            0.6243516275       23.1055235294       -4.5499992705  MEMB      81              0.0000000000
      9430        81  SAPI      H12X            1.1188538297       23.9262395712       -3.9876693637  MEMB      81              0.0000000000
      9431        81  SAPI      H12Y            1.3310929002       22.7102696216       -5.3106650708  MEMB      81              0.0000000000
      9432        81  SAPI      C313            0.0745716683       21.9936289257       -3.6482763302  MEMB      81              0.0000000000
      9433        81  SAPI      H13X           -0.5193610860       21.2829458370       -4.2618662183  MEMB      81              0.0000000000
      9434        81  SAPI      H13Y           -0.7352360545       22.3342150980       -2.9681773991  MEMB      81              0.0000000000
      9435        81  SAPI      C314            1.2534401433       21.2183931348       -2.9567060158  MEMB      81              0.0000000000
      9436        81  SAPI      H14X            2.1041052280       20.9611980118       -3.6234454081  MEMB      81              0.0000000000
      9437        81  SAPI      H14Y            0.7886699376       20.3156190026       -2.5058086789  MEMB      81              0.0000000000
      9438        81  SAPI      C315            1.8678864229       21.9499732370       -1.7447852368  MEMB      81              0.0000000000
      9439        81  SAPI      H15X            2.4572345360       22.7979665525       -2.1545370198  MEMB      81              0.0000000000
      9440        81  SAPI      H15Y            2.5643331852       21.2392677247       -1.2506394235  MEMB      81              0.0000000000
      9441        81  SAPI      C316            0.8569975010       22.3590143543       -0.6835945526  MEMB      81              0.0000000000
      9442        81  SAPI      H16X            0.1056994881       23.0704961343       -1.0881506694  MEMB      81              0.0000000000
      9443        81  SAPI      H16Y            1.2822183771       23.0765273984        0.0503562715  MEMB      81              0.0000000000
      9444        81  SAPI      C317            0.0185113844       21.3634670665        0.0958054880  MEMB      81              0.0000000000
      9445        81  SAPI      H17X           -0.6364102964       20.7931083067       -0.5970805199  MEMB      81              0.0000000000
      9446        81  SAPI      H17Y           -0.6140939643       22.0451037600        0.7036727224  MEMB      81              0.0000000000
      9447        81  SAPI      C318            0.7986898514       20.3744936941        0.9778669960  MEMB      81              0.0000000000
      9448        81  SAPI      H18X            1.6862134470       20.9323762166        1.3458212493  MEMB      81              0.0000000000
      9449        81  SAPI      H18Y            0.9652014221       19.4895034192        0.3271849519  MEMB      81              0.0000000000
      9450        81  SAPI      H18Z            0.2289532318       20.0125629875        1.8603226961  MEMB      81              0.0000000000
      9451        82  CHL1      C3             21.0074191614       11.6193392754      -17.3681200000  MEMB      82              0.0000000000
      9452        82  CHL1      H3             20.0700736155       12.1778582746      -17.5773000000  MEMB      82              0.0000000000
      9453        82  CHL1      O3             21.4953130386       11.2340455246      -18.6318800000  MEMB      82              0.0000000000
      9454        82  CHL1      H3'            21.8520977288       12.0791464622      -18.9149100000  MEMB      82              0.0000000000
      9455        82  CHL1      C4             22.0505288198       12.3805588902      -16.6211000000  MEMB      82              0.0000000000
      9456        82  CHL1      H4A            23.0291046001       11.8804910661      -16.7843600000  MEMB      82              0.0000000000
      9457        82  CHL1      H4B            22.1824402826       13.2845650107      -17.2533100000  MEMB      82              0.0000000000
      9458        82  CHL1      C5             21.8474912959       12.7369494580      -15.1384400000  MEMB      82              0.0000000000
      9459        82  CHL1      C6             21.9141197272       13.9362381054      -14.5965500000  MEMB      82              0.0000000000
      9460        82  CHL1      H6             22.1545439915       14.7351844658      -15.3134000000  MEMB      82              0.0000000000
      9461        82  CHL1      C7             21.7187673035       14.2061182297      -13.1719800000  MEMB      82              0.0000000000
      9462        82  CHL1      H7A            22.5809680539       14.7683600703      -12.7538700000  MEMB      82              0.0000000000
      9463        82  CHL1      H7B            20.7792122991       14.7891760939      -13.0643200000  MEMB      82              0.0000000000
      9464        82  CHL1      C8             21.5156250464       12.9075653236      -12.3152400000  MEMB      82              0.0000000000
      9465        82  CHL1      H8             22.5266497540       12.4615013894      -12.2003800000  MEMB      82              0.0000000000
      9466        82  CHL1      C14            20.8761401028       13.2270525924      -11.0335300000  MEMB      82              0.0000000000
      9467        82  CHL1      H14            19.8086522991       13.3779454222      -11.3019200000  MEMB      82              0.0000000000
      9468        82  CHL1      C15            21.2705788186       14.4825430173      -10.2434400000  MEMB      82              0.0000000000
      9469        82  CHL1      H15A           22.3612327089       14.6826452936      -10.3124600000  MEMB      82              0.0000000000
      9470        82  CHL1      H15B           20.7907003829       15.3768144901      -10.6954700000  MEMB      82              0.0000000000
      9471        82  CHL1      C16            20.9869128685       14.2265465576       -8.7757200000  MEMB      82              0.0000000000
      9472        82  CHL1      H16A           21.9930654336       14.1106396465       -8.3190500000  MEMB      82              0.0000000000
      9473        82  CHL1      H16B           20.4608101470       14.9167460877       -8.0820500000  MEMB      82              0.0000000000
      9474        82  CHL1      C17            20.2160900897       12.8207206065       -8.8006400000  MEMB      82              0.0000000000
      9475        82  CHL1      H17            19.1257058184       12.9333332552       -8.9814400000  MEMB      82              0.0000000000
      9476        82  CHL1      C13            20.8337772932       12.0831304457       -9.9904100000  MEMB      82              0.0000000000
      9477        82  CHL1      C18            22.2348004165       11.6441933009       -9.7035500000  MEMB      82              0.0000000000
      9478        82  CHL1      H18A           22.7503410270       11.2385654031      -10.6002200000  MEMB      82              0.0000000000
      9479        82  CHL1      H18B           22.9065711960       12.4239340148       -9.2851600000  MEMB      82              0.0000000000
      9480        82  CHL1      H18C           22.1976107923       10.8307940840       -8.9477000000  MEMB      82              0.0000000000
      9481        82  CHL1      C12            20.0255863281       11.0149763127      -10.6718000000  MEMB      82              0.0000000000
      9482        82  CHL1      H12A           19.9975830030       10.0636835111      -10.0985800000  MEMB      82              0.0000000000
      9483        82  CHL1      H12B           19.0068096144       11.4451734766      -10.7782800000  MEMB      82              0.0000000000
      9484        82  CHL1      C11            20.6338726802       10.6692331191      -12.0802400000  MEMB      82              0.0000000000
      9485        82  CHL1      H11A           21.6008237624       10.2047525201      -11.7911400000  MEMB      82              0.0000000000
      9486        82  CHL1      H11B           20.0250481434        9.8637209570      -12.5437300000  MEMB      82              0.0000000000
      9487        82  CHL1      C9             20.7097257097       11.8256714621      -13.0490500000  MEMB      82              0.0000000000
      9488        82  CHL1      H9             19.7486690924       12.3239592228      -13.2988600000  MEMB      82              0.0000000000
      9489        82  CHL1      C10            21.3490146116       11.4853130346      -14.4039700000  MEMB      82              0.0000000000
      9490        82  CHL1      C19            22.4976948777       10.4872094285      -14.1658700000  MEMB      82              0.0000000000
      9491        82  CHL1      H19A           22.9178643224       10.3047456003      -15.1780300000  MEMB      82              0.0000000000
      9492        82  CHL1      H19B           23.3276119907       10.8937031624      -13.5491800000  MEMB      82              0.0000000000
      9493        82  CHL1      H19C           22.2764860098        9.4949816760      -13.7176900000  MEMB      82              0.0000000000
      9494        82  CHL1      C1             20.2521996719       10.6794863121      -15.2216500000  MEMB      82              0.0000000000
      9495        82  CHL1      H1A            20.0342537511        9.7088176801      -14.7270600000  MEMB      82              0.0000000000
      9496        82  CHL1      H1B            19.2666811618       11.1915331388      -15.2515000000  MEMB      82              0.0000000000
      9497        82  CHL1      C2             20.6454365583       10.3082212993      -16.6072700000  MEMB      82              0.0000000000
      9498        82  CHL1      H2A            19.7776722400        9.8409311580      -17.1200700000  MEMB      82              0.0000000000
      9499        82  CHL1      H2B            21.5466804724        9.6610390688      -16.6640300000  MEMB      82              0.0000000000
      9500        82  CHL1      C20            20.3009326687       12.0635343683       -7.4319800000  MEMB      82              0.0000000000
      9501        82  CHL1      H20            21.3702240368       11.8704075598       -7.2004000000  MEMB      82              0.0000000000
      9502        82  CHL1      C21            19.4012708824       10.7709150696       -7.3948800000  MEMB      82              0.0000000000
      9503        82  CHL1      H21A           18.3762914717       11.1354401006       -7.6204300000  MEMB      82              0.0000000000
      9504        82  CHL1      H21B           19.5181813981       10.2886887039       -6.4008500000  MEMB      82              0.0000000000
      9505        82  CHL1      H21C           19.7163306189       10.0288839766       -8.1593700000  MEMB      82              0.0000000000
      9506        82  CHL1      C22            19.8910422344       13.0255189399       -6.1642200000  MEMB      82              0.0000000000
      9507        82  CHL1      H22A           20.7925722760       13.6748033900       -6.1614500000  MEMB      82              0.0000000000
      9508        82  CHL1      H22B           18.9795149578       13.6141172438       -6.4029500000  MEMB      82              0.0000000000
      9509        82  CHL1      C23            19.8810528541       12.3942891926       -4.7478100000  MEMB      82              0.0000000000
      9510        82  CHL1      H23A           18.8774210049       11.9212645206       -4.6905100000  MEMB      82              0.0000000000
      9511        82  CHL1      H23B           20.6254154437       11.5784681930       -4.6267000000  MEMB      82              0.0000000000
      9512        82  CHL1      C24            20.0106961425       13.3543715076       -3.5736700000  MEMB      82              0.0000000000
      9513        82  CHL1      H24A           20.7549587901       14.1599888045       -3.7508200000  MEMB      82              0.0000000000
      9514        82  CHL1      H24B           19.1176076358       13.9603507742       -3.3100200000  MEMB      82              0.0000000000
      9515        82  CHL1      C25            20.3477011272       12.6424868585       -2.3054300000  MEMB      82              0.0000000000
      9516        82  CHL1      H25            21.3364562228       12.1953583198       -2.5436600000  MEMB      82              0.0000000000
      9517        82  CHL1      C26            20.6249184707       13.6155247423       -1.1696000000  MEMB      82              0.0000000000
      9518        82  CHL1      H26A           21.0737113266       13.1434161822       -0.2696000000  MEMB      82              0.0000000000
      9519        82  CHL1      H26B           21.4847669126       14.2764608900       -1.4107600000  MEMB      82              0.0000000000
      9520        82  CHL1      H26C           19.7034932665       14.1774250607       -0.9058600000  MEMB      82              0.0000000000
      9521        82  CHL1      C27            19.2585731410       11.6055543205       -1.9393300000  MEMB      82              0.0000000000
      9522        82  CHL1      H27A           19.2495811303       10.7982908910       -2.7025900000  MEMB      82              0.0000000000
      9523        82  CHL1      H27B           19.5569693427       11.1892132636       -0.9534500000  MEMB      82              0.0000000000
      9524        82  CHL1      H27C           18.2623891200       12.0881973502       -1.8445600000  MEMB      82              0.0000000000
      9525        83  SOPE      N             -13.8732737781       20.6346106732      -19.5787790494  MEMB      83              0.0000000000
      9526        83  SOPE      HN1           -13.7196378117       21.1045545416      -18.6638207477  MEMB      83              0.0000000000
      9527        83  SOPE      HN2           -13.9259237750       21.2585483751      -20.4091582811  MEMB      83              0.0000000000
      9528        83  SOPE      HN3           -14.7655819645       20.1020738012      -19.5364622067  MEMB      83              0.0000000000
      9529        83  SOPE      C12           -12.7323535245       19.6705142635      -19.8194041809  MEMB      83              0.0000000000
      9530        83  SOPE      H12A          -13.1297076416       18.8817079857      -20.4933592351  MEMB      83              0.0000000000
      9531        83  SOPE      H12B          -12.4592713098       19.1715292671      -18.8650661617  MEMB      83              0.0000000000
      9532        83  SOPE      C11           -11.4476776920       20.4072556913      -20.3643178037  MEMB      83              0.0000000000
      9533        83  SOPE      H11A          -10.5752210066       19.7229999403      -20.4345642743  MEMB      83              0.0000000000
      9534        83  SOPE      H11B          -11.2284301356       21.1864849858      -19.6033623241  MEMB      83              0.0000000000
      9535        83  SOPE      P             -11.7270465438       22.5015377448      -21.7156079837  MEMB      83              0.0000000000
      9536        83  SOPE      O13           -12.6092160209       22.9490560328      -22.8209476816  MEMB      83              0.0000000000
      9537        83  SOPE      O14           -10.3266686797       23.0307820582      -21.7018835675  MEMB      83              0.0000000000
      9538        83  SOPE      O12           -11.6778284898       20.9620448406      -21.6151341153  MEMB      83              0.0000000000
      9539        83  SOPE      O11           -12.4311576681       22.9543434969      -20.3839256088  MEMB      83              0.0000000000
      9540        83  SOPE      C1            -12.1933608228       24.2851823325      -19.8807271552  MEMB      83              0.0000000000
      9541        83  SOPE      HA            -13.0170973322       25.0023119637      -20.0844526949  MEMB      83              0.0000000000
      9542        83  SOPE      HB            -11.2797627124       24.7431986868      -20.3164801545  MEMB      83              0.0000000000
      9543        83  SOPE      C2            -12.0945687459       24.3180954181      -18.2717123809  MEMB      83              0.0000000000
      9544        83  SOPE      HS            -11.7710209690       25.3024759906      -17.8709225559  MEMB      83              0.0000000000
      9545        83  SOPE      O21           -11.2325561296       23.2915567693      -17.7935350307  MEMB      83              0.0000000000
      9546        83  SOPE      C21            -9.9471552707       23.2455299966      -18.1792889443  MEMB      83              0.0000000000
      9547        83  SOPE      O22            -9.4931488128       23.9902075189      -19.0003334443  MEMB      83              0.0000000000
      9548        83  SOPE      C22            -9.1954098931       22.1051624614      -17.4638660615  MEMB      83              0.0000000000
      9549        83  SOPE      H2R            -8.5274732291       21.5757255367      -18.1765217701  MEMB      83              0.0000000000
      9550        83  SOPE      H2S            -9.9328275017       21.3445100985      -17.1292852433  MEMB      83              0.0000000000
      9551        83  SOPE      C3            -13.5516046834       24.1493788454      -17.7750638241  MEMB      83              0.0000000000
      9552        83  SOPE      HX            -14.1481866742       23.3929241742      -18.3284057285  MEMB      83              0.0000000000
      9553        83  SOPE      HY            -14.0843409570       25.1215386381      -17.8486731377  MEMB      83              0.0000000000
      9554        83  SOPE      O31           -13.5058041726       23.7377533010      -16.4034290318  MEMB      83              0.0000000000
      9555        83  SOPE      C31           -14.5749480081       23.1483220238      -15.8945329720  MEMB      83              0.0000000000
      9556        83  SOPE      O32           -15.5982756455       22.8651168305      -16.4818347063  MEMB      83              0.0000000000
      9557        83  SOPE      C32           -14.2433462987       22.6646405830      -14.4360946550  MEMB      83              0.0000000000
      9558        83  SOPE      H2X           -13.2039706153       22.8699732466      -14.1016434332  MEMB      83              0.0000000000
      9559        83  SOPE      H2Y           -14.4647298638       21.5775864499      -14.3758976043  MEMB      83              0.0000000000
      9560        83  SOPE      C23            -8.5333771025       22.8228571656      -16.2842244819  MEMB      83              0.0000000000
      9561        83  SOPE      H3R            -8.4563678770       23.9311389498      -16.2943111924  MEMB      83              0.0000000000
      9562        83  SOPE      H3S            -7.5084641642       22.3994711795      -16.2162618663  MEMB      83              0.0000000000
      9563        83  SOPE      C24            -9.3565158557       22.4012995959      -15.0392835075  MEMB      83              0.0000000000
      9564        83  SOPE      H4R           -10.3586336445       22.8700800908      -15.1408990677  MEMB      83              0.0000000000
      9565        83  SOPE      H4S            -9.3545906429       21.2997092639      -14.8950059191  MEMB      83              0.0000000000
      9566        83  SOPE      C25            -8.6605867765       22.8522121362      -13.8136097875  MEMB      83              0.0000000000
      9567        83  SOPE      H5R            -7.6364363686       22.4216594745      -13.8057428137  MEMB      83              0.0000000000
      9568        83  SOPE      H5S            -8.5350176884       23.9337884165      -13.5928241946  MEMB      83              0.0000000000
      9569        83  SOPE      C26            -9.3037945886       22.3937421292      -12.3783579582  MEMB      83              0.0000000000
      9570        83  SOPE      H6R            -9.5745593295       21.3181642232      -12.4426988908  MEMB      83              0.0000000000
      9571        83  SOPE      H6S            -8.5655299197       22.4369891503      -11.5492528107  MEMB      83              0.0000000000
      9572        83  SOPE      C27           -10.4742740812       23.3922890446      -12.0046376719  MEMB      83              0.0000000000
      9573        83  SOPE      H7R           -10.9416252346       23.8073063027      -12.9231502347  MEMB      83              0.0000000000
      9574        83  SOPE      H7S           -11.2776507540       22.8112961794      -11.5032854921  MEMB      83              0.0000000000
      9575        83  SOPE      C28           -10.1093444543       24.5371996616      -11.0065634815  MEMB      83              0.0000000000
      9576        83  SOPE      H8R            -9.5667986507       25.3295661645      -11.5652408850  MEMB      83              0.0000000000
      9577        83  SOPE      H8S           -11.1002962255       24.9702570303      -10.7520112475  MEMB      83              0.0000000000
      9578        83  SOPE      C29            -9.3436602171       24.1691231225       -9.7448555920  MEMB      83              0.0000000000
      9579        83  SOPE      H91            -8.2675170433       24.0204378180       -9.9175065541  MEMB      83              0.0000000000
      9580        83  SOPE      C210           -9.7955768558       23.8851468145       -8.5136967472  MEMB      83              0.0000000000
      9581        83  SOPE      H101           -9.0616411044       23.4549752429       -7.8163512762  MEMB      83              0.0000000000
      9582        83  SOPE      C211          -11.1951397654       23.9127002331       -8.0798225450  MEMB      83              0.0000000000
      9583        83  SOPE      H11R          -11.7969325796       24.6411466482       -8.6642294862  MEMB      83              0.0000000000
      9584        83  SOPE      H11S          -11.1133572227       24.1805274510       -7.0046942197  MEMB      83              0.0000000000
      9585        83  SOPE      C212          -11.9831318316       22.6107198989       -8.1235984906  MEMB      83              0.0000000000
      9586        83  SOPE      H12R          -12.2719556880       22.3300614035       -9.1590374526  MEMB      83              0.0000000000
      9587        83  SOPE      H12S          -12.9714299227       22.7886697284       -7.6482862574  MEMB      83              0.0000000000
      9588        83  SOPE      C213          -11.3784752201       21.4096898212       -7.4216771501  MEMB      83              0.0000000000
      9589        83  SOPE      H13R          -10.3594527679       21.2037969403       -7.8134966133  MEMB      83              0.0000000000
      9590        83  SOPE      H13S          -12.0691157922       20.5596647994       -7.6082091650  MEMB      83              0.0000000000
      9591        83  SOPE      C214          -11.2805305231       21.5467653937       -5.8491867813  MEMB      83              0.0000000000
      9592        83  SOPE      H14R          -12.2626706242       21.8485578577       -5.4265251479  MEMB      83              0.0000000000
      9593        83  SOPE      H14S          -10.5276271027       22.3432566047       -5.6673657673  MEMB      83              0.0000000000
      9594        83  SOPE      C215          -10.8088797506       20.2341103259       -5.2175133647  MEMB      83              0.0000000000
      9595        83  SOPE      H15R           -9.7774867730       19.9752731507       -5.5393095265  MEMB      83              0.0000000000
      9596        83  SOPE      H15S          -11.4967014221       19.4475607604       -5.5950876838  MEMB      83              0.0000000000
      9597        83  SOPE      C216          -10.8579803112       20.1091976677       -3.6604692593  MEMB      83              0.0000000000
      9598        83  SOPE      H16R          -10.1193246744       20.8493286285       -3.2850822921  MEMB      83              0.0000000000
      9599        83  SOPE      H16S          -10.4992886833       19.0834166792       -3.4293084409  MEMB      83              0.0000000000
      9600        83  SOPE      C217          -12.2427529604       20.4387786360       -3.0704640833  MEMB      83              0.0000000000
      9601        83  SOPE      H17R          -13.1113333286       19.9741122476       -3.5842496906  MEMB      83              0.0000000000
      9602        83  SOPE      H17S          -12.4660684173       21.5118286598       -3.2521647102  MEMB      83              0.0000000000
      9603        83  SOPE      C218          -12.4836856665       20.2713492980       -1.5519931838  MEMB      83              0.0000000000
      9604        83  SOPE      H18R          -13.5410287181       20.5245889730       -1.3234842197  MEMB      83              0.0000000000
      9605        83  SOPE      H18S          -11.7988944532       20.9016249153       -0.9452531814  MEMB      83              0.0000000000
      9606        83  SOPE      H18T          -12.4118559057       19.2196411166       -1.2011782672  MEMB      83              0.0000000000
      9607        83  SOPE      C33           -15.1724016839       23.3713276283      -13.4348113884  MEMB      83              0.0000000000
      9608        83  SOPE      H3X           -16.1962396053       23.3208263971      -13.8632115107  MEMB      83              0.0000000000
      9609        83  SOPE      H3Y           -14.9099651130       24.4462258318      -13.3346025830  MEMB      83              0.0000000000
      9610        83  SOPE      C34           -15.3791119268       22.8184044869      -11.9949348531  MEMB      83              0.0000000000
      9611        83  SOPE      H4X           -14.4390961767       22.8794629436      -11.4058982708  MEMB      83              0.0000000000
      9612        83  SOPE      H4Y           -15.6091182156       21.7516964799      -12.2036266951  MEMB      83              0.0000000000
      9613        83  SOPE      C35           -16.5281811256       23.5317149580      -11.3211531060  MEMB      83              0.0000000000
      9614        83  SOPE      H5X           -17.4959522177       23.1794134751      -11.7378346364  MEMB      83              0.0000000000
      9615        83  SOPE      H5Y           -16.3767116335       24.6321121517      -11.3436089738  MEMB      83              0.0000000000
      9616        83  SOPE      C36           -16.7678269468       23.0828353492       -9.8480035814  MEMB      83              0.0000000000
      9617        83  SOPE      H6X           -16.8965755817       21.9793738881       -9.8588325489  MEMB      83              0.0000000000
      9618        83  SOPE      H6Y           -17.7770035899       23.4191616267       -9.5274283953  MEMB      83              0.0000000000
      9619        83  SOPE      C37           -15.6930939326       23.5269147162       -8.8689954472  MEMB      83              0.0000000000
      9620        83  SOPE      H7X           -15.6513688620       24.6088401664       -9.1180293823  MEMB      83              0.0000000000
      9621        83  SOPE      H7Y           -14.6842738540       23.0995430879       -9.0532667592  MEMB      83              0.0000000000
      9622        83  SOPE      C38           -16.0780326501       23.4147943047       -7.3325823888  MEMB      83              0.0000000000
      9623        83  SOPE      H8X           -17.1258335953       23.7781436290       -7.2661599708  MEMB      83              0.0000000000
      9624        83  SOPE      H8Y           -15.4736411223       23.9761565527       -6.5883348720  MEMB      83              0.0000000000
      9625        83  SOPE      C39           -16.0145429653       21.9392830073       -6.8374515857  MEMB      83              0.0000000000
      9626        83  SOPE      H9X           -14.9336474457       21.6920506158       -6.7677236574  MEMB      83              0.0000000000
      9627        83  SOPE      H9Y           -16.3178469811       21.2009152883       -7.6102009981  MEMB      83              0.0000000000
      9628        83  SOPE      C310          -16.6901597677       21.7726542496       -5.4954182107  MEMB      83              0.0000000000
      9629        83  SOPE      H10X          -17.7716175435       21.8742567179       -5.7287564997  MEMB      83              0.0000000000
      9630        83  SOPE      H10Y          -16.2502490508       22.5844485062       -4.8775271773  MEMB      83              0.0000000000
      9631        83  SOPE      C311          -16.6522010768       20.3140794760       -4.9074543360  MEMB      83              0.0000000000
      9632        83  SOPE      H11X          -15.5595489826       20.1494049212       -4.7920667384  MEMB      83              0.0000000000
      9633        83  SOPE      H11Y          -17.1140750212       19.6148331938       -5.6368701300  MEMB      83              0.0000000000
      9634        83  SOPE      C312          -17.3112316301       20.1141483389       -3.5115983117  MEMB      83              0.0000000000
      9635        83  SOPE      H12X          -18.3063816984       20.5991843838       -3.4181221375  MEMB      83              0.0000000000
      9636        83  SOPE      H12Y          -16.6471933994       20.6953332083       -2.8366190207  MEMB      83              0.0000000000
      9637        83  SOPE      C313          -17.1912185446       18.6960629185       -2.9769358578  MEMB      83              0.0000000000
      9638        83  SOPE      H13X          -17.9023079460       18.0378868964       -3.5205127843  MEMB      83              0.0000000000
      9639        83  SOPE      H13Y          -17.5176232373       18.6840224563       -1.9150321277  MEMB      83              0.0000000000
      9640        83  SOPE      C314          -15.7219953219       18.1012340156       -3.0410012995  MEMB      83              0.0000000000
      9641        83  SOPE      H14X          -15.0359764301       18.8016029218       -2.5183327264  MEMB      83              0.0000000000
      9642        83  SOPE      H14Y          -15.2626936338       18.0317727543       -4.0502269325  MEMB      83              0.0000000000
      9643        83  SOPE      C315          -15.5299088337       16.7578792447       -2.3450389319  MEMB      83              0.0000000000
      9644        83  SOPE      H15X          -15.8037490358       16.0118092782       -3.1213843624  MEMB      83              0.0000000000
      9645        83  SOPE      H15Y          -16.3363375444       16.7434075410       -1.5809817759  MEMB      83              0.0000000000
      9646        83  SOPE      C316          -14.0280435733       16.4698796719       -1.9190875715  MEMB      83              0.0000000000
      9647        83  SOPE      H16X          -13.9880049963       15.4510935112       -1.4777322513  MEMB      83              0.0000000000
      9648        83  SOPE      H16Y          -13.8343168464       17.1405656226       -1.0548115458  MEMB      83              0.0000000000
      9649        83  SOPE      C317          -13.0201443642       16.5057212121       -2.9842566557  MEMB      83              0.0000000000
      9650        83  SOPE      H17X          -12.7452801148       17.5322040901       -3.3084531293  MEMB      83              0.0000000000
      9651        83  SOPE      H17Y          -13.5393497046       16.0870648133       -3.8727794148  MEMB      83              0.0000000000
      9652        83  SOPE      C318          -11.6749489574       15.7990624605       -2.6849646630  MEMB      83              0.0000000000
      9653        83  SOPE      H18X          -11.7971347313       14.7426150755       -2.3635454828  MEMB      83              0.0000000000
      9654        83  SOPE      H18Y          -11.1254767816       16.2431667309       -1.8275428037  MEMB      83              0.0000000000
      9655        83  SOPE      H18Z          -11.0542608634       15.9954735616       -3.5852368086  MEMB      83              0.0000000000
      9656        84  OSM       N               2.7016956045       21.7889942631      -21.1845171365  MEMB      84              0.0000000000
      9657        84  OSM       C15             1.2532386048       21.3675857866      -21.6051328966  MEMB      84              0.0000000000
      9658        84  OSM       H15A            0.9165788198       20.7346543508      -20.7973841329  MEMB      84              0.0000000000
      9659        84  OSM       H15B            1.3101054654       20.7689940965      -22.5022695562  MEMB      84              0.0000000000
      9660        84  OSM       H15C            0.6272691055       22.2383785566      -21.7327345474  MEMB      84              0.0000000000
      9661        84  OSM       C14             2.6266400553       22.6171407668      -19.9145949159  MEMB      84              0.0000000000
      9662        84  OSM       H14A            2.1666778702       23.5553924530      -20.1875757163  MEMB      84              0.0000000000
      9663        84  OSM       H14B            3.5971699032       22.9365409318      -19.5646585636  MEMB      84              0.0000000000
      9664        84  OSM       H14C            1.9737883032       22.2673192032      -19.1285863680  MEMB      84              0.0000000000
      9665        84  OSM       C13             3.5167625188       20.5786812925      -20.7688590325  MEMB      84              0.0000000000
      9666        84  OSM       H13A            3.0075993650       20.0286488885      -19.9912876402  MEMB      84              0.0000000000
      9667        84  OSM       H13B            4.5238302130       20.8729126911      -20.5126505646  MEMB      84              0.0000000000
      9668        84  OSM       H13C            3.5530424654       19.9231523178      -21.6263935697  MEMB      84              0.0000000000
      9669        84  OSM       C12             3.3546197673       22.5947785161      -22.1917888395  MEMB      84              0.0000000000
      9670        84  OSM       H12A            2.8215336301       23.5190373761      -22.3590154932  MEMB      84              0.0000000000
      9671        84  OSM       H12B            3.3243431224       22.0151393767      -23.1025587479  MEMB      84              0.0000000000
      9672        84  OSM       C11             4.8997512880       22.9634421744      -22.1034076421  MEMB      84              0.0000000000
      9673        84  OSM       H11A            5.1262802158       23.5867453543      -22.9947543063  MEMB      84              0.0000000000
      9674        84  OSM       H11B            5.4431721529       22.0346902654      -22.3798758549  MEMB      84              0.0000000000
      9675        84  OSM       P               6.7942813513       24.0951101609      -20.7225064239  MEMB      84              0.0000000000
      9676        84  OSM       O13             7.7671694769       23.4878688931      -21.6637222127  MEMB      84              0.0000000000
      9677        84  OSM       O14             6.6657391687       25.5973102077      -20.8046336747  MEMB      84              0.0000000000
      9678        84  OSM       O11             7.2387151439       23.7082714853      -19.2248432716  MEMB      84              0.0000000000
      9679        84  OSM       O12             5.3111774992       23.4784361159      -20.8159939587  MEMB      84              0.0000000000
      9680        84  OSM       C1S             6.3178990439       23.3880414904      -18.1957852359  MEMB      84              0.0000000000
      9681        84  OSM       H1S             6.1188281825       22.2962164165      -18.2468713756  MEMB      84              0.0000000000
      9682        84  OSM       H1T             5.3386123839       23.9075138892      -18.2697240596  MEMB      84              0.0000000000
      9683        84  OSM       NF              5.5956985174       23.6207654949      -15.8217296502  MEMB      84              0.0000000000
      9684        84  OSM       HNF             5.4425533744       24.5021911085      -15.3816789861  MEMB      84              0.0000000000
      9685        84  OSM       C2S             6.7586178732       23.7857758097      -16.7477237555  MEMB      84              0.0000000000
      9686        84  OSM       H2S             7.5558467652       23.0884790705      -16.4122771712  MEMB      84              0.0000000000
      9687        84  OSM       C3S             7.2407193348       25.2768236140      -16.5869230488  MEMB      84              0.0000000000
      9688        84  OSM       H3S             6.4226587638       25.9805393975      -16.8512754775  MEMB      84              0.0000000000
      9689        84  OSM       O3              8.3595084338       25.4737043554      -17.4091538680  MEMB      84              0.0000000000
      9690        84  OSM       HO3             8.6006083008       24.5538770696      -17.5410189748  MEMB      84              0.0000000000
      9691        84  OSM       C4S             7.5886374580       25.6317731842      -15.1575840926  MEMB      84              0.0000000000
      9692        84  OSM       H4S             8.4875153229       25.1428968038      -14.7538281899  MEMB      84              0.0000000000
      9693        84  OSM       C5S             7.1037677782       26.5685760501      -14.3473091561  MEMB      84              0.0000000000
      9694        84  OSM       H5S             6.1981877374       27.1684969639      -14.5205716156  MEMB      84              0.0000000000
      9695        84  OSM       C6S             7.6892843520       26.7413959370      -12.8952493369  MEMB      84              0.0000000000
      9696        84  OSM       H6S             7.0559504142       27.5442237653      -12.4608804583  MEMB      84              0.0000000000
      9697        84  OSM       H6T             8.7456338956       27.0799321247      -12.9572143389  MEMB      84              0.0000000000
      9698        84  OSM       C7S             7.5486910835       25.4461589469      -12.0001522547  MEMB      84              0.0000000000
      9699        84  OSM       H7S             8.0342335912       25.5648446412      -11.0079408464  MEMB      84              0.0000000000
      9700        84  OSM       H7T             8.0207648993       24.6089650242      -12.5574435431  MEMB      84              0.0000000000
      9701        84  OSM       C8S             6.0321370801       25.0950867721      -11.7122493657  MEMB      84              0.0000000000
      9702        84  OSM       H8S             6.1787593248       24.0765254970      -11.2934947059  MEMB      84              0.0000000000
      9703        84  OSM       H8T             5.4245806059       24.9521409113      -12.6313589449  MEMB      84              0.0000000000
      9704        84  OSM       C9S             5.3795215810       26.1168663357      -10.7466696083  MEMB      84              0.0000000000
      9705        84  OSM       H9S             5.2371466518       27.0506625078      -11.3315411353  MEMB      84              0.0000000000
      9706        84  OSM       H9T             6.1138184029       26.3428919405       -9.9441470706  MEMB      84              0.0000000000
      9707        84  OSM       C10S            3.9088377205       25.8032923132      -10.3108072666  MEMB      84              0.0000000000
      9708        84  OSM       H10S            3.4910976495       25.2260338512      -11.1632074860  MEMB      84              0.0000000000
      9709        84  OSM       H10T            3.3664719656       26.7724044097      -10.2794647398  MEMB      84              0.0000000000
      9710        84  OSM       C11S            3.8483303936       25.2137324651       -8.9092440235  MEMB      84              0.0000000000
      9711        84  OSM       H11S            4.5249521009       24.3348935529       -8.8448544882  MEMB      84              0.0000000000
      9712        84  OSM       H11T            2.8490178266       24.7670747928       -8.7190006002  MEMB      84              0.0000000000
      9713        84  OSM       C12S            4.2878711804       26.0868669442       -7.7709761741  MEMB      84              0.0000000000
      9714        84  OSM       H12S            3.6785791680       27.0115659025       -7.6814428244  MEMB      84              0.0000000000
      9715        84  OSM       H12T            5.3330768124       26.4516361644       -7.8648338463  MEMB      84              0.0000000000
      9716        84  OSM       C13S            4.3036867143       25.2618301636       -6.4675729201  MEMB      84              0.0000000000
      9717        84  OSM       H13S            5.0524860962       24.4501126133       -6.5889624938  MEMB      84              0.0000000000
      9718        84  OSM       H13T            3.2623110221       24.8913431685       -6.3553362783  MEMB      84              0.0000000000
      9719        84  OSM       C14S            4.8176341722       26.0983684506       -5.3587186227  MEMB      84              0.0000000000
      9720        84  OSM       H14S            3.9971794836       26.7909271297       -5.0731708048  MEMB      84              0.0000000000
      9721        84  OSM       H14T            5.7473281793       26.6800711328       -5.5365164095  MEMB      84              0.0000000000
      9722        84  OSM       C15S            5.1440512639       25.1543737822       -4.1929574928  MEMB      84              0.0000000000
      9723        84  OSM       H15S            5.8805238674       25.6511995293       -3.5258040541  MEMB      84              0.0000000000
      9724        84  OSM       H15T            5.4816017822       24.1572120928       -4.5479906010  MEMB      84              0.0000000000
      9725        84  OSM       C16S            3.9270610719       24.8182144191       -3.3127378267  MEMB      84              0.0000000000
      9726        84  OSM       H16S            3.1462224077       24.2991241293       -3.9086878510  MEMB      84              0.0000000000
      9727        84  OSM       H16T            3.4719190019       25.7322427969       -2.8748804392  MEMB      84              0.0000000000
      9728        84  OSM       C17S            4.4254650255       23.8669974025       -2.1305561528  MEMB      84              0.0000000000
      9729        84  OSM       H17S            5.0083999892       22.9842886181       -2.4701623916  MEMB      84              0.0000000000
      9730        84  OSM       H17T            3.5223696442       23.3788156216       -1.7057991367  MEMB      84              0.0000000000
      9731        84  OSM       C18S            5.2337704165       24.4833033818       -1.0329397733  MEMB      84              0.0000000000
      9732        84  OSM       H18S            4.7900179178       25.3535464776       -0.5037123592  MEMB      84              0.0000000000
      9733        84  OSM       H18T            6.1087471441       25.0307567163       -1.4440754708  MEMB      84              0.0000000000
      9734        84  OSM       H18U            5.7200659130       23.7917970681       -0.3120682190  MEMB      84              0.0000000000
      9735        84  OSM       C1F             5.2763011863       22.4009410444      -15.3552506285  MEMB      84              0.0000000000
      9736        84  OSM       OF              5.6470225752       21.3779842226      -15.8491471995  MEMB      84              0.0000000000
      9737        84  OSM       C2F             4.3161964645       22.4731675096      -14.1992702382  MEMB      84              0.0000000000
      9738        84  OSM       H2F             3.2753091736       22.3467980994      -14.5665651731  MEMB      84              0.0000000000
      9739        84  OSM       H2G             4.4222470808       23.4391704683      -13.6608353007  MEMB      84              0.0000000000
      9740        84  OSM       C3F             4.6115818900       21.3447081965      -13.1912254351  MEMB      84              0.0000000000
      9741        84  OSM       H3F             5.6665773815       21.3571459633      -12.8431580440  MEMB      84              0.0000000000
      9742        84  OSM       H3G             4.3181306145       20.3874958886      -13.6728394127  MEMB      84              0.0000000000
      9743        84  OSM       C4F             3.6964881688       21.3744425145      -11.9710579781  MEMB      84              0.0000000000
      9744        84  OSM       H4F             2.6439019761       21.5430884632      -12.2840148518  MEMB      84              0.0000000000
      9745        84  OSM       H4G             4.0415267990       22.2430308021      -11.3703721040  MEMB      84              0.0000000000
      9746        84  OSM       C5F             3.8553543370       20.0980372280      -11.0912649863  MEMB      84              0.0000000000
      9747        84  OSM       H5F             4.8668906908       19.8894561420      -10.6818646486  MEMB      84              0.0000000000
      9748        84  OSM       H5G             3.6685536806       19.2764170835      -11.8153969828  MEMB      84              0.0000000000
      9749        84  OSM       C6F             2.9543888767       20.0548543855       -9.8912563088  MEMB      84              0.0000000000
      9750        84  OSM       H6F             2.9964603096       19.0498385059       -9.4195634049  MEMB      84              0.0000000000
      9751        84  OSM       H6G             1.8807998238       20.2393533061      -10.1096316373  MEMB      84              0.0000000000
      9752        84  OSM       C7F             3.3105482931       21.0899801131       -8.7973109695  MEMB      84              0.0000000000
      9753        84  OSM       H7F             3.1969510662       22.1434714615       -9.1313351320  MEMB      84              0.0000000000
      9754        84  OSM       H7G             4.3960017823       20.9505306706       -8.6058283488  MEMB      84              0.0000000000
      9755        84  OSM       C8F             2.4864029905       21.1373311926       -7.4762990170  MEMB      84              0.0000000000
      9756        84  OSM       H8F             1.4503507704       21.4557970191       -7.7202177010  MEMB      84              0.0000000000
      9757        84  OSM       H8G             2.9301875122       21.9712145995       -6.8914786794  MEMB      84              0.0000000000
      9758        84  OSM       C9F             2.5383228550       19.7239940124       -6.8311783190  MEMB      84              0.0000000000
      9759        84  OSM       H9F             2.5618013806       18.8239612817       -7.4631513992  MEMB      84              0.0000000000
      9760        84  OSM       C10F            2.6100361538       19.3939407492       -5.5212349273  MEMB      84              0.0000000000
      9761        84  OSM       H10F            2.4526829177       18.3414769471       -5.2427381174  MEMB      84              0.0000000000
      9762        84  OSM       C11F            2.6539725489       20.2659993277       -4.2589045025  MEMB      84              0.0000000000
      9763        84  OSM       H11F            1.7969084323       20.0599949624       -3.5826470474  MEMB      84              0.0000000000
      9764        84  OSM       H11G            2.6068701254       21.3332791102       -4.5638896809  MEMB      84              0.0000000000
      9765        84  OSM       C12F            3.8987594175       20.0615043285       -3.3724847828  MEMB      84              0.0000000000
      9766        84  OSM       H12F            3.6713024691       20.7093671507       -2.4990674240  MEMB      84              0.0000000000
      9767        84  OSM       H12G            4.8009399339       20.4454769038       -3.8949368910  MEMB      84              0.0000000000
      9768        84  OSM       C13F            4.1357445077       18.5444743439       -2.9566829469  MEMB      84              0.0000000000
      9769        84  OSM       H13F            5.0955587231       18.6080338260       -2.4007707941  MEMB      84              0.0000000000
      9770        84  OSM       H13G            4.2165634016       17.9333154859       -3.8809513664  MEMB      84              0.0000000000
      9771        84  OSM       C14F            3.0077857926       18.0171903919       -1.9941053886  MEMB      84              0.0000000000
      9772        84  OSM       H14F            3.0825558818       16.9190159795       -1.8432980288  MEMB      84              0.0000000000
      9773        84  OSM       H14G            2.0466502181       18.2352675516       -2.5069234836  MEMB      84              0.0000000000
      9774        84  OSM       C15F            3.0098994438       18.5187840311       -0.5463622530  MEMB      84              0.0000000000
      9775        84  OSM       H15F            2.0468665703       18.1523872179       -0.1308605996  MEMB      84              0.0000000000
      9776        84  OSM       H15G            3.0243501399       19.6296552195       -0.5551480041  MEMB      84              0.0000000000
      9777        84  OSM       C16F            4.2396353957       18.1094579762        0.3037254691  MEMB      84              0.0000000000
      9778        84  OSM       H16F            5.1601960737       18.4685666681       -0.2041418185  MEMB      84              0.0000000000
      9779        84  OSM       H16G            4.2832151136       17.0090799705        0.4506607568  MEMB      84              0.0000000000
      9780        84  OSM       C17F            4.1919373282       18.7112732720        1.6410575548  MEMB      84              0.0000000000
      9781        84  OSM       H17F            4.8761863134       18.2108084603        2.3591516311  MEMB      84              0.0000000000
      9782        84  OSM       H17G            3.2255880320       18.3980091245        2.0908983034  MEMB      84              0.0000000000
      9783        84  OSM       C18F            4.4280315536       20.2238521838        1.7838576488  MEMB      84              0.0000000000
      9784        84  OSM       H18F            5.4919883569       20.3441072990        1.4874521035  MEMB      84              0.0000000000
      9785        84  OSM       H18G            4.2669039245       20.4637043067        2.8566255410  MEMB      84              0.0000000000
      9786        84  OSM       H18H            3.8707968751       20.6719250467        0.9335390254  MEMB      84              0.0000000000
      9787        85  SAPS      N              25.3155504801        5.9170869227      -21.7508392070  MEMB      85              0.0000000000
      9788        85  SAPS      HN1            26.2455225354        6.2962367574      -21.4806591516  MEMB      85              0.0000000000
      9789        85  SAPS      HN2            25.1163124647        5.9673053049      -22.7703403100  MEMB      85              0.0000000000
      9790        85  SAPS      HN3            24.6146171731        6.3385346832      -21.1084419354  MEMB      85              0.0000000000
      9791        85  SAPS      C12            25.5094407569        4.4272958429      -21.2771122392  MEMB      85              0.0000000000
      9792        85  SAPS      H12A           24.8602328977        3.8125366450      -21.8829175824  MEMB      85              0.0000000000
      9793        85  SAPS      C13            26.9435980232        3.9529159701      -21.5915948006  MEMB      85              0.0000000000
      9794        85  SAPS      O13A           27.6109543015        4.5963432502      -22.5044995576  MEMB      85              0.0000000000
      9795        85  SAPS      O13B           27.2170691910        2.7041089108      -21.4111441096  MEMB      85              0.0000000000
      9796        85  SAPS      C11            25.2264052933        4.2129679972      -19.8811286369  MEMB      85              0.0000000000
      9797        85  SAPS      H11A           25.8127089342        4.9019244433      -19.2362192965  MEMB      85              0.0000000000
      9798        85  SAPS      H11B           25.4810859986        3.1806355175      -19.5590287736  MEMB      85              0.0000000000
      9799        85  SAPS      P              23.2359903257        4.7178829654      -18.2378298442  MEMB      85              0.0000000000
      9800        85  SAPS      O13            22.1467737404        3.7567620384      -17.9010014635  MEMB      85              0.0000000000
      9801        85  SAPS      O14            24.3454683685        4.8635223509      -17.2869789729  MEMB      85              0.0000000000
      9802        85  SAPS      O12            23.8430889438        4.3544899410      -19.6759468533  MEMB      85              0.0000000000
      9803        85  SAPS      O11            22.5363726358        6.1153584652      -18.4819243299  MEMB      85              0.0000000000
      9804        85  SAPS      C1             23.1618095389        7.1531657572      -19.1812199195  MEMB      85              0.0000000000
      9805        85  SAPS      HA             24.1203368035        6.8904299224      -19.6777242324  MEMB      85              0.0000000000
      9806        85  SAPS      HB             22.4471162648        7.3404799420      -20.0109475342  MEMB      85              0.0000000000
      9807        85  SAPS      C2             23.3533286377        8.3820131628      -18.2840775614  MEMB      85              0.0000000000
      9808        85  SAPS      HS             23.9611944886        9.0903973422      -18.8865825684  MEMB      85              0.0000000000
      9809        85  SAPS      O21            24.0393454458        8.0692758582      -16.9984421488  MEMB      85              0.0000000000
      9810        85  SAPS      C21            25.3727374315        8.1503987273      -17.0994820790  MEMB      85              0.0000000000
      9811        85  SAPS      O22            26.0141492115        8.2790949939      -18.1546910177  MEMB      85              0.0000000000
      9812        85  SAPS      C22            26.0206332572        8.2103533710      -15.7389090165  MEMB      85              0.0000000000
      9813        85  SAPS      H2R            25.5933571782        7.5110307084      -14.9887727899  MEMB      85              0.0000000000
      9814        85  SAPS      H2S            27.0947009939        7.9458212896      -15.8424574616  MEMB      85              0.0000000000
      9815        85  SAPS      C3             21.9403156345        8.9135853198      -17.9392167495  MEMB      85              0.0000000000
      9816        85  SAPS      HX             21.4670811493        9.3457861538      -18.8467256654  MEMB      85              0.0000000000
      9817        85  SAPS      HY             22.1995347309        9.6754504547      -17.1732612949  MEMB      85              0.0000000000
      9818        85  SAPS      O31            21.1546460703        7.8422174493      -17.3968240824  MEMB      85              0.0000000000
      9819        85  SAPS      C31            20.9139245303        7.8187744957      -16.0397356408  MEMB      85              0.0000000000
      9820        85  SAPS      O32            21.4247478887        8.6008984083      -15.2343116638  MEMB      85              0.0000000000
      9821        85  SAPS      C32            20.0096070065        6.6802819687      -15.5796544609  MEMB      85              0.0000000000
      9822        85  SAPS      H2X            19.9561206267        5.8576373955      -16.3244470949  MEMB      85              0.0000000000
      9823        85  SAPS      H2Y            19.0040013420        7.1525449034      -15.5864357853  MEMB      85              0.0000000000
      9824        85  SAPS      C23            25.8332685506        9.6561737538      -15.1293549973  MEMB      85              0.0000000000
      9825        85  SAPS      H3R            24.7730213509        9.8292622909      -14.8460929992  MEMB      85              0.0000000000
      9826        85  SAPS      H3S            25.8895209063       10.3254150334      -16.0143817091  MEMB      85              0.0000000000
      9827        85  SAPS      C24            26.7290120594       10.1092897505      -13.9759634651  MEMB      85              0.0000000000
      9828        85  SAPS      H4R            26.2719773124       11.0965329398      -13.7505951606  MEMB      85              0.0000000000
      9829        85  SAPS      H4S            27.7267150066       10.3671156421      -14.3912169802  MEMB      85              0.0000000000
      9830        85  SAPS      C25            26.7768918050        9.1630577093      -12.8346083290  MEMB      85              0.0000000000
      9831        85  SAPS      H5R            27.5891741033        8.4215035415      -12.8517815776  MEMB      85              0.0000000000
      9832        85  SAPS      C26            25.9387110848        9.0763634489      -11.7592593841  MEMB      85              0.0000000000
      9833        85  SAPS      H6R            26.0319480999        8.1822274166      -11.1253609156  MEMB      85              0.0000000000
      9834        85  SAPS      C27            24.7613470799        9.9866503041      -11.5235091292  MEMB      85              0.0000000000
      9835        85  SAPS      H7R            24.3907019880       10.4671065045      -12.4541565777  MEMB      85              0.0000000000
      9836        85  SAPS      H7S            25.2349739072       10.7889306122      -10.9182442833  MEMB      85              0.0000000000
      9837        85  SAPS      C28            23.5422674210        9.3140895970      -10.8949427846  MEMB      85              0.0000000000
      9838        85  SAPS      H8R            22.7826587118        9.0365324582      -11.6405674908  MEMB      85              0.0000000000
      9839        85  SAPS      C29            23.1479817211        9.1637382810       -9.6207239723  MEMB      85              0.0000000000
      9840        85  SAPS      H9R            22.2271613348        8.6092653539       -9.3869516439  MEMB      85              0.0000000000
      9841        85  SAPS      C210           23.9931422111        9.6909671140       -8.4970078716  MEMB      85              0.0000000000
      9842        85  SAPS      H10R           23.5256961239       10.2668323962       -7.6698477110  MEMB      85              0.0000000000
      9843        85  SAPS      H10S           24.7304635197       10.3864749328       -8.9519225724  MEMB      85              0.0000000000
      9844        85  SAPS      C211           24.9347664212        8.6621831044       -7.9059218365  MEMB      85              0.0000000000
      9845        85  SAPS      H11R           25.6142253694        8.1889622817       -8.6300745137  MEMB      85              0.0000000000
      9846        85  SAPS      C212           25.1025068894        8.4375943101       -6.5706525471  MEMB      85              0.0000000000
      9847        85  SAPS      H12R           25.8396742549        7.6702971797       -6.2916554807  MEMB      85              0.0000000000
      9848        85  SAPS      C213           24.4049090243        9.0584924909       -5.3894334501  MEMB      85              0.0000000000
      9849        85  SAPS      H13R           24.0543839151        8.1908884748       -4.7905039740  MEMB      85              0.0000000000
      9850        85  SAPS      H13S           23.4467908826        9.5408662344       -5.6786499576  MEMB      85              0.0000000000
      9851        85  SAPS      C214           25.2876350582        9.9263089345       -4.4649413251  MEMB      85              0.0000000000
      9852        85  SAPS      H14R           25.3015030191       10.9340023209       -4.9058061025  MEMB      85              0.0000000000
      9853        85  SAPS      C215           25.9781344077        9.7292804408       -3.3478015802  MEMB      85              0.0000000000
      9854        85  SAPS      H15R           26.5714681670       10.5958801425       -3.0207547017  MEMB      85              0.0000000000
      9855        85  SAPS      C216           26.1172428840        8.5039896088       -2.4542848405  MEMB      85              0.0000000000
      9856        85  SAPS      H16R           26.8623206955        7.8043942469       -2.8898826479  MEMB      85              0.0000000000
      9857        85  SAPS      H16S           25.1399603294        7.9783028748       -2.5080722713  MEMB      85              0.0000000000
      9858        85  SAPS      C217           26.4693226528        8.9230442469       -1.0118801564  MEMB      85              0.0000000000
      9859        85  SAPS      H17R           27.5255203157        9.2675823860       -1.0196852715  MEMB      85              0.0000000000
      9860        85  SAPS      H17S           26.4505780965        7.9357077497       -0.5028261303  MEMB      85              0.0000000000
      9861        85  SAPS      C218           25.5185371780        9.9066387717       -0.2113955403  MEMB      85              0.0000000000
      9862        85  SAPS      H18R           24.5172653787        9.4309094048       -0.1375225280  MEMB      85              0.0000000000
      9863        85  SAPS      H18S           25.5496269345       10.8459184428       -0.8039405090  MEMB      85              0.0000000000
      9864        85  SAPS      C219           26.1484111866       10.1445277612        1.1934904712  MEMB      85              0.0000000000
      9865        85  SAPS      H19R           27.2303013777       10.3780098961        1.0969474615  MEMB      85              0.0000000000
      9866        85  SAPS      H19S           26.0084204732        9.2158328914        1.7869956351  MEMB      85              0.0000000000
      9867        85  SAPS      C220           25.4384291790       11.2835291736        1.9441554365  MEMB      85              0.0000000000
      9868        85  SAPS      H20R           24.5363334818       10.9560821918        2.5039078225  MEMB      85              0.0000000000
      9869        85  SAPS      H20S           25.1242498322       12.0600196695        1.2143101484  MEMB      85              0.0000000000
      9870        85  SAPS      H20T           26.1227174875       11.7264727600        2.6990527968  MEMB      85              0.0000000000
      9871        85  SAPS      C33            20.5020844298        5.9965809176      -14.2818759598  MEMB      85              0.0000000000
      9872        85  SAPS      H3X            19.5845330048        5.7913133933      -13.6900267760  MEMB      85              0.0000000000
      9873        85  SAPS      H3Y            21.1036012248        6.6980000577      -13.6650213794  MEMB      85              0.0000000000
      9874        85  SAPS      C34            21.2214647804        4.6190936050      -14.6714247010  MEMB      85              0.0000000000
      9875        85  SAPS      H4X            22.0385368601        4.7335065731      -15.4154837420  MEMB      85              0.0000000000
      9876        85  SAPS      H4Y            20.3364296839        4.1483689415      -15.1504361160  MEMB      85              0.0000000000
      9877        85  SAPS      C35            21.7640467224        3.8584496221      -13.4334092062  MEMB      85              0.0000000000
      9878        85  SAPS      H5X            21.9418933959        2.8249528488      -13.8002552850  MEMB      85              0.0000000000
      9879        85  SAPS      H5Y            20.9593471429        3.6747344504      -12.6897502496  MEMB      85              0.0000000000
      9880        85  SAPS      C36            22.9621453652        4.4200974139      -12.7128409404  MEMB      85              0.0000000000
      9881        85  SAPS      H6X            23.0972443922        3.6673649972      -11.9069481902  MEMB      85              0.0000000000
      9882        85  SAPS      H6Y            22.8068650300        5.3970411132      -12.2070840827  MEMB      85              0.0000000000
      9883        85  SAPS      C37            24.2080745655        4.6122389115      -13.6135977367  MEMB      85              0.0000000000
      9884        85  SAPS      H7X            23.9165610305        5.3337468354      -14.4065463445  MEMB      85              0.0000000000
      9885        85  SAPS      H7Y            24.4842018679        3.6803661379      -14.1518246916  MEMB      85              0.0000000000
      9886        85  SAPS      C38            25.5153333382        5.0105740351      -12.8109195597  MEMB      85              0.0000000000
      9887        85  SAPS      H8X            25.2925774261        5.9830660298      -12.3220842272  MEMB      85              0.0000000000
      9888        85  SAPS      H8Y            26.3201211442        5.3354804441      -13.5045141426  MEMB      85              0.0000000000
      9889        85  SAPS      C39            25.9321354021        4.0082951833      -11.7499256471  MEMB      85              0.0000000000
      9890        85  SAPS      H9X            26.3337717607        3.1962641227      -12.3930542480  MEMB      85              0.0000000000
      9891        85  SAPS      H9Y            25.1468449703        3.5357195991      -11.1219824153  MEMB      85              0.0000000000
      9892        85  SAPS      C310           27.1270653793        4.4859092766      -10.8492058806  MEMB      85              0.0000000000
      9893        85  SAPS      H10X           27.8081608399        4.8062452584      -11.6664044655  MEMB      85              0.0000000000
      9894        85  SAPS      H10Y           27.3674222837        3.5951974370      -10.2301888441  MEMB      85              0.0000000000
      9895        85  SAPS      C311           26.8540929914        5.7234368147       -9.8701993990  MEMB      85              0.0000000000
      9896        85  SAPS      H11X           25.7653269898        5.7152176004       -9.6491969515  MEMB      85              0.0000000000
      9897        85  SAPS      H11Y           27.0718179170        6.6773514764      -10.3964728644  MEMB      85              0.0000000000
      9898        85  SAPS      C312           27.6747687530        5.6451421871       -8.5702980210  MEMB      85              0.0000000000
      9899        85  SAPS      H12X           28.0936028257        6.6451013023       -8.3274374643  MEMB      85              0.0000000000
      9900        85  SAPS      H12Y           28.6410839404        5.1044235067       -8.6607365780  MEMB      85              0.0000000000
      9901        85  SAPS      C313           26.9249232877        5.0347945523       -7.3648471293  MEMB      85              0.0000000000
      9902        85  SAPS      H13X           26.3052296690        4.1339612925       -7.5618250697  MEMB      85              0.0000000000
      9903        85  SAPS      H13Y           26.1421303949        5.7157742386       -6.9675774703  MEMB      85              0.0000000000
      9904        85  SAPS      C314           27.9214351887        4.6325494211       -6.3401081707  MEMB      85              0.0000000000
      9905        85  SAPS      H14X           28.6476762096        5.4705123455       -6.4087613736  MEMB      85              0.0000000000
      9906        85  SAPS      H14Y           28.4933903694        3.7289012439       -6.6411192888  MEMB      85              0.0000000000
      9907        85  SAPS      C315           27.2258891386        4.4583675184       -4.9369068409  MEMB      85              0.0000000000
      9908        85  SAPS      H15X           26.3781867722        3.7545578014       -5.0796420406  MEMB      85              0.0000000000
      9909        85  SAPS      H15Y           26.7913053694        5.4454443011       -4.6701902184  MEMB      85              0.0000000000
      9910        85  SAPS      C316           28.2102423426        3.8895839146       -3.8754956509  MEMB      85              0.0000000000
      9911        85  SAPS      H16X           28.7412962217        3.0249548600       -4.3279543419  MEMB      85              0.0000000000
      9912        85  SAPS      H16Y           27.5972027453        3.6725281006       -2.9747239982  MEMB      85              0.0000000000
      9913        85  SAPS      C317           29.1489144643        4.9092431235       -3.2616012687  MEMB      85              0.0000000000
      9914        85  SAPS      H17X           28.5331437305        5.6871000292       -2.7615149266  MEMB      85              0.0000000000
      9915        85  SAPS      H17Y           29.8707956323        5.3518627670       -3.9808345504  MEMB      85              0.0000000000
      9916        85  SAPS      C318           30.0485716387        4.2905470237       -2.1445595102  MEMB      85              0.0000000000
      9917        85  SAPS      H18X           30.9022344850        3.7025335943       -2.5443344836  MEMB      85              0.0000000000
      9918        85  SAPS      H18Y           29.4305886722        3.6548524233       -1.4750001043  MEMB      85              0.0000000000
      9919        85  SAPS      H18Z           30.4968337601        5.1509241530       -1.6031419027  MEMB      85              0.0000000000
      9920        86  CHL1      C3            -23.1795904075       13.1348672893      -17.3422600000  MEMB      86              0.0000000000
      9921        86  CHL1      H3            -22.1400732118       13.1038931606      -16.9514200000  MEMB      86              0.0000000000
      9922        86  CHL1      O3            -23.1394403925       12.7893281107      -18.6577400000  MEMB      86              0.0000000000
      9923        86  CHL1      H3'           -22.7826417593       11.8985919635      -18.6874900000  MEMB      86              0.0000000000
      9924        86  CHL1      C4            -24.0811976115       12.0937786572      -16.6367300000  MEMB      86              0.0000000000
      9925        86  CHL1      H4A           -25.0675331947       12.1819776851      -17.1404000000  MEMB      86              0.0000000000
      9926        86  CHL1      H4B           -23.7236314136       11.0536453463      -16.7935400000  MEMB      86              0.0000000000
      9927        86  CHL1      C5            -24.1447299159       12.4981465155      -15.1491700000  MEMB      86              0.0000000000
      9928        86  CHL1      C6            -23.7397682380       11.5775375994      -14.2187900000  MEMB      86              0.0000000000
      9929        86  CHL1      H6            -23.4176797637       10.5641178288      -14.5002700000  MEMB      86              0.0000000000
      9930        86  CHL1      C7            -23.6710552772       11.8704642256      -12.7121300000  MEMB      86              0.0000000000
      9931        86  CHL1      H7A           -24.1578388663       11.1203317467      -12.0528300000  MEMB      86              0.0000000000
      9932        86  CHL1      H7B           -22.6126085362       12.0228754521      -12.4108300000  MEMB      86              0.0000000000
      9933        86  CHL1      C8            -24.5546502311       13.1680713554      -12.3650500000  MEMB      86              0.0000000000
      9934        86  CHL1      H8            -25.6147204345       12.8387664601      -12.4111400000  MEMB      86              0.0000000000
      9935        86  CHL1      C14           -24.1922906053       13.6930103367      -10.9267900000  MEMB      86              0.0000000000
      9936        86  CHL1      H14           -23.1167446748       13.9713090377      -10.9353100000  MEMB      86              0.0000000000
      9937        86  CHL1      C15           -24.5598278585       12.8404780436       -9.6777200000  MEMB      86              0.0000000000
      9938        86  CHL1      H15A          -25.4617198852       12.1944891596       -9.7377400000  MEMB      86              0.0000000000
      9939        86  CHL1      H15B          -23.7959681671       12.0543333713       -9.4965700000  MEMB      86              0.0000000000
      9940        86  CHL1      C16           -24.5280566411       13.8155561313       -8.4660400000  MEMB      86              0.0000000000
      9941        86  CHL1      H16A          -25.3511233887       13.5841308149       -7.7565800000  MEMB      86              0.0000000000
      9942        86  CHL1      H16B          -23.5750507265       13.6276263174       -7.9268100000  MEMB      86              0.0000000000
      9943        86  CHL1      C17           -24.5924498412       15.1659245878       -9.1158700000  MEMB      86              0.0000000000
      9944        86  CHL1      H17           -23.5668783387       15.5915566680       -9.1526000000  MEMB      86              0.0000000000
      9945        86  CHL1      C13           -24.9878468058       14.9593755893      -10.5623000000  MEMB      86              0.0000000000
      9946        86  CHL1      C18           -26.5075638509       14.7138813312      -10.5741800000  MEMB      86              0.0000000000
      9947        86  CHL1      H18A          -26.9146155886       14.4164784326      -11.5642200000  MEMB      86              0.0000000000
      9948        86  CHL1      H18B          -26.7714360018       13.9275538135       -9.8350000000  MEMB      86              0.0000000000
      9949        86  CHL1      H18C          -27.0487616568       15.6241272598      -10.2382100000  MEMB      86              0.0000000000
      9950        86  CHL1      C12           -24.7089572470       16.1450833029      -11.6216300000  MEMB      86              0.0000000000
      9951        86  CHL1      H12A          -25.4227662943       16.9632087872      -11.3861100000  MEMB      86              0.0000000000
      9952        86  CHL1      H12B          -23.6908167914       16.5403466666      -11.4179700000  MEMB      86              0.0000000000
      9953        86  CHL1      C11           -25.0871409514       15.6811845955      -13.0027000000  MEMB      86              0.0000000000
      9954        86  CHL1      H11A          -26.1855060459       15.5292000436      -13.0720200000  MEMB      86              0.0000000000
      9955        86  CHL1      H11B          -24.7470509103       16.3730414949      -13.8027000000  MEMB      86              0.0000000000
      9956        86  CHL1      C9            -24.3355961498       14.3776840651      -13.3437100000  MEMB      86              0.0000000000
      9957        86  CHL1      H9            -23.2649614886       14.6735617629      -13.3206500000  MEMB      86              0.0000000000
      9958        86  CHL1      C10           -24.6748876497       13.9681911407      -14.8307600000  MEMB      86              0.0000000000
      9959        86  CHL1      C19           -26.1849419856       14.0147101181      -15.1476600000  MEMB      86              0.0000000000
      9960        86  CHL1      H19A          -26.8059059153       13.5860774735      -14.3321700000  MEMB      86              0.0000000000
      9961        86  CHL1      H19B          -26.6712867947       15.0008319370      -15.3068800000  MEMB      86              0.0000000000
      9962        86  CHL1      H19C          -26.3903335084       13.3898397830      -16.0430300000  MEMB      86              0.0000000000
      9963        86  CHL1      C1            -23.9911110812       14.9538042109      -15.7681200000  MEMB      86              0.0000000000
      9964        86  CHL1      H1A           -24.5809485550       15.8945845203      -15.8049000000  MEMB      86              0.0000000000
      9965        86  CHL1      H1B           -23.0018350874       15.0776387629      -15.2778900000  MEMB      86              0.0000000000
      9966        86  CHL1      C2            -23.8552892872       14.4916487640      -17.2426700000  MEMB      86              0.0000000000
      9967        86  CHL1      H2A           -23.2850759918       15.2580639275      -17.8099400000  MEMB      86              0.0000000000
      9968        86  CHL1      H2B           -24.8567798685       14.4274265594      -17.7193400000  MEMB      86              0.0000000000
      9969        86  CHL1      C20           -25.4272059359       16.1943173350       -8.2248700000  MEMB      86              0.0000000000
      9970        86  CHL1      H20           -26.4986040441       15.9171640904       -8.1268300000  MEMB      86              0.0000000000
      9971        86  CHL1      C21           -25.3983955013       17.5668608712       -8.8558200000  MEMB      86              0.0000000000
      9972        86  CHL1      H21A          -25.6236545198       18.3805648804       -8.1336800000  MEMB      86              0.0000000000
      9973        86  CHL1      H21B          -26.1560259371       17.6443447707       -9.6647100000  MEMB      86              0.0000000000
      9974        86  CHL1      H21C          -24.4773058689       17.7106760291       -9.4601800000  MEMB      86              0.0000000000
      9975        86  CHL1      C22           -24.8601541740       16.3159294424       -6.7825600000  MEMB      86              0.0000000000
      9976        86  CHL1      H22A          -24.5903275824       15.3211810109       -6.3678300000  MEMB      86              0.0000000000
      9977        86  CHL1      H22B          -23.8720023705       16.8212197012       -6.8332300000  MEMB      86              0.0000000000
      9978        86  CHL1      C23           -25.8316012117       17.1475444007       -5.8537700000  MEMB      86              0.0000000000
      9979        86  CHL1      H23A          -25.7148609745       18.2488527993       -5.9422200000  MEMB      86              0.0000000000
      9980        86  CHL1      H23B          -26.8522791355       16.8580336245       -6.1834900000  MEMB      86              0.0000000000
      9981        86  CHL1      C24           -25.5948026749       16.8525765755       -4.4249200000  MEMB      86              0.0000000000
      9982        86  CHL1      H24A          -25.7895682362       15.7806058129       -4.2075100000  MEMB      86              0.0000000000
      9983        86  CHL1      H24B          -24.5318607490       17.0427558707       -4.1635700000  MEMB      86              0.0000000000
      9984        86  CHL1      C25           -26.5275363281       17.6596680845       -3.4447300000  MEMB      86              0.0000000000
      9985        86  CHL1      H25           -27.5659349629       17.7469108877       -3.8300000000  MEMB      86              0.0000000000
      9986        86  CHL1      C26           -26.5802833277       16.8786606197       -2.0940100000  MEMB      86              0.0000000000
      9987        86  CHL1      H26A          -26.9387494574       15.8274017505       -2.1200700000  MEMB      86              0.0000000000
      9988        86  CHL1      H26B          -25.5551250886       16.9907995028       -1.6807200000  MEMB      86              0.0000000000
      9989        86  CHL1      H26C          -27.2352768524       17.3905483735       -1.3569300000  MEMB      86              0.0000000000
      9990        86  CHL1      C27           -25.9799823014       19.0565306265       -3.2042900000  MEMB      86              0.0000000000
      9991        86  CHL1      H27A          -24.9727189918       19.0361052097       -2.7359600000  MEMB      86              0.0000000000
      9992        86  CHL1      H27B          -25.7724965530       19.5878203721       -4.1577100000  MEMB      86              0.0000000000
      9993        86  CHL1      H27C          -26.6601755603       19.6228615046       -2.5327800000  MEMB      86              0.0000000000
      9994        87  SAPE      N              14.5172908374       18.6763900232      -19.0747385815  MEMB      87              0.0000000000
      9995        87  SAPE      HN1            15.2591742500       17.9693020059      -18.8980030405  MEMB      87              0.0000000000
      9996        87  SAPE      HN2            13.6106361877       18.3579185719      -18.6770537726  MEMB      87              0.0000000000
      9997        87  SAPE      HN3            14.3132430054       18.8255151516      -20.0835627387  MEMB      87              0.0000000000
      9998        87  SAPE      C12            14.8909609564       20.0192684412      -18.6587833689  MEMB      87              0.0000000000
      9999        87  SAPE      H12A           14.5948611961       20.1404362673      -17.5948451337  MEMB      87              0.0000000000
     10000        87  SAPE      H12B           14.3347531227       20.8094413646      -19.2070357472  MEMB      87              0.0000000000
     10001        87  SAPE      C11            16.3619446946       20.2914702822      -18.8019562855  MEMB      87              0.0000000000
     10002        87  SAPE      H11A           16.9380674968       19.3532511590      -18.6531324424  MEMB      87              0.0000000000
     10003        87  SAPE      H11B           16.7628889455       21.0135122828      -18.0588412007  MEMB      87              0.0000000000
     10004        87  SAPE      P              18.0308438391       21.2129560823      -20.7638115351  MEMB      87              0.0000000000
     10005        87  SAPE      O13            17.9096403413       21.3333392225      -22.2567549205  MEMB      87              0.0000000000
     10006        87  SAPE      O14            18.3003970524       22.4150313305      -19.9471813035  MEMB      87              0.0000000000
     10007        87  SAPE      O12            16.6683269420       20.7657712007      -20.1538423291  MEMB      87              0.0000000000
     10008        87  SAPE      O11            19.0951201554       20.1165230099      -20.3429316433  MEMB      87              0.0000000000
     10009        87  SAPE      C1             20.4856904114       20.3369950972      -20.5133992673  MEMB      87              0.0000000000
     10010        87  SAPE      HA             20.8339075560       19.6318574847      -21.2981583192  MEMB      87              0.0000000000
     10011        87  SAPE      HB             20.7145866049       21.3276998879      -20.9610950921  MEMB      87              0.0000000000
     10012        87  SAPE      C2             21.2404466262       20.3233099230      -19.1281779704  MEMB      87              0.0000000000
     10013        87  SAPE      HS             22.2649827596       19.9455865885      -19.3330490229  MEMB      87              0.0000000000
     10014        87  SAPE      O21            20.5259963634       19.4390462496      -18.2181626170  MEMB      87              0.0000000000
     10015        87  SAPE      C21            21.1888261133       18.6426963190      -17.4791085965  MEMB      87              0.0000000000
     10016        87  SAPE      O22            22.3981230438       18.4034097883      -17.5137538398  MEMB      87              0.0000000000
     10017        87  SAPE      C22            20.1795065306       17.8101998228      -16.5787786379  MEMB      87              0.0000000000
     10018        87  SAPE      H2R            20.7615612977       17.0158751796      -16.0644033603  MEMB      87              0.0000000000
     10019        87  SAPE      H2S            19.8927415929       18.4090633215      -15.6880207750  MEMB      87              0.0000000000
     10020        87  SAPE      C3             21.3432595661       21.6592144632      -18.4512993399  MEMB      87              0.0000000000
     10021        87  SAPE      HX             20.3123584329       21.9308328671      -18.1385896785  MEMB      87              0.0000000000
     10022        87  SAPE      HY             21.8285636162       22.4215239680      -19.0975852525  MEMB      87              0.0000000000
     10023        87  SAPE      O31            22.1107367618       21.3492348649      -17.3282240989  MEMB      87              0.0000000000
     10024        87  SAPE      C31            22.1886983898       22.1717026510      -16.3234801221  MEMB      87              0.0000000000
     10025        87  SAPE      O32            21.7537604391       23.3309858239      -16.2300262200  MEMB      87              0.0000000000
     10026        87  SAPE      C32            23.0598220971       21.4860765563      -15.3298440231  MEMB      87              0.0000000000
     10027        87  SAPE      H2X            24.1260316202       21.5223036971      -15.6400148739  MEMB      87              0.0000000000
     10028        87  SAPE      H2Y            22.7295483490       20.4281634516      -15.2519969628  MEMB      87              0.0000000000
     10029        87  SAPE      C23            19.0615587643       17.3305067965      -17.4387289436  MEMB      87              0.0000000000
     10030        87  SAPE      H3R            19.4370922714       16.4553040180      -18.0108437822  MEMB      87              0.0000000000
     10031        87  SAPE      H3S            18.6506393646       18.1888062274      -18.0121297994  MEMB      87              0.0000000000
     10032        87  SAPE      C24            17.8761763361       16.7559985597      -16.6077524497  MEMB      87              0.0000000000
     10033        87  SAPE      H4R            17.0313174781       16.5576177450      -17.3014237006  MEMB      87              0.0000000000
     10034        87  SAPE      H4S            17.4288394739       17.4794973766      -15.8930776204  MEMB      87              0.0000000000
     10035        87  SAPE      C25            17.9379932426       15.5167965884      -15.8076301181  MEMB      87              0.0000000000
     10036        87  SAPE      H5R            17.7872924310       14.5845234926      -16.3716830471  MEMB      87              0.0000000000
     10037        87  SAPE      C26            18.1336162446       15.4546573959      -14.4504887720  MEMB      87              0.0000000000
     10038        87  SAPE      H6R            18.1519247929       14.4686115659      -13.9632740825  MEMB      87              0.0000000000
     10039        87  SAPE      C27            18.3491993726       16.6486137357      -13.5159616093  MEMB      87              0.0000000000
     10040        87  SAPE      H7R            19.1558927919       17.2693615571      -13.9612019664  MEMB      87              0.0000000000
     10041        87  SAPE      H7S            18.8449671415       16.2614286530      -12.6001979206  MEMB      87              0.0000000000
     10042        87  SAPE      C28            17.1288828073       17.5191222882      -13.2689957831  MEMB      87              0.0000000000
     10043        87  SAPE      H8R            16.1406257460       17.1921319035      -13.6245592035  MEMB      87              0.0000000000
     10044        87  SAPE      C29            17.1980271668       18.6404518242      -12.5440586873  MEMB      87              0.0000000000
     10045        87  SAPE      H9R            16.3208210106       19.2834095336      -12.3793927052  MEMB      87              0.0000000000
     10046        87  SAPE      C210           18.3762900602       19.2939993755      -11.9089341475  MEMB      87              0.0000000000
     10047        87  SAPE      H10R           18.5895414731       20.2038163863      -12.5098316666  MEMB      87              0.0000000000
     10048        87  SAPE      H10S           19.3078550899       18.7069982354      -12.0570461368  MEMB      87              0.0000000000
     10049        87  SAPE      C211           18.2292820101       19.5752394916      -10.4173561210  MEMB      87              0.0000000000
     10050        87  SAPE      H11R           18.1044866385       20.6338266011      -10.1456581388  MEMB      87              0.0000000000
     10051        87  SAPE      C212           18.3882772665       18.7521384607       -9.3592819777  MEMB      87              0.0000000000
     10052        87  SAPE      H12R           18.5080779389       19.2231860216       -8.3724884498  MEMB      87              0.0000000000
     10053        87  SAPE      C213           18.7066572600       17.3132028420       -9.3781329867  MEMB      87              0.0000000000
     10054        87  SAPE      H13R           18.6237626363       16.8565365017      -10.3875421147  MEMB      87              0.0000000000
     10055        87  SAPE      H13S           17.9576999215       16.7134602229       -8.8180510037  MEMB      87              0.0000000000
     10056        87  SAPE      C214           20.1088214114       16.9326122660       -8.9466983179  MEMB      87              0.0000000000
     10057        87  SAPE      H14R           20.8274010358       16.3812381549       -9.5709024040  MEMB      87              0.0000000000
     10058        87  SAPE      C215           20.5645504608       17.0898369582       -7.6680187702  MEMB      87              0.0000000000
     10059        87  SAPE      H15R           21.4737370364       16.5251266660       -7.4140866027  MEMB      87              0.0000000000
     10060        87  SAPE      C216           19.8019647992       17.6593759112       -6.4743421513  MEMB      87              0.0000000000
     10061        87  SAPE      H16R           18.7320253060       17.9272428371       -6.6077497980  MEMB      87              0.0000000000
     10062        87  SAPE      H16S           20.2424989257       18.6497641273       -6.2306585129  MEMB      87              0.0000000000
     10063        87  SAPE      C217           19.6978022729       16.7870376434       -5.1707708084  MEMB      87              0.0000000000
     10064        87  SAPE      H17R           20.7252634025       16.7855484066       -4.7481099697  MEMB      87              0.0000000000
     10065        87  SAPE      H17S           19.2982435667       15.7941809026       -5.4689471108  MEMB      87              0.0000000000
     10066        87  SAPE      C218           18.7686601289       17.2760454856       -4.1412001225  MEMB      87              0.0000000000
     10067        87  SAPE      H18R           18.6752960094       16.5698717351       -3.2886019510  MEMB      87              0.0000000000
     10068        87  SAPE      H18S           17.7434427837       17.4660504355       -4.5247983128  MEMB      87              0.0000000000
     10069        87  SAPE      C219           19.2099309385       18.6202462710       -3.4795790292  MEMB      87              0.0000000000
     10070        87  SAPE      H19R           18.9286340424       19.4356248148       -4.1798309070  MEMB      87              0.0000000000
     10071        87  SAPE      H19S           20.3084660618       18.6428482978       -3.3151696221  MEMB      87              0.0000000000
     10072        87  SAPE      C220           18.6653970759       18.8291732510       -2.1179448297  MEMB      87              0.0000000000
     10073        87  SAPE      H20R           18.9517639679       19.8072087504       -1.6754958690  MEMB      87              0.0000000000
     10074        87  SAPE      H20S           18.9513012378       18.0284380869       -1.4028192514  MEMB      87              0.0000000000
     10075        87  SAPE      H20T           17.5545297546       18.8448950010       -2.1110496033  MEMB      87              0.0000000000
     10076        87  SAPE      C33            22.8787947453       22.0979316609      -13.9099173109  MEMB      87              0.0000000000
     10077        87  SAPE      H3X            22.6938035884       23.1915374240      -13.8456876310  MEMB      87              0.0000000000
     10078        87  SAPE      H3Y            23.7854943439       21.7895631383      -13.3467775352  MEMB      87              0.0000000000
     10079        87  SAPE      C34            21.6735636185       21.3619941131      -13.1963810234  MEMB      87              0.0000000000
     10080        87  SAPE      H4X            21.7969245149       20.2717412282      -13.3708849932  MEMB      87              0.0000000000
     10081        87  SAPE      H4Y            20.6975024198       21.6421834256      -13.6470689318  MEMB      87              0.0000000000
     10082        87  SAPE      C35            21.5030055029       21.5607753164      -11.6337642462  MEMB      87              0.0000000000
     10083        87  SAPE      H5X            20.4417034322       21.2628293403      -11.4952473533  MEMB      87              0.0000000000
     10084        87  SAPE      H5Y            21.4972929762       22.6420694938      -11.3786347193  MEMB      87              0.0000000000
     10085        87  SAPE      C36            22.2734980620       20.7412849975      -10.6519428066  MEMB      87              0.0000000000
     10086        87  SAPE      H6X            23.3137469958       21.1255271123      -10.5844081574  MEMB      87              0.0000000000
     10087        87  SAPE      H6Y            22.2134658958       19.6942949130      -11.0187246824  MEMB      87              0.0000000000
     10088        87  SAPE      C37            21.7342808308       20.8413577932       -9.1597786305  MEMB      87              0.0000000000
     10089        87  SAPE      H7X            22.4884164758       20.3771305080       -8.4888890823  MEMB      87              0.0000000000
     10090        87  SAPE      H7Y            20.7799612860       20.2921806883       -9.0114559751  MEMB      87              0.0000000000
     10091        87  SAPE      C38            21.6500732116       22.2924889895       -8.6802659335  MEMB      87              0.0000000000
     10092        87  SAPE      H8X            20.9584114095       22.9776059243       -9.2155609181  MEMB      87              0.0000000000
     10093        87  SAPE      H8Y            22.6634253586       22.7474105206       -8.6582588942  MEMB      87              0.0000000000
     10094        87  SAPE      C39            21.2203999977       22.3990460199       -7.1853886304  MEMB      87              0.0000000000
     10095        87  SAPE      H9X            21.5162074804       23.4359736163       -6.9178076380  MEMB      87              0.0000000000
     10096        87  SAPE      H9Y            21.9423815440       21.8148584592       -6.5756444498  MEMB      87              0.0000000000
     10097        87  SAPE      C310           19.7459081108       22.1669986851       -6.8814631931  MEMB      87              0.0000000000
     10098        87  SAPE      H10X           19.6127111669       21.9375188197       -5.8026127109  MEMB      87              0.0000000000
     10099        87  SAPE      H10Y           19.6045609200       21.2509960158       -7.4940651535  MEMB      87              0.0000000000
     10100        87  SAPE      C311           18.7498142047       23.2926669546       -7.2877777241  MEMB      87              0.0000000000
     10101        87  SAPE      H11X           18.6521926302       23.2651197051       -8.3941376721  MEMB      87              0.0000000000
     10102        87  SAPE      H11Y           19.1670387915       24.3031326644       -7.0897794800  MEMB      87              0.0000000000
     10103        87  SAPE      C312           17.3528234404       23.0367818274       -6.6094104233  MEMB      87              0.0000000000
     10104        87  SAPE      H12X           17.0875120983       22.0166154881       -6.9603965182  MEMB      87              0.0000000000
     10105        87  SAPE      H12Y           16.7367409344       23.7795295998       -7.1599452436  MEMB      87              0.0000000000
     10106        87  SAPE      C313           17.3373866882       23.3368783670       -5.0865406970  MEMB      87              0.0000000000
     10107        87  SAPE      H13X           17.9042753768       22.4843680351       -4.6550498953  MEMB      87              0.0000000000
     10108        87  SAPE      H13Y           16.2848209714       23.2706123679       -4.7372055638  MEMB      87              0.0000000000
     10109        87  SAPE      C314           17.8315991947       24.7942280791       -4.7371117676  MEMB      87              0.0000000000
     10110        87  SAPE      H14X           16.9865467600       25.3198616866       -4.2432328732  MEMB      87              0.0000000000
     10111        87  SAPE      H14Y           17.9404746679       25.3302658691       -5.7041330961  MEMB      87              0.0000000000
     10112        87  SAPE      C315           19.1609780064       24.8944004244       -3.9809709898  MEMB      87              0.0000000000
     10113        87  SAPE      H15X           19.4546244317       25.9654480719       -4.0117859762  MEMB      87              0.0000000000
     10114        87  SAPE      H15Y           19.9328559793       24.3376965055       -4.5542123345  MEMB      87              0.0000000000
     10115        87  SAPE      C316           19.1218209462       24.5966110346       -2.4902641988  MEMB      87              0.0000000000
     10116        87  SAPE      H16X           18.5013824060       25.3452724384       -1.9527860831  MEMB      87              0.0000000000
     10117        87  SAPE      H16Y           20.0918620644       24.6407977766       -1.9504588085  MEMB      87              0.0000000000
     10118        87  SAPE      C317           18.5357819510       23.2269601404       -2.1270274158  MEMB      87              0.0000000000
     10119        87  SAPE      H17X           19.1835061905       22.5066920145       -2.6710751550  MEMB      87              0.0000000000
     10120        87  SAPE      H17Y           17.5388967008       23.0452268818       -2.5825620941  MEMB      87              0.0000000000
     10121        87  SAPE      C318           18.3484952220       22.9822668967       -0.6440415849  MEMB      87              0.0000000000
     10122        87  SAPE      H18X           19.3515705798       22.8022811317       -0.2015868633  MEMB      87              0.0000000000
     10123        87  SAPE      H18Y           17.7514832009       22.0947019896       -0.3438315524  MEMB      87              0.0000000000
     10124        87  SAPE      H18Z           17.9196651583       23.8909164298       -0.1699289696  MEMB      87              0.0000000000
     10125        88  CHL1      C3            -20.9216241257      -16.5299617799      -17.2789750000  MEMB      88              0.0000000000
     10126        88  CHL1      H3            -20.4280702983      -17.4804638176      -16.9835550000  MEMB      88              0.0000000000
     10127        88  CHL1      O3            -21.0348296743      -16.4918426201      -18.7210250000  MEMB      88              0.0000000000
     10128        88  CHL1      H3'           -21.2824788538      -15.5689264685      -18.8132150000  MEMB      88              0.0000000000
     10129        88  CHL1      C4            -22.3388128694      -16.3845525347      -16.7595450000  MEMB      88              0.0000000000
     10130        88  CHL1      H4A           -22.9156614805      -15.4861918771      -17.0669950000  MEMB      88              0.0000000000
     10131        88  CHL1      H4B           -22.8944020837      -17.2402847552      -17.1992850000  MEMB      88              0.0000000000
     10132        88  CHL1      C5            -22.2791723315      -16.3574199503      -15.2507950000  MEMB      88              0.0000000000
     10133        88  CHL1      C6            -22.8836648873      -17.2512154969      -14.4517850000  MEMB      88              0.0000000000
     10134        88  CHL1      H6            -23.6721549463      -17.8955928837      -14.8677850000  MEMB      88              0.0000000000
     10135        88  CHL1      C7            -22.8121085912      -17.2057171289      -12.9341550000  MEMB      88              0.0000000000
     10136        88  CHL1      H7A           -23.8321225920      -17.3511875214      -12.5185450000  MEMB      88              0.0000000000
     10137        88  CHL1      H7B           -22.1194982692      -17.9810967966      -12.5425050000  MEMB      88              0.0000000000
     10138        88  CHL1      C8            -22.2956293831      -15.8612463897      -12.3284850000  MEMB      88              0.0000000000
     10139        88  CHL1      H8            -23.1287375277      -15.1262992317      -12.3383650000  MEMB      88              0.0000000000
     10140        88  CHL1      C14           -21.9391903795      -16.0409048859      -10.9302250000  MEMB      88              0.0000000000
     10141        88  CHL1      H14           -21.1660815015      -16.8299845749      -10.8120550000  MEMB      88              0.0000000000
     10142        88  CHL1      C15           -23.0146381069      -16.4390271020       -9.9043450000  MEMB      88              0.0000000000
     10143        88  CHL1      H15A          -23.9378692431      -15.8733762939      -10.1533850000  MEMB      88              0.0000000000
     10144        88  CHL1      H15B          -23.2040758340      -17.5297511780       -9.9978550000  MEMB      88              0.0000000000
     10145        88  CHL1      C16           -22.3744707574      -16.2763804463       -8.5207750000  MEMB      88              0.0000000000
     10146        88  CHL1      H16A          -23.1052343775      -15.7750700550       -7.8507050000  MEMB      88              0.0000000000
     10147        88  CHL1      H16B          -22.2523579253      -17.2437130825       -7.9881650000  MEMB      88              0.0000000000
     10148        88  CHL1      C17           -21.0796842066      -15.3957857686       -8.8678650000  MEMB      88              0.0000000000
     10149        88  CHL1      H17           -20.2685547805      -16.1336770104       -9.0464950000  MEMB      88              0.0000000000
     10150        88  CHL1      C13           -21.3523382001      -14.8062049493      -10.1948950000  MEMB      88              0.0000000000
     10151        88  CHL1      C18           -22.3990333065      -13.6642018311      -10.0359150000  MEMB      88              0.0000000000
     10152        88  CHL1      H18A          -21.9282415381      -12.7592098362       -9.5958350000  MEMB      88              0.0000000000
     10153        88  CHL1      H18B          -22.6854401401      -13.2479256609      -11.0253650000  MEMB      88              0.0000000000
     10154        88  CHL1      H18C          -23.2192175687      -13.9912602631       -9.3616450000  MEMB      88              0.0000000000
     10155        88  CHL1      C12           -20.0944263498      -14.3924961214      -10.9026550000  MEMB      88              0.0000000000
     10156        88  CHL1      H12A          -19.7029295584      -13.4083962594      -10.5670750000  MEMB      88              0.0000000000
     10157        88  CHL1      H12B          -19.3501194368      -15.1953539565      -10.7136050000  MEMB      88              0.0000000000
     10158        88  CHL1      C11           -20.3005692580      -14.2524708007      -12.4577850000  MEMB      88              0.0000000000
     10159        88  CHL1      H11A          -20.8968981829      -13.3217509624      -12.5693950000  MEMB      88              0.0000000000
     10160        88  CHL1      H11B          -19.3026660722      -14.0811034612      -12.9151050000  MEMB      88              0.0000000000
     10161        88  CHL1      C9            -21.0378609263      -15.4589707607      -13.1343750000  MEMB      88              0.0000000000
     10162        88  CHL1      H9            -20.3319273691      -16.3145981587      -13.0720950000  MEMB      88              0.0000000000
     10163        88  CHL1      C10           -21.3455166635      -15.2992755840      -14.6162950000  MEMB      88              0.0000000000
     10164        88  CHL1      C19           -21.9327303385      -13.8581087871      -14.7830250000  MEMB      88              0.0000000000
     10165        88  CHL1      H19A          -21.1972604882      -13.0300967971      -14.6947050000  MEMB      88              0.0000000000
     10166        88  CHL1      H19B          -22.6062125234      -13.7495913843      -15.6599350000  MEMB      88              0.0000000000
     10167        88  CHL1      H19C          -22.6864778855      -13.6948982024      -13.9833050000  MEMB      88              0.0000000000
     10168        88  CHL1      C1            -19.9348864385      -15.2839791284      -15.3426750000  MEMB      88              0.0000000000
     10169        88  CHL1      H1A           -19.4309318138      -14.3011716450      -15.2224550000  MEMB      88              0.0000000000
     10170        88  CHL1      H1B           -19.1899356032      -16.0474928336      -15.0321650000  MEMB      88              0.0000000000
     10171        88  CHL1      C2            -19.9945897271      -15.3556572599      -16.9201550000  MEMB      88              0.0000000000
     10172        88  CHL1      H2A           -18.9894310960      -15.5244856433      -17.3622650000  MEMB      88              0.0000000000
     10173        88  CHL1      H2B           -20.3590574113      -14.3983239680      -17.3502750000  MEMB      88              0.0000000000
     10174        88  CHL1      C20           -20.6438982758      -14.5041814521       -7.6221550000  MEMB      88              0.0000000000
     10175        88  CHL1      H20           -21.3874463755      -13.7204683997       -7.3628250000  MEMB      88              0.0000000000
     10176        88  CHL1      C21           -19.2481284547      -13.7180874429       -7.8386950000  MEMB      88              0.0000000000
     10177        88  CHL1      H21A          -19.2952413506      -12.9104106570       -8.6001150000  MEMB      88              0.0000000000
     10178        88  CHL1      H21B          -18.5635033863      -14.5009681055       -8.2294850000  MEMB      88              0.0000000000
     10179        88  CHL1      H21C          -18.8068267905      -13.3281148695       -6.8966250000  MEMB      88              0.0000000000
     10180        88  CHL1      C22           -20.4524163076      -15.4477101190       -6.4952350000  MEMB      88              0.0000000000
     10181        88  CHL1      H22A          -21.1177456731      -16.3312503116       -6.6001150000  MEMB      88              0.0000000000
     10182        88  CHL1      H22B          -19.4117030880      -15.8244009306       -6.5919150000  MEMB      88              0.0000000000
     10183        88  CHL1      C23           -20.6622387519      -14.7378560349       -5.1697150000  MEMB      88              0.0000000000
     10184        88  CHL1      H23A          -20.5042274136      -13.6392896009       -5.2197750000  MEMB      88              0.0000000000
     10185        88  CHL1      H23B          -21.7403975258      -14.8619709186       -4.9320250000  MEMB      88              0.0000000000
     10186        88  CHL1      C24           -19.8024048974      -15.1797392639       -3.9387950000  MEMB      88              0.0000000000
     10187        88  CHL1      H24A          -18.7954031011      -14.8698382624       -4.2912650000  MEMB      88              0.0000000000
     10188        88  CHL1      H24B          -20.0726300242      -14.5077801076       -3.0963250000  MEMB      88              0.0000000000
     10189        88  CHL1      C25           -19.9465696343      -16.6349722030       -3.5450950000  MEMB      88              0.0000000000
     10190        88  CHL1      H25           -19.7351884972      -17.2602865622       -4.4387450000  MEMB      88              0.0000000000
     10191        88  CHL1      C26           -19.1325479754      -17.1461106450       -2.3348550000  MEMB      88              0.0000000000
     10192        88  CHL1      H26A          -19.3778451666      -18.1857226757       -2.0293250000  MEMB      88              0.0000000000
     10193        88  CHL1      H26B          -18.0484558093      -17.0949080419       -2.5724750000  MEMB      88              0.0000000000
     10194        88  CHL1      H26C          -19.1908140984      -16.4226257117       -1.4937250000  MEMB      88              0.0000000000
     10195        88  CHL1      C27           -21.4187787271      -17.0787731140       -3.2268650000  MEMB      88              0.0000000000
     10196        88  CHL1      H27A          -22.0315774707      -16.6219410176       -4.0331650000  MEMB      88              0.0000000000
     10197        88  CHL1      H27B          -21.4892586422      -18.1711846333       -3.0372050000  MEMB      88              0.0000000000
     10198        88  CHL1      H27C          -21.7251458880      -16.7153075283       -2.2226950000  MEMB      88              0.0000000000
     10199        89  SLPC      N             -26.5429960557      -12.4218002511      -18.0131294923  MEMB      89              0.0000000000
     10200        89  SLPC      C13           -26.3530040712      -12.8140355765      -16.5670895419  MEMB      89              0.0000000000
     10201        89  SLPC      H13A          -25.5037890005      -12.3047639576      -16.1359560520  MEMB      89              0.0000000000
     10202        89  SLPC      H13B          -27.1913179559      -12.3773768600      -16.0446348255  MEMB      89              0.0000000000
     10203        89  SLPC      H13C          -26.3926882536      -13.8914886360      -16.6297026447  MEMB      89              0.0000000000
     10204        89  SLPC      C14           -27.9555036338      -12.7808877616      -18.3317669837  MEMB      89              0.0000000000
     10205        89  SLPC      H14A          -28.1143142952      -13.8490377814      -18.3470849012  MEMB      89              0.0000000000
     10206        89  SLPC      H14B          -28.6237786782      -12.3124125958      -17.6244201372  MEMB      89              0.0000000000
     10207        89  SLPC      H14C          -28.2401456725      -12.4669943393      -19.3251702346  MEMB      89              0.0000000000
     10208        89  SLPC      C15           -25.6158594568      -13.2446727620      -18.8627214526  MEMB      89              0.0000000000
     10209        89  SLPC      H15A          -25.8680604906      -12.9066942559      -19.8569877829  MEMB      89              0.0000000000
     10210        89  SLPC      H15B          -24.5982336808      -12.9801710516      -18.6159896471  MEMB      89              0.0000000000
     10211        89  SLPC      H15C          -25.8591700624      -14.2941737214      -18.7869091634  MEMB      89              0.0000000000
     10212        89  SLPC      C12           -26.2568806740      -10.9375683762      -18.2798328260  MEMB      89              0.0000000000
     10213        89  SLPC      H12A          -26.9844648078      -10.4873920129      -17.6207709733  MEMB      89              0.0000000000
     10214        89  SLPC      H12B          -26.5481869822      -10.7915377439      -19.3095007519  MEMB      89              0.0000000000
     10215        89  SLPC      C11           -24.8472176228      -10.3745237127      -17.9920910263  MEMB      89              0.0000000000
     10216        89  SLPC      H11A          -24.7662106453       -9.4221067866      -18.5583602414  MEMB      89              0.0000000000
     10217        89  SLPC      H11B          -24.0292420260      -10.9698934222      -18.4511898641  MEMB      89              0.0000000000
     10218        89  SLPC      P             -24.8892109257       -8.8210010003      -15.7943720034  MEMB      89              0.0000000000
     10219        89  SLPC      O13           -23.9442450724       -7.7575347786      -16.2370078560  MEMB      89              0.0000000000
     10220        89  SLPC      O14           -26.3050256880       -8.4578138362      -15.9867734650  MEMB      89              0.0000000000
     10221        89  SLPC      O12           -24.6092369256      -10.2243678896      -16.6281238878  MEMB      89              0.0000000000
     10222        89  SLPC      O11           -24.6479649193       -9.2356663777      -14.3070914486  MEMB      89              0.0000000000
     10223        89  SLPC      C1            -24.8040588442      -10.5814751409      -13.8839042489  MEMB      89              0.0000000000
     10224        89  SLPC      HA            -25.8153119100      -11.0314941533      -13.9796704195  MEMB      89              0.0000000000
     10225        89  SLPC      HB            -24.1297859823      -11.3332722933      -14.3470221118  MEMB      89              0.0000000000
     10226        89  SLPC      C2            -24.5034432893      -10.6688724054      -12.3588717059  MEMB      89              0.0000000000
     10227        89  SLPC      HS            -25.0064222754      -11.5933982095      -12.0030835907  MEMB      89              0.0000000000
     10228        89  SLPC      O21           -24.9708281078       -9.5184344959      -11.6637889128  MEMB      89              0.0000000000
     10229        89  SLPC      C21           -26.2848506811       -9.2546999120      -11.6684007747  MEMB      89              0.0000000000
     10230        89  SLPC      O22           -27.1251126763       -9.7163298623      -12.4191615901  MEMB      89              0.0000000000
     10231        89  SLPC      C22           -26.5169795584       -8.2430495080      -10.6418114159  MEMB      89              0.0000000000
     10232        89  SLPC      H2R           -25.5454837605       -7.7454837956      -10.4345790667  MEMB      89              0.0000000000
     10233        89  SLPC      H2S           -27.1668933747       -7.3986861363      -10.9564276091  MEMB      89              0.0000000000
     10234        89  SLPC      C3            -23.0491076183      -10.8924740640      -12.0024603293  MEMB      89              0.0000000000
     10235        89  SLPC      HX            -22.3258737052      -10.1267072942      -12.3558083973  MEMB      89              0.0000000000
     10236        89  SLPC      HY            -22.6642608284      -11.8017406840      -12.5118208321  MEMB      89              0.0000000000
     10237        89  SLPC      O31           -22.8087440186      -10.9357716714      -10.5973305203  MEMB      89              0.0000000000
     10238        89  SLPC      C31           -22.8458024939      -12.1663801322      -10.0439438256  MEMB      89              0.0000000000
     10239        89  SLPC      O32           -23.4223180849      -13.1030042108      -10.4689202123  MEMB      89              0.0000000000
     10240        89  SLPC      C32           -22.2805509455      -12.0916518462       -8.5820414456  MEMB      89              0.0000000000
     10241        89  SLPC      H2X           -21.3043813292      -11.5613246945       -8.5949827530  MEMB      89              0.0000000000
     10242        89  SLPC      H2Y           -22.0340619112      -13.0996963175       -8.1852916681  MEMB      89              0.0000000000
     10243        89  SLPC      C23           -27.0809914676       -8.8957591861       -9.3904626451  MEMB      89              0.0000000000
     10244        89  SLPC      H3R           -26.3843770477       -9.6334459073       -8.9378393762  MEMB      89              0.0000000000
     10245        89  SLPC      H3S           -28.0644893501       -9.2771739580       -9.7391398093  MEMB      89              0.0000000000
     10246        89  SLPC      C24           -27.4277476528       -7.8588877719       -8.2751466305  MEMB      89              0.0000000000
     10247        89  SLPC      H4R           -27.8961808747       -6.9760796438       -8.7604729804  MEMB      89              0.0000000000
     10248        89  SLPC      H4S           -26.4714746214       -7.5293458882       -7.8155111473  MEMB      89              0.0000000000
     10249        89  SLPC      C25           -28.3223777921       -8.6072383196       -7.2339589249  MEMB      89              0.0000000000
     10250        89  SLPC      H5R           -28.0550424107       -9.6772005486       -7.3682495453  MEMB      89              0.0000000000
     10251        89  SLPC      H5S           -29.3553754442       -8.4992569354       -7.6283915088  MEMB      89              0.0000000000
     10252        89  SLPC      C26           -27.9994473773       -8.2326600145       -5.7561177592  MEMB      89              0.0000000000
     10253        89  SLPC      H6R           -28.0951480855       -7.1387046085       -5.5875249663  MEMB      89              0.0000000000
     10254        89  SLPC      H6S           -26.9131617560       -8.4435195683       -5.6569066537  MEMB      89              0.0000000000
     10255        89  SLPC      C27           -28.8938571932       -9.0786425090       -4.7929529464  MEMB      89              0.0000000000
     10256        89  SLPC      H7R           -28.8910967640      -10.1297174452       -5.1528907058  MEMB      89              0.0000000000
     10257        89  SLPC      H7S           -29.9434653286       -8.7246999315       -4.8787896389  MEMB      89              0.0000000000
     10258        89  SLPC      C28           -28.3807482399       -9.1140357087       -3.3520880097  MEMB      89              0.0000000000
     10259        89  SLPC      H8R           -27.3090077317       -9.3816606797       -3.4707068595  MEMB      89              0.0000000000
     10260        89  SLPC      H8S           -28.8674138721       -9.9122823289       -2.7518553346  MEMB      89              0.0000000000
     10261        89  SLPC      C29           -28.4433359483       -7.7398672001       -2.7034486191  MEMB      89              0.0000000000
     10262        89  SLPC      H9R           -29.4259423556       -7.2898964015       -2.9084136228  MEMB      89              0.0000000000
     10263        89  SLPC      C210          -27.4610611243       -7.0911359150       -2.1141433553  MEMB      89              0.0000000000
     10264        89  SLPC      H10R          -27.5416780706       -6.0612839431       -1.7361141215  MEMB      89              0.0000000000
     10265        89  SLPC      C211          -26.0187167513       -7.5500788188       -1.9351354738  MEMB      89              0.0000000000
     10266        89  SLPC      H11R          -25.4299952137       -6.6842019433       -2.3065999148  MEMB      89              0.0000000000
     10267        89  SLPC      H11S          -25.8246833520       -8.4582003397       -2.5450437189  MEMB      89              0.0000000000
     10268        89  SLPC      C212          -25.4539558497       -7.8120328019       -0.5564874832  MEMB      89              0.0000000000
     10269        89  SLPC      H12R          -24.5501549901       -7.2551060232       -0.2684300111  MEMB      89              0.0000000000
     10270        89  SLPC      C213          -26.0109970667       -8.6356951846        0.2636659701  MEMB      89              0.0000000000
     10271        89  SLPC      H13R          -25.5642223947       -8.6529797604        1.2687010159  MEMB      89              0.0000000000
     10272        89  SLPC      C214          -27.2381653724       -9.5355114861        0.1691924200  MEMB      89              0.0000000000
     10273        89  SLPC      H14R          -27.1469785652      -10.4482397270        0.7960362540  MEMB      89              0.0000000000
     10274        89  SLPC      H14S          -27.3322090860      -10.0338782784       -0.8192959396  MEMB      89              0.0000000000
     10275        89  SLPC      C215          -28.6210250420       -8.9498627050        0.5445679768  MEMB      89              0.0000000000
     10276        89  SLPC      H15R          -29.4121523397       -9.6580979056        0.2177013014  MEMB      89              0.0000000000
     10277        89  SLPC      H15S          -28.7408099483       -8.0193371578       -0.0504922999  MEMB      89              0.0000000000
     10278        89  SLPC      C216          -28.8226186195       -8.4660242683        1.9425489016  MEMB      89              0.0000000000
     10279        89  SLPC      H16R          -29.8332738762       -8.1004146163        2.2240222528  MEMB      89              0.0000000000
     10280        89  SLPC      H16S          -28.1663165905       -7.5882526453        2.1244987270  MEMB      89              0.0000000000
     10281        89  SLPC      C217          -28.3884220663       -9.5031464573        3.0386282529  MEMB      89              0.0000000000
     10282        89  SLPC      H17R          -28.3797625085       -9.1016893628        4.0745237486  MEMB      89              0.0000000000
     10283        89  SLPC      H17S          -27.3089539402       -9.7443693122        2.9343165101  MEMB      89              0.0000000000
     10284        89  SLPC      C218          -29.1789457573      -10.8081599251        2.8813041855  MEMB      89              0.0000000000
     10285        89  SLPC      H18R          -28.8160511928      -11.5396621384        3.6346519545  MEMB      89              0.0000000000
     10286        89  SLPC      H18S          -29.0975643859      -11.2480567486        1.8643544225  MEMB      89              0.0000000000
     10287        89  SLPC      H18T          -30.2588477346      -10.5516202857        2.9294691546  MEMB      89              0.0000000000
     10288        89  SLPC      C33           -23.1777815912      -11.3059478876       -7.5777975694  MEMB      89              0.0000000000
     10289        89  SLPC      H3X           -23.5596065567      -10.3824715241       -8.0633094079  MEMB      89              0.0000000000
     10290        89  SLPC      H3Y           -22.4820536814      -11.0857287078       -6.7400701618  MEMB      89              0.0000000000
     10291        89  SLPC      C34           -24.2860321926      -12.2290220984       -7.0200935609  MEMB      89              0.0000000000
     10292        89  SLPC      H4X           -23.8613450309      -13.2531197063       -7.0921052050  MEMB      89              0.0000000000
     10293        89  SLPC      H4Y           -25.0525279382      -12.2504953456       -7.8240490745  MEMB      89              0.0000000000
     10294        89  SLPC      C35           -24.7485220464      -11.8987817214       -5.5947856075  MEMB      89              0.0000000000
     10295        89  SLPC      H5X           -25.3874387840      -10.9902579346       -5.6210694173  MEMB      89              0.0000000000
     10296        89  SLPC      H5Y           -23.8081062304      -11.7584506862       -5.0201144688  MEMB      89              0.0000000000
     10297        89  SLPC      C36           -25.5796093836      -12.9723902738       -4.8286481049  MEMB      89              0.0000000000
     10298        89  SLPC      H6X           -25.0529280427      -13.9489138721       -4.8863534582  MEMB      89              0.0000000000
     10299        89  SLPC      H6Y           -26.4663502344      -13.1723180914       -5.4674285281  MEMB      89              0.0000000000
     10300        89  SLPC      C37           -25.9001625253      -12.6288970475       -3.3754234517  MEMB      89              0.0000000000
     10301        89  SLPC      H7X           -26.7761592257      -13.2416568905       -3.0729730445  MEMB      89              0.0000000000
     10302        89  SLPC      H7Y           -26.0963081953      -11.5369961044       -3.3154211575  MEMB      89              0.0000000000
     10303        89  SLPC      C38           -24.8040114687      -13.0193153299       -2.3917737271  MEMB      89              0.0000000000
     10304        89  SLPC      H8X           -23.8543915754      -12.4435012086       -2.3604494078  MEMB      89              0.0000000000
     10305        89  SLPC      H8Y           -24.5601796156      -14.0762342883       -2.6321686777  MEMB      89              0.0000000000
     10306        89  SLPC      C39           -25.3361981695      -12.8632638690       -0.9880200392  MEMB      89              0.0000000000
     10307        89  SLPC      H9X           -26.3882319165      -13.1703946957       -0.8057661922  MEMB      89              0.0000000000
     10308        89  SLPC      H9Y           -25.1593538197      -11.8173043151       -0.6578456076  MEMB      89              0.0000000000
     10309        89  SLPC      C310          -24.5083044993      -13.6436947727        0.0288128245  MEMB      89              0.0000000000
     10310        89  SLPC      H10X          -23.4234025279      -13.4083073759        0.0724178517  MEMB      89              0.0000000000
     10311        89  SLPC      H10Y          -24.6412162253      -14.7293225070       -0.1662972239  MEMB      89              0.0000000000
     10312        89  SLPC      C311          -24.9123852597      -13.4729121776        1.4958982375  MEMB      89              0.0000000000
     10313        89  SLPC      H11X          -24.2825600499      -14.2189938539        2.0259960171  MEMB      89              0.0000000000
     10314        89  SLPC      H11Y          -25.9661493889      -13.7598781331        1.6997446458  MEMB      89              0.0000000000
     10315        89  SLPC      C312          -24.5584736823      -12.0529204469        1.9985123702  MEMB      89              0.0000000000
     10316        89  SLPC      H12X          -25.0915636211      -11.2433335145        1.4556448942  MEMB      89              0.0000000000
     10317        89  SLPC      H12Y          -23.4847529577      -11.7980917340        1.8700314109  MEMB      89              0.0000000000
     10318        89  SLPC      C313          -24.9364151036      -11.8994342444        3.4566879183  MEMB      89              0.0000000000
     10319        89  SLPC      H13X          -24.4393752408      -12.6742411521        4.0787389425  MEMB      89              0.0000000000
     10320        89  SLPC      H13Y          -26.0434013302      -11.9650803093        3.5244617001  MEMB      89              0.0000000000
     10321        89  SLPC      C314          -24.6070500629      -10.4387583573        4.0374062014  MEMB      89              0.0000000000
     10322        89  SLPC      H14X          -25.1549947349      -10.1657692668        4.9645286894  MEMB      89              0.0000000000
     10323        89  SLPC      H14Y          -24.9221691876       -9.7177856589        3.2530475290  MEMB      89              0.0000000000
     10324        89  SLPC      C315          -23.1649873218      -10.1587129880        4.5414926177  MEMB      89              0.0000000000
     10325        89  SLPC      H15X          -22.4398501619      -10.9911333546        4.4166994643  MEMB      89              0.0000000000
     10326        89  SLPC      H15Y          -23.1598077448      -10.0219127166        5.6440244106  MEMB      89              0.0000000000
     10327        89  SLPC      C316          -22.6440914656       -8.8702482123        3.9532842886  MEMB      89              0.0000000000
     10328        89  SLPC      H16X          -21.7948020435       -8.5286242325        4.5828245396  MEMB      89              0.0000000000
     10329        89  SLPC      H16Y          -23.2754359772       -8.0107094727        4.2646005853  MEMB      89              0.0000000000
     10330        89  SLPC      C317          -22.1768047426       -8.8184779413        2.4912706561  MEMB      89              0.0000000000
     10331        89  SLPC      H17X          -23.1134763333       -8.9409983296        1.9065001184  MEMB      89              0.0000000000
     10332        89  SLPC      H17Y          -21.3743500025       -9.5425381845        2.2341249486  MEMB      89              0.0000000000
     10333        89  SLPC      C318          -21.6804958402       -7.4643998441        2.0907495707  MEMB      89              0.0000000000
     10334        89  SLPC      H18X          -21.3593155110       -7.3169955015        1.0374513905  MEMB      89              0.0000000000
     10335        89  SLPC      H18Y          -20.8859174802       -7.1214806919        2.7874364978  MEMB      89              0.0000000000
     10336        89  SLPC      H18Z          -22.4709478287       -6.6840644374        2.0666068289  MEMB      89              0.0000000000
     10337        90  SAPC      N              13.1908358318      -25.7511473032      -21.9685209013  MEMB      90              0.0000000000
     10338        90  SAPC      C12            14.0822338471      -24.6487254408      -21.3906156650  MEMB      90              0.0000000000
     10339        90  SAPC      H12A           14.0521456484      -23.8729170456      -22.1413594282  MEMB      90              0.0000000000
     10340        90  SAPC      H12B           15.1071696799      -24.9821977384      -21.3220372307  MEMB      90              0.0000000000
     10341        90  SAPC      C13            11.8147699199      -25.2637255518      -21.8699587665  MEMB      90              0.0000000000
     10342        90  SAPC      H13A           11.4516871452      -25.2466348744      -20.8529637059  MEMB      90              0.0000000000
     10343        90  SAPC      H13B           11.6328119832      -24.2476682256      -22.1876360836  MEMB      90              0.0000000000
     10344        90  SAPC      H13C           11.1987964804      -25.9819834151      -22.3906144359  MEMB      90              0.0000000000
     10345        90  SAPC      C14            13.3856251890      -26.0473045032      -23.4720887444  MEMB      90              0.0000000000
     10346        90  SAPC      H14A           14.4303750311      -26.3162408804      -23.5227943118  MEMB      90              0.0000000000
     10347        90  SAPC      H14B           12.6997698083      -26.8452501332      -23.7155747691  MEMB      90              0.0000000000
     10348        90  SAPC      H14C           13.2277500022      -25.0822449050      -23.9304939003  MEMB      90              0.0000000000
     10349        90  SAPC      C15            13.1894567795      -26.9837463251      -21.1526644108  MEMB      90              0.0000000000
     10350        90  SAPC      H15A           12.2851816003      -27.4823820339      -21.4689693717  MEMB      90              0.0000000000
     10351        90  SAPC      H15B           14.0920336667      -27.5470041338      -21.3383944342  MEMB      90              0.0000000000
     10352        90  SAPC      H15C           13.1212902733      -26.8232126302      -20.0868397435  MEMB      90              0.0000000000
     10353        90  SAPC      C11            13.6741843094      -23.8536884733      -20.0856684057  MEMB      90              0.0000000000
     10354        90  SAPC      H11A           12.9364210243      -23.0740863055      -20.3724555444  MEMB      90              0.0000000000
     10355        90  SAPC      H11B           14.6645807952      -23.4278631197      -19.8171378902  MEMB      90              0.0000000000
     10356        90  SAPC      P              12.2925363201      -24.2483809720      -17.9870728211  MEMB      90              0.0000000000
     10357        90  SAPC      O13            11.4218807623      -23.1996901308      -18.5527727431  MEMB      90              0.0000000000
     10358        90  SAPC      O14            11.5413222991      -25.4177871868      -17.4173617742  MEMB      90              0.0000000000
     10359        90  SAPC      O12            13.2273869515      -24.8391857020      -19.0862213797  MEMB      90              0.0000000000
     10360        90  SAPC      O11            13.3744115151      -23.6066520566      -17.0170543875  MEMB      90              0.0000000000
     10361        90  SAPC      C1             13.6223642617      -22.2027121521      -17.0180267012  MEMB      90              0.0000000000
     10362        90  SAPC      HA             13.9122490528      -21.8757919079      -18.0395016776  MEMB      90              0.0000000000
     10363        90  SAPC      HB             12.7465393142      -21.6606834222      -16.6015455401  MEMB      90              0.0000000000
     10364        90  SAPC      C2             14.7774516306      -21.8300731570      -16.0442911784  MEMB      90              0.0000000000
     10365        90  SAPC      HS             15.1304992015      -20.7772438425      -16.0793482907  MEMB      90              0.0000000000
     10366        90  SAPC      O21            15.8739453309      -22.7280870383      -16.2533436710  MEMB      90              0.0000000000
     10367        90  SAPC      C21            16.9435769398      -22.3532412572      -15.4795832943  MEMB      90              0.0000000000
     10368        90  SAPC      O22            17.0725495809      -21.3797468805      -14.7184261682  MEMB      90              0.0000000000
     10369        90  SAPC      C22            17.9390279727      -23.5326969833      -15.5061751687  MEMB      90              0.0000000000
     10370        90  SAPC      H2R            17.4257096599      -24.4454895027      -15.8771673527  MEMB      90              0.0000000000
     10371        90  SAPC      H2S            18.7227749874      -23.3519245585      -16.2725842598  MEMB      90              0.0000000000
     10372        90  SAPC      C3             14.0863873911      -21.9884478348      -14.5604715426  MEMB      90              0.0000000000
     10373        90  SAPC      HX             13.1859671475      -21.3413298346      -14.6297727542  MEMB      90              0.0000000000
     10374        90  SAPC      HY             14.6457493808      -21.5529141200      -13.7050501121  MEMB      90              0.0000000000
     10375        90  SAPC      O31            13.9174697723      -23.4050020850      -14.2987894288  MEMB      90              0.0000000000
     10376        90  SAPC      C31            13.1478197936      -23.6313454152      -13.1899582247  MEMB      90              0.0000000000
     10377        90  SAPC      O32            12.5411359314      -22.7826589184      -12.6099834566  MEMB      90              0.0000000000
     10378        90  SAPC      C32            12.9010694589      -25.1562939666      -12.9671830077  MEMB      90              0.0000000000
     10379        90  SAPC      H2X            13.8418264241      -25.7319381876      -13.1010897164  MEMB      90              0.0000000000
     10380        90  SAPC      H2Y            12.2266336894      -25.4123608364      -13.8121013729  MEMB      90              0.0000000000
     10381        90  SAPC      C23            18.5348634874      -23.8488409304      -14.0762268171  MEMB      90              0.0000000000
     10382        90  SAPC      H3R            18.9555345107      -22.9090699478      -13.6588694196  MEMB      90              0.0000000000
     10383        90  SAPC      H3S            19.3942684218      -24.5299562422      -14.2546255513  MEMB      90              0.0000000000
     10384        90  SAPC      C24            17.4895914967      -24.5113801972      -13.2257907407  MEMB      90              0.0000000000
     10385        90  SAPC      H4R            17.0420473214      -25.3544929192      -13.7942852992  MEMB      90              0.0000000000
     10386        90  SAPC      H4S            16.6393607544      -23.8144294484      -13.0655144159  MEMB      90              0.0000000000
     10387        90  SAPC      C25            18.0479418242      -25.0262452188      -11.9188177667  MEMB      90              0.0000000000
     10388        90  SAPC      H5R            18.2741966110      -26.0878943112      -12.0968904734  MEMB      90              0.0000000000
     10389        90  SAPC      C26            18.3232689195      -24.4060269580      -10.8124749369  MEMB      90              0.0000000000
     10390        90  SAPC      H6R            18.6858461802      -25.0120325396       -9.9690927967  MEMB      90              0.0000000000
     10391        90  SAPC      C27            18.1065515563      -22.9072014138      -10.5631440472  MEMB      90              0.0000000000
     10392        90  SAPC      H7R            18.2637430149      -22.3247509832      -11.4960770364  MEMB      90              0.0000000000
     10393        90  SAPC      H7S            18.8983187369      -22.6193104212       -9.8388891647  MEMB      90              0.0000000000
     10394        90  SAPC      C28            16.7337651286      -22.6195212107       -9.9766860373  MEMB      90              0.0000000000
     10395        90  SAPC      H8R            16.2351039291      -21.8553494887      -10.5909976879  MEMB      90              0.0000000000
     10396        90  SAPC      C29            16.0848691153      -23.0737850802       -8.8278527161  MEMB      90              0.0000000000
     10397        90  SAPC      H9R            15.1500527703      -22.6071956941       -8.4837416311  MEMB      90              0.0000000000
     10398        90  SAPC      C210           16.6871899257      -23.9949011573       -7.8093820772  MEMB      90              0.0000000000
     10399        90  SAPC      H10R           16.6797018009      -24.9113276395       -8.4374162152  MEMB      90              0.0000000000
     10400        90  SAPC      H10S           15.9453470249      -24.1184344802       -6.9916224652  MEMB      90              0.0000000000
     10401        90  SAPC      C211           18.0742523826      -23.7888526219       -7.1262098513  MEMB      90              0.0000000000
     10402        90  SAPC      H11R           18.9053751210      -23.5952319089       -7.8202893001  MEMB      90              0.0000000000
     10403        90  SAPC      C212           18.4017821002      -23.7006646711       -5.8024326086  MEMB      90              0.0000000000
     10404        90  SAPC      H12R           19.4685281464      -23.5595433547       -5.5740958289  MEMB      90              0.0000000000
     10405        90  SAPC      C213           17.3554303302      -23.8581741103       -4.6582998570  MEMB      90              0.0000000000
     10406        90  SAPC      H13R           17.8086292311      -23.6679009542       -3.6619427078  MEMB      90              0.0000000000
     10407        90  SAPC      H13S           16.9633621407      -24.8975036620       -4.6383614169  MEMB      90              0.0000000000
     10408        90  SAPC      C214           16.1776521529      -22.8539417152       -4.6761016101  MEMB      90              0.0000000000
     10409        90  SAPC      H14R           16.5680960986      -21.8506956203       -4.9020454875  MEMB      90              0.0000000000
     10410        90  SAPC      C215           14.9495119889      -22.9117693642       -4.0578299553  MEMB      90              0.0000000000
     10411        90  SAPC      H15R           14.2765367720      -22.1038117752       -4.3807994520  MEMB      90              0.0000000000
     10412        90  SAPC      C216           14.4182786210      -24.0418170840       -3.1296997066  MEMB      90              0.0000000000
     10413        90  SAPC      H16R           14.2656600175      -24.9247531202       -3.7865494883  MEMB      90              0.0000000000
     10414        90  SAPC      H16S           13.4297550253      -23.7442377252       -2.7191031637  MEMB      90              0.0000000000
     10415        90  SAPC      C217           15.2299816285      -24.4183442369       -1.9003469436  MEMB      90              0.0000000000
     10416        90  SAPC      H17R           15.6094087927      -23.4918795702       -1.4186645201  MEMB      90              0.0000000000
     10417        90  SAPC      H17S           16.0759291737      -25.0308530083       -2.2791970600  MEMB      90              0.0000000000
     10418        90  SAPC      C218           14.5368357722      -25.3285693659       -0.9326447814  MEMB      90              0.0000000000
     10419        90  SAPC      H18R           14.0439305856      -26.1955947155       -1.4221678701  MEMB      90              0.0000000000
     10420        90  SAPC      H18S           13.6198574625      -24.8068394998       -0.5844063593  MEMB      90              0.0000000000
     10421        90  SAPC      C219           15.4653016777      -25.7775867828        0.2420853210  MEMB      90              0.0000000000
     10422        90  SAPC      H19R           15.8037603045      -24.9224454865        0.8653834887  MEMB      90              0.0000000000
     10423        90  SAPC      H19S           16.3970612740      -26.1105102823       -0.2631931832  MEMB      90              0.0000000000
     10424        90  SAPC      C220           14.8528726287      -26.7567015288        1.2590336113  MEMB      90              0.0000000000
     10425        90  SAPC      H20R           14.4291877001      -26.2331803434        2.1426280487  MEMB      90              0.0000000000
     10426        90  SAPC      H20S           15.6334558249      -27.4556333088        1.6285000277  MEMB      90              0.0000000000
     10427        90  SAPC      H20T           14.0717830244      -27.3867908915        0.7823715960  MEMB      90              0.0000000000
     10428        90  SAPC      C33            12.2515886751      -25.5095227830      -11.6301491389  MEMB      90              0.0000000000
     10429        90  SAPC      H3X            11.8577154223      -26.5448695989      -11.7152471722  MEMB      90              0.0000000000
     10430        90  SAPC      H3Y            11.4866559376      -24.7396028091      -11.3926156127  MEMB      90              0.0000000000
     10431        90  SAPC      C34            13.1725381399      -25.5675669930      -10.3991440707  MEMB      90              0.0000000000
     10432        90  SAPC      H4X            13.6834845066      -24.6082384921      -10.1690503971  MEMB      90              0.0000000000
     10433        90  SAPC      H4Y            14.0448581987      -26.2468564848      -10.5084358239  MEMB      90              0.0000000000
     10434        90  SAPC      C35            12.6096324409      -25.7728569349       -8.9371986584  MEMB      90              0.0000000000
     10435        90  SAPC      H5X            13.4857075668      -25.9367982516       -8.2739216904  MEMB      90              0.0000000000
     10436        90  SAPC      H5Y            11.9102392523      -26.6317056013       -8.8503135780  MEMB      90              0.0000000000
     10437        90  SAPC      C36            11.7810847528      -24.5653369421       -8.3404857027  MEMB      90              0.0000000000
     10438        90  SAPC      H6X            10.7451249546      -24.6531360915       -8.7321482161  MEMB      90              0.0000000000
     10439        90  SAPC      H6Y            12.1851366364      -23.5497605369       -8.5396524255  MEMB      90              0.0000000000
     10440        90  SAPC      C37            11.6824991131      -24.4887358082       -6.8309446702  MEMB      90              0.0000000000
     10441        90  SAPC      H7X            11.7358145659      -23.4139738009       -6.5546027053  MEMB      90              0.0000000000
     10442        90  SAPC      H7Y            12.4978719721      -25.0523737344       -6.3291473341  MEMB      90              0.0000000000
     10443        90  SAPC      C38            10.3960655762      -25.1345933694       -6.2684681685  MEMB      90              0.0000000000
     10444        90  SAPC      H8X            10.3632607283      -26.1876227660       -6.6211348138  MEMB      90              0.0000000000
     10445        90  SAPC      H8Y             9.4812585525      -24.7384307731       -6.7588807464  MEMB      90              0.0000000000
     10446        90  SAPC      C39            10.3448054854      -25.0750962904       -4.7569956044  MEMB      90              0.0000000000
     10447        90  SAPC      H9X            11.1961544406      -25.5833187171       -4.2557615949  MEMB      90              0.0000000000
     10448        90  SAPC      H9Y             9.4177772111      -25.6580259047       -4.5695593135  MEMB      90              0.0000000000
     10449        90  SAPC      C310           10.4179180410      -23.7114163644       -4.1439062586  MEMB      90              0.0000000000
     10450        90  SAPC      H10X            9.7668939010      -23.0638886024       -4.7693627138  MEMB      90              0.0000000000
     10451        90  SAPC      H10Y           11.4514226091      -23.3041356481       -4.1615678909  MEMB      90              0.0000000000
     10452        90  SAPC      C311            9.9513061285      -23.5672089720       -2.6891277469  MEMB      90              0.0000000000
     10453        90  SAPC      H11X           10.3795282049      -24.3109235486       -1.9835543219  MEMB      90              0.0000000000
     10454        90  SAPC      H11Y            8.8851213109      -23.8637429249       -2.5909503179  MEMB      90              0.0000000000
     10455        90  SAPC      C312           10.2497296913      -22.1199874893       -2.1121938421  MEMB      90              0.0000000000
     10456        90  SAPC      H12X            9.4134442172      -21.5647773782       -2.5883138209  MEMB      90              0.0000000000
     10457        90  SAPC      H12Y           11.1909342224      -21.8386802876       -2.6311557698  MEMB      90              0.0000000000
     10458        90  SAPC      C313           10.2802229781      -22.0311350168       -0.5953132113  MEMB      90              0.0000000000
     10459        90  SAPC      H13X            9.6122245862      -22.8755181110       -0.3212399413  MEMB      90              0.0000000000
     10460        90  SAPC      H13Y            9.9309757190      -21.0640503330       -0.1744863849  MEMB      90              0.0000000000
     10461        90  SAPC      C314           11.6924242656      -22.1451283786       -0.0754325871  MEMB      90              0.0000000000
     10462        90  SAPC      H14X           12.2650343934      -22.9988279115       -0.4969016125  MEMB      90              0.0000000000
     10463        90  SAPC      H14Y           11.6203197902      -22.3096607293        1.0209490838  MEMB      90              0.0000000000
     10464        90  SAPC      C315           12.5738741253      -20.9137708235       -0.3429661031  MEMB      90              0.0000000000
     10465        90  SAPC      H15X           12.0466762361      -20.0083944970        0.0267322211  MEMB      90              0.0000000000
     10466        90  SAPC      H15Y           12.5755688941      -20.7687851081       -1.4444641452  MEMB      90              0.0000000000
     10467        90  SAPC      C316           13.9365270795      -21.0786350352        0.2075055048  MEMB      90              0.0000000000
     10468        90  SAPC      H16X           14.4167211001      -21.8341028178       -0.4505244251  MEMB      90              0.0000000000
     10469        90  SAPC      H16Y           14.0007631899      -21.6152237561        1.1782102972  MEMB      90              0.0000000000
     10470        90  SAPC      C317           14.8022284681      -19.8299345363        0.1225311417  MEMB      90              0.0000000000
     10471        90  SAPC      H17X           14.7613351695      -19.3913145605       -0.8974010929  MEMB      90              0.0000000000
     10472        90  SAPC      H17Y           15.8115307929      -20.2472269571        0.3262400679  MEMB      90              0.0000000000
     10473        90  SAPC      C318           14.4292654658      -18.7019337823        1.0928204449  MEMB      90              0.0000000000
     10474        90  SAPC      H18X           15.0640295529      -17.8500469369        0.7677298711  MEMB      90              0.0000000000
     10475        90  SAPC      H18Y           14.8320524726      -18.8598181754        2.1161276862  MEMB      90              0.0000000000
     10476        90  SAPC      H18Z           13.3740276889      -18.3819607886        1.2285098666  MEMB      90              0.0000000000
     10477        91  CHL1      C3            -16.5729270918      -23.6616589855      -17.3083500000  MEMB      91              0.0000000000
     10478        91  CHL1      H3            -16.4845742498      -24.7664926914      -17.3848500000  MEMB      91              0.0000000000
     10479        91  CHL1      O3            -16.5295627082      -23.2214158145      -18.6916500000  MEMB      91              0.0000000000
     10480        91  CHL1      H3'           -17.3777260605      -23.5864815837      -18.9542400000  MEMB      91              0.0000000000
     10481        91  CHL1      C4            -17.8681355608      -23.2522983529      -16.6259600000  MEMB      91              0.0000000000
     10482        91  CHL1      H4A           -18.1956103931      -22.2134715881      -16.8448400000  MEMB      91              0.0000000000
     10483        91  CHL1      H4B           -18.5755700030      -23.9611570230      -17.1069700000  MEMB      91              0.0000000000
     10484        91  CHL1      C5            -17.9118103550      -23.3747841269      -15.0883100000  MEMB      91              0.0000000000
     10485        91  CHL1      C6            -18.7809718862      -24.0014664120      -14.3565800000  MEMB      91              0.0000000000
     10486        91  CHL1      H6            -19.6110213061      -24.3017728278      -15.0129600000  MEMB      91              0.0000000000
     10487        91  CHL1      C7            -18.8385839856      -24.3113175682      -12.8893500000  MEMB      91              0.0000000000
     10488        91  CHL1      H7A           -19.8824693272      -24.3642998648      -12.5127600000  MEMB      91              0.0000000000
     10489        91  CHL1      H7B           -18.4653963370      -25.3460418317      -12.7331600000  MEMB      91              0.0000000000
     10490        91  CHL1      C8            -18.0135441861      -23.2570267878      -12.1594300000  MEMB      91              0.0000000000
     10491        91  CHL1      H8            -18.4611670129      -22.2408255816      -12.1951900000  MEMB      91              0.0000000000
     10492        91  CHL1      C14           -17.8111023101      -23.5008706595      -10.6411900000  MEMB      91              0.0000000000
     10493        91  CHL1      H14           -17.1908926405      -24.4221894236      -10.6701600000  MEMB      91              0.0000000000
     10494        91  CHL1      C15           -19.0277979353      -23.7231130680       -9.7678900000  MEMB      91              0.0000000000
     10495        91  CHL1      H15A          -19.7722934188      -22.9112825090       -9.9127500000  MEMB      91              0.0000000000
     10496        91  CHL1      H15B          -19.5123705046      -24.6923274307      -10.0131000000  MEMB      91              0.0000000000
     10497        91  CHL1      C16           -18.4909191372      -23.6083627880       -8.2758000000  MEMB      91              0.0000000000
     10498        91  CHL1      H16A          -18.9937409549      -22.8005241874       -7.7023200000  MEMB      91              0.0000000000
     10499        91  CHL1      H16B          -18.5821019809      -24.6115694126       -7.8072000000  MEMB      91              0.0000000000
     10500        91  CHL1      C17           -17.0106306257      -23.1996402490       -8.3745300000  MEMB      91              0.0000000000
     10501        91  CHL1      H17           -16.5282484551      -24.2003084929       -8.3575100000  MEMB      91              0.0000000000
     10502        91  CHL1      C13           -16.9257451799      -22.5877277098       -9.7895500000  MEMB      91              0.0000000000
     10503        91  CHL1      C18           -17.5282594625      -21.1392217617       -9.8197900000  MEMB      91              0.0000000000
     10504        91  CHL1      H18A          -18.5444504322      -21.2521346996       -9.3851400000  MEMB      91              0.0000000000
     10505        91  CHL1      H18B          -16.7598617410      -20.6227300481       -9.2056900000  MEMB      91              0.0000000000
     10506        91  CHL1      H18C          -17.5463229766      -20.7320602832      -10.8533400000  MEMB      91              0.0000000000
     10507        91  CHL1      C12           -15.5602593977      -22.7101519861      -10.4823800000  MEMB      91              0.0000000000
     10508        91  CHL1      H12A          -14.9058928144      -21.9097607466      -10.0755700000  MEMB      91              0.0000000000
     10509        91  CHL1      H12B          -15.0703182055      -23.6884724406      -10.2896000000  MEMB      91              0.0000000000
     10510        91  CHL1      C11           -15.5787060620      -22.4110518560      -12.0213000000  MEMB      91              0.0000000000
     10511        91  CHL1      H11A          -15.4978128450      -21.3230673157      -12.2312400000  MEMB      91              0.0000000000
     10512        91  CHL1      H11B          -14.5599329636      -22.6938596620      -12.3625400000  MEMB      91              0.0000000000
     10513        91  CHL1      C9            -16.6127050229      -23.2275531755      -12.8730500000  MEMB      91              0.0000000000
     10514        91  CHL1      H9            -16.3206623491      -24.2989611964      -12.9062100000  MEMB      91              0.0000000000
     10515        91  CHL1      C10           -16.6833935032      -22.8040641424      -14.3364200000  MEMB      91              0.0000000000
     10516        91  CHL1      C19           -16.7422856331      -21.2716715558      -14.4410100000  MEMB      91              0.0000000000
     10517        91  CHL1      H19A          -16.9192826918      -20.8750354992      -15.4635900000  MEMB      91              0.0000000000
     10518        91  CHL1      H19B          -17.4252646863      -20.7621391519      -13.7281000000  MEMB      91              0.0000000000
     10519        91  CHL1      H19C          -15.6987249242      -20.9361774734      -14.2600600000  MEMB      91              0.0000000000
     10520        91  CHL1      C1            -15.3690641097      -23.3360526970      -15.0311000000  MEMB      91              0.0000000000
     10521        91  CHL1      H1A           -14.5144795818      -22.7774678236      -14.5929500000  MEMB      91              0.0000000000
     10522        91  CHL1      H1B           -15.2664138400      -24.4139233363      -14.7821300000  MEMB      91              0.0000000000
     10523        91  CHL1      C2            -15.3793086811      -23.0785583954      -16.5566500000  MEMB      91              0.0000000000
     10524        91  CHL1      H2A           -14.3954931437      -23.3725881186      -16.9808800000  MEMB      91              0.0000000000
     10525        91  CHL1      H2B           -15.4825312966      -21.9793252909      -16.6806200000  MEMB      91              0.0000000000
     10526        91  CHL1      C20           -16.5069366366      -22.4694459799       -7.1197400000  MEMB      91              0.0000000000
     10527        91  CHL1      H20           -17.0379962370      -21.4943053060       -7.0823800000  MEMB      91              0.0000000000
     10528        91  CHL1      C21           -15.0253364684      -22.1765681130       -7.1192800000  MEMB      91              0.0000000000
     10529        91  CHL1      H21A          -14.4028839627      -23.0804472617       -7.2921300000  MEMB      91              0.0000000000
     10530        91  CHL1      H21B          -14.6721932685      -21.6715689734       -6.1948400000  MEMB      91              0.0000000000
     10531        91  CHL1      H21C          -14.7309681570      -21.4435625900       -7.9005400000  MEMB      91              0.0000000000
     10532        91  CHL1      C22           -16.9636948832      -23.1241014260       -5.8107900000  MEMB      91              0.0000000000
     10533        91  CHL1      H22A          -18.0604389355      -23.2430624124       -5.6791600000  MEMB      91              0.0000000000
     10534        91  CHL1      H22B          -16.4267430084      -24.0584669407       -5.5406600000  MEMB      91              0.0000000000
     10535        91  CHL1      C23           -16.8350444098      -22.2323404156       -4.5443200000  MEMB      91              0.0000000000
     10536        91  CHL1      H23A          -15.8423673564      -21.7345802550       -4.5783400000  MEMB      91              0.0000000000
     10537        91  CHL1      H23B          -17.4608977790      -21.3213959058       -4.6574700000  MEMB      91              0.0000000000
     10538        91  CHL1      C24           -17.0801647743      -22.8625078608       -3.2920100000  MEMB      91              0.0000000000
     10539        91  CHL1      H24A          -18.1581632568      -23.1025854423       -3.1711500000  MEMB      91              0.0000000000
     10540        91  CHL1      H24B          -16.3714421526      -23.7174102489       -3.3265500000  MEMB      91              0.0000000000
     10541        91  CHL1      C25           -16.5044513992      -22.0837225705       -2.0762100000  MEMB      91              0.0000000000
     10542        91  CHL1      H25           -15.5635013742      -21.5900773261       -2.4006300000  MEMB      91              0.0000000000
     10543        91  CHL1      C26           -17.3474464579      -20.9386167035       -1.7095200000  MEMB      91              0.0000000000
     10544        91  CHL1      H26A          -17.6606588391      -20.3675326521       -2.6095700000  MEMB      91              0.0000000000
     10545        91  CHL1      H26B          -18.3071278452      -21.3338318202       -1.3131100000  MEMB      91              0.0000000000
     10546        91  CHL1      H26C          -16.9153760098      -20.2757167014       -0.9296500000  MEMB      91              0.0000000000
     10547        91  CHL1      C27           -16.1970981999      -22.9195030847       -0.7819500000  MEMB      91              0.0000000000
     10548        91  CHL1      H27A          -15.4372188813      -23.6876714838       -1.0404500000  MEMB      91              0.0000000000
     10549        91  CHL1      H27B          -15.9565832958      -22.3096328249        0.1150100000  MEMB      91              0.0000000000
     10550        91  CHL1      H27C          -17.1614732970      -23.4345221378       -0.5843300000  MEMB      91              0.0000000000
     10551        92  SAPE      N             -19.4170399418       23.0647635772      -21.3706806643  MEMB      92              0.0000000000
     10552        92  SAPE      HN1           -19.4606365176       22.1256298614      -21.8153460821  MEMB      92              0.0000000000
     10553        92  SAPE      HN2           -19.6656637828       23.9303560477      -21.8908113426  MEMB      92              0.0000000000
     10554        92  SAPE      HN3           -18.4716733291       23.2933159836      -21.0023794989  MEMB      92              0.0000000000
     10555        92  SAPE      C12           -20.3603688518       23.0879014794      -20.2071179450  MEMB      92              0.0000000000
     10556        92  SAPE      H12A          -21.3040412194       23.6041459946      -20.4851375873  MEMB      92              0.0000000000
     10557        92  SAPE      H12B          -19.9035521706       23.6140989012      -19.3418112248  MEMB      92              0.0000000000
     10558        92  SAPE      C11           -20.4750141784       21.6362615561      -19.6232380351  MEMB      92              0.0000000000
     10559        92  SAPE      H11A          -20.8186643917       21.0773324695      -20.5198002665  MEMB      92              0.0000000000
     10560        92  SAPE      H11B          -21.2370809496       21.6910455878      -18.8166565179  MEMB      92              0.0000000000
     10561        92  SAPE      P             -18.4924774334       19.9100234671      -19.7931799917  MEMB      92              0.0000000000
     10562        92  SAPE      O13           -19.0537731460       18.7900849092      -18.9698698241  MEMB      92              0.0000000000
     10563        92  SAPE      O14           -18.7503330565       19.9274373734      -21.2310209257  MEMB      92              0.0000000000
     10564        92  SAPE      O12           -19.1601420023       21.2127574232      -19.2409046331  MEMB      92              0.0000000000
     10565        92  SAPE      O11           -16.9800017255       20.0640934251      -19.5639879504  MEMB      92              0.0000000000
     10566        92  SAPE      C1            -15.9815618668       19.2728770809      -20.2569121016  MEMB      92              0.0000000000
     10567        92  SAPE      HA            -16.4687901198       18.2894599700      -20.4295981387  MEMB      92              0.0000000000
     10568        92  SAPE      HB            -15.6155359311       19.7665033607      -21.1824817668  MEMB      92              0.0000000000
     10569        92  SAPE      C2            -14.7953085032       19.0279674686      -19.4216218149  MEMB      92              0.0000000000
     10570        92  SAPE      HS            -14.1235198459       18.3236910197      -19.9573603057  MEMB      92              0.0000000000
     10571        92  SAPE      O21           -15.2035762435       18.5200950810      -18.1417662537  MEMB      92              0.0000000000
     10572        92  SAPE      C21           -14.3454814994       18.3269344665      -17.1378239627  MEMB      92              0.0000000000
     10573        92  SAPE      O22           -13.1426723720       18.5964046335      -17.1044454859  MEMB      92              0.0000000000
     10574        92  SAPE      C22           -15.0886017520       17.7856816950      -15.9461619229  MEMB      92              0.0000000000
     10575        92  SAPE      H2R           -15.9941623343       17.2147466450      -16.2433386549  MEMB      92              0.0000000000
     10576        92  SAPE      H2S           -14.4326094284       17.0931971218      -15.3765475097  MEMB      92              0.0000000000
     10577        92  SAPE      C3            -13.9611017642       20.2937072382      -19.2199878857  MEMB      92              0.0000000000
     10578        92  SAPE      HX            -13.9768882439       20.7060921809      -20.2514967247  MEMB      92              0.0000000000
     10579        92  SAPE      HY            -12.9061370827       20.0576905895      -18.9637314293  MEMB      92              0.0000000000
     10580        92  SAPE      O31           -14.5719703157       21.1113945554      -18.2360166466  MEMB      92              0.0000000000
     10581        92  SAPE      C31           -15.3915425005       22.1550662121      -18.5023331554  MEMB      92              0.0000000000
     10582        92  SAPE      O32           -15.5851567471       22.5162740065      -19.6349360374  MEMB      92              0.0000000000
     10583        92  SAPE      C32           -15.7107719098       22.9067892104      -17.1326051967  MEMB      92              0.0000000000
     10584        92  SAPE      H2X           -15.4318674924       23.9822113940      -17.1320904087  MEMB      92              0.0000000000
     10585        92  SAPE      H2Y           -15.1669606378       22.4061073788      -16.3032027568  MEMB      92              0.0000000000
     10586        92  SAPE      C23           -15.7039303904       18.9811512053      -15.0740635457  MEMB      92              0.0000000000
     10587        92  SAPE      H3R           -16.5723440321       18.5971881905      -14.4972176183  MEMB      92              0.0000000000
     10588        92  SAPE      H3S           -16.1749517539       19.8104060840      -15.6439723013  MEMB      92              0.0000000000
     10589        92  SAPE      C24           -14.6641329562       19.5495989526      -14.0989338553  MEMB      92              0.0000000000
     10590        92  SAPE      H4R           -15.1451742523       20.3371313157      -13.4802957759  MEMB      92              0.0000000000
     10591        92  SAPE      H4S           -13.7925249235       19.9664420736      -14.6474427522  MEMB      92              0.0000000000
     10592        92  SAPE      C25           -14.1006507639       18.5207270177      -13.2253819186  MEMB      92              0.0000000000
     10593        92  SAPE      H5R           -14.6818180761       17.6039982246      -13.0469080339  MEMB      92              0.0000000000
     10594        92  SAPE      C26           -12.8957040167       18.4713231821      -12.5659247691  MEMB      92              0.0000000000
     10595        92  SAPE      H6R           -12.5567185752       17.6105078905      -11.9708737967  MEMB      92              0.0000000000
     10596        92  SAPE      C27           -11.7524732638       19.4693394905      -12.4875729639  MEMB      92              0.0000000000
     10597        92  SAPE      H7R           -11.3102327629       19.6810820041      -13.4845229525  MEMB      92              0.0000000000
     10598        92  SAPE      H7S           -10.9468311412       18.8136840239      -12.0933915167  MEMB      92              0.0000000000
     10599        92  SAPE      C28           -12.0421044452       20.6840271737      -11.6011463400  MEMB      92              0.0000000000
     10600        92  SAPE      H8R           -12.0882286034       21.6820577169      -12.0613718387  MEMB      92              0.0000000000
     10601        92  SAPE      C29           -12.1472117226       20.6083210940      -10.2423379605  MEMB      92              0.0000000000
     10602        92  SAPE      H9R           -12.1668848215       21.5424433862       -9.6617960362  MEMB      92              0.0000000000
     10603        92  SAPE      C210          -11.9798245977       19.4409400426       -9.2319016196  MEMB      92              0.0000000000
     10604        92  SAPE      H10R          -11.2374928844       19.7406976814       -8.4615713824  MEMB      92              0.0000000000
     10605        92  SAPE      H10S          -11.5368679300       18.5627471338       -9.7485132999  MEMB      92              0.0000000000
     10606        92  SAPE      C211          -13.2313826764       18.9941838505       -8.7160468328  MEMB      92              0.0000000000
     10607        92  SAPE      H11R          -13.8797709512       18.3025443625       -9.2739238336  MEMB      92              0.0000000000
     10608        92  SAPE      C212          -13.6362134375       19.1889798743       -7.4444350971  MEMB      92              0.0000000000
     10609        92  SAPE      H12R          -14.6059370134       18.7455365445       -7.1742611217  MEMB      92              0.0000000000
     10610        92  SAPE      C213          -12.9568159269       19.9366835490       -6.2996071709  MEMB      92              0.0000000000
     10611        92  SAPE      H13R          -11.8850049703       19.6953442428       -6.1343880539  MEMB      92              0.0000000000
     10612        92  SAPE      H13S          -13.3522823865       19.5280184737       -5.3451857650  MEMB      92              0.0000000000
     10613        92  SAPE      C214          -13.2039562522       21.4373732775       -6.3290839163  MEMB      92              0.0000000000
     10614        92  SAPE      H14R          -12.6182906907       21.8696471525       -7.1537868631  MEMB      92              0.0000000000
     10615        92  SAPE      C215          -14.0870018038       22.0837044623       -5.5332932862  MEMB      92              0.0000000000
     10616        92  SAPE      H15R          -14.1964367607       23.1766833847       -5.5917860139  MEMB      92              0.0000000000
     10617        92  SAPE      C216          -15.0631638265       21.6345420602       -4.5597649335  MEMB      92              0.0000000000
     10618        92  SAPE      H16R          -15.5896199903       20.7815259144       -5.0388561335  MEMB      92              0.0000000000
     10619        92  SAPE      H16S          -15.8870956315       22.3696234382       -4.4368334338  MEMB      92              0.0000000000
     10620        92  SAPE      C217          -14.5666741171       21.3816435941       -3.1500389536  MEMB      92              0.0000000000
     10621        92  SAPE      H17R          -14.1351437693       22.3048511754       -2.7075561184  MEMB      92              0.0000000000
     10622        92  SAPE      H17S          -13.7922360622       20.5853773061       -3.1729712523  MEMB      92              0.0000000000
     10623        92  SAPE      C218          -15.6964194775       20.9242683544       -2.2303203809  MEMB      92              0.0000000000
     10624        92  SAPE      H18R          -16.0649150431       19.9305767686       -2.5636518728  MEMB      92              0.0000000000
     10625        92  SAPE      H18S          -16.5210572182       21.6589315530       -2.3509963179  MEMB      92              0.0000000000
     10626        92  SAPE      C219          -15.2560707652       20.8102189011       -0.7850423134  MEMB      92              0.0000000000
     10627        92  SAPE      H19R          -16.1289026603       20.5847457405       -0.1356984304  MEMB      92              0.0000000000
     10628        92  SAPE      H19S          -14.8267318745       21.7128877394       -0.3000907969  MEMB      92              0.0000000000
     10629        92  SAPE      C220          -14.2752727534       19.6873017110       -0.5867653790  MEMB      92              0.0000000000
     10630        92  SAPE      H20R          -14.3178651004       19.2362237501        0.4276477077  MEMB      92              0.0000000000
     10631        92  SAPE      H20S          -13.2244774040       19.9800113246       -0.7976476193  MEMB      92              0.0000000000
     10632        92  SAPE      H20T          -14.4624369690       18.9087545038       -1.3569313918  MEMB      92              0.0000000000
     10633        92  SAPE      C33           -17.2153154504       22.8537222655      -16.9045361065  MEMB      92              0.0000000000
     10634        92  SAPE      H3X           -17.6016308079       21.8700273395      -17.2472107031  MEMB      92              0.0000000000
     10635        92  SAPE      H3Y           -17.8210549235       23.4656202789      -17.6066623995  MEMB      92              0.0000000000
     10636        92  SAPE      C34           -17.8152026561       23.2691117329      -15.4964299374  MEMB      92              0.0000000000
     10637        92  SAPE      H4X           -17.4128461454       24.2865392970      -15.3033718828  MEMB      92              0.0000000000
     10638        92  SAPE      H4Y           -17.3826048552       22.5806259678      -14.7393521678  MEMB      92              0.0000000000
     10639        92  SAPE      C35           -19.3532904190       23.3240037784      -15.5564320284  MEMB      92              0.0000000000
     10640        92  SAPE      H5X           -19.6931567380       22.2791865953      -15.7212628542  MEMB      92              0.0000000000
     10641        92  SAPE      H5Y           -19.8327053083       23.8975720853      -16.3783209003  MEMB      92              0.0000000000
     10642        92  SAPE      C36           -20.0370045141       23.8027956356      -14.2564109868  MEMB      92              0.0000000000
     10643        92  SAPE      H6X           -21.0914197986       23.4536242114      -14.2810877166  MEMB      92              0.0000000000
     10644        92  SAPE      H6Y           -20.0350563283       24.9005595614      -14.0854395539  MEMB      92              0.0000000000
     10645        92  SAPE      C37           -19.3436674941       23.3114921445      -12.9228401553  MEMB      92              0.0000000000
     10646        92  SAPE      H7X           -19.7053111944       23.9714402466      -12.1055257388  MEMB      92              0.0000000000
     10647        92  SAPE      H7Y           -18.2965940933       23.6750603771      -12.8468371301  MEMB      92              0.0000000000
     10648        92  SAPE      C38           -19.3552283060       21.8382912791      -12.6675014110  MEMB      92              0.0000000000
     10649        92  SAPE      H8X           -18.8518071794       21.3276677433      -13.5161188284  MEMB      92              0.0000000000
     10650        92  SAPE      H8Y           -20.3702819886       21.3903759513      -12.6095458068  MEMB      92              0.0000000000
     10651        92  SAPE      C39           -18.6793306043       21.4645224144      -11.2741288486  MEMB      92              0.0000000000
     10652        92  SAPE      H9X           -17.6423115764       21.8631053105      -11.2674803952  MEMB      92              0.0000000000
     10653        92  SAPE      H9Y           -18.6341779489       20.3592868422      -11.1705112911  MEMB      92              0.0000000000
     10654        92  SAPE      C310          -19.3539395085       22.0530191221      -10.0250940575  MEMB      92              0.0000000000
     10655        92  SAPE      H10X          -20.3492412424       21.5898808583       -9.8542188447  MEMB      92              0.0000000000
     10656        92  SAPE      H10Y          -19.4112470845       23.1562238274      -10.1433161206  MEMB      92              0.0000000000
     10657        92  SAPE      C311          -18.4858986992       21.7499715694       -8.7455747540  MEMB      92              0.0000000000
     10658        92  SAPE      H11X          -18.9216711264       22.3645865241       -7.9290749558  MEMB      92              0.0000000000
     10659        92  SAPE      H11Y          -17.4880012502       22.2132553183       -8.9001377492  MEMB      92              0.0000000000
     10660        92  SAPE      C312          -18.4146568983       20.2952124086       -8.3481207234  MEMB      92              0.0000000000
     10661        92  SAPE      H12X          -17.8825842890       19.6216038607       -9.0534370703  MEMB      92              0.0000000000
     10662        92  SAPE      H12Y          -19.4615470251       19.9540789353       -8.1998976228  MEMB      92              0.0000000000
     10663        92  SAPE      C313          -17.8167225979       20.1042341453       -6.9093339221  MEMB      92              0.0000000000
     10664        92  SAPE      H13X          -18.2748111063       20.8691380406       -6.2464626760  MEMB      92              0.0000000000
     10665        92  SAPE      H13Y          -16.7321187134       20.2269338527       -7.1164572458  MEMB      92              0.0000000000
     10666        92  SAPE      C314          -18.0275257476       18.6922058374       -6.3771843296  MEMB      92              0.0000000000
     10667        92  SAPE      H14X          -17.9067075811       17.9655977174       -7.2089083331  MEMB      92              0.0000000000
     10668        92  SAPE      H14Y          -19.0707753694       18.5929454758       -6.0082687766  MEMB      92              0.0000000000
     10669        92  SAPE      C315          -17.1503732550       18.3469302171       -5.0569308446  MEMB      92              0.0000000000
     10670        92  SAPE      H15X          -17.0475724491       19.2799111708       -4.4625408056  MEMB      92              0.0000000000
     10671        92  SAPE      H15Y          -16.1942820219       17.8925242310       -5.3941637780  MEMB      92              0.0000000000
     10672        92  SAPE      C316          -17.7702426183       17.1080058581       -4.2508673193  MEMB      92              0.0000000000
     10673        92  SAPE      H16X          -17.0283321039       16.6906348551       -3.5369402993  MEMB      92              0.0000000000
     10674        92  SAPE      H16Y          -18.0605433716       16.2590299598       -4.9060664029  MEMB      92              0.0000000000
     10675        92  SAPE      C317          -19.1177269228       17.3331861734       -3.3911114642  MEMB      92              0.0000000000
     10676        92  SAPE      H17X          -19.4291419902       16.3466631161       -2.9860007490  MEMB      92              0.0000000000
     10677        92  SAPE      H17Y          -19.8230535907       17.5921937133       -4.2094929950  MEMB      92              0.0000000000
     10678        92  SAPE      C318          -19.1740714855       18.3261211226       -2.2149891937  MEMB      92              0.0000000000
     10679        92  SAPE      H18X          -20.1835296984       18.2450273385       -1.7581093379  MEMB      92              0.0000000000
     10680        92  SAPE      H18Y          -19.1475658287       19.3399248809       -2.6686633103  MEMB      92              0.0000000000
     10681        92  SAPE      H18Z          -18.3481707746       18.1958057934       -1.4833961821  MEMB      92              0.0000000000
     10682        93  CHL1      C3             23.1588014617      -17.0871686504      -17.3135650000  MEMB      93              0.0000000000
     10683        93  CHL1      H3             22.6892368300      -16.0833434138      -17.2350150000  MEMB      93              0.0000000000
     10684        93  CHL1      O3             23.2224355383      -17.4575983496      -18.6864350000  MEMB      93              0.0000000000
     10685        93  CHL1      H3'            23.9339869256      -16.8974876996      -19.0051250000  MEMB      93              0.0000000000
     10686        93  CHL1      C4             24.5369271701      -17.1351462700      -16.7009750000  MEMB      93              0.0000000000
     10687        93  CHL1      H4A            24.8689682280      -18.1910703086      -16.7964050000  MEMB      93              0.0000000000
     10688        93  CHL1      H4B            25.3314172816      -16.5925587055      -17.2565950000  MEMB      93              0.0000000000
     10689        93  CHL1      C5             24.5342520735      -16.8073792673      -15.2017450000  MEMB      93              0.0000000000
     10690        93  CHL1      C6             25.1470802340      -15.7807241871      -14.6652550000  MEMB      93              0.0000000000
     10691        93  CHL1      H6             25.8695213280      -15.2243263380      -15.2804750000  MEMB      93              0.0000000000
     10692        93  CHL1      C7             25.0446911818      -15.4605384215      -13.1730550000  MEMB      93              0.0000000000
     10693        93  CHL1      H7A            26.0349196817      -15.0598748403      -12.8677050000  MEMB      93              0.0000000000
     10694        93  CHL1      H7B            24.4139029262      -14.5501763643      -13.0855050000  MEMB      93              0.0000000000
     10695        93  CHL1      C8             24.6672559769      -16.6031913419      -12.2626850000  MEMB      93              0.0000000000
     10696        93  CHL1      H8             25.5920714464      -17.2184772652      -12.2412550000  MEMB      93              0.0000000000
     10697        93  CHL1      C14            24.4519836284      -16.1217182203      -10.7837450000  MEMB      93              0.0000000000
     10698        93  CHL1      H14            23.5165789084      -15.5224208015      -10.7973750000  MEMB      93              0.0000000000
     10699        93  CHL1      C15            25.4000310969      -15.2259055178      -10.2204250000  MEMB      93              0.0000000000
     10700        93  CHL1      H15A           26.4227506996      -15.5407592190      -10.5191550000  MEMB      93              0.0000000000
     10701        93  CHL1      H15B           25.0788604594      -14.1848431198      -10.4380750000  MEMB      93              0.0000000000
     10702        93  CHL1      C16            25.2378765378      -15.5267579318       -8.7264450000  MEMB      93              0.0000000000
     10703        93  CHL1      H16A           26.2411706114      -15.8761239109       -8.4013850000  MEMB      93              0.0000000000
     10704        93  CHL1      H16B           25.0312283604      -14.5271885781       -8.2877150000  MEMB      93              0.0000000000
     10705        93  CHL1      C17            24.0430301785      -16.4561846424       -8.4835150000  MEMB      93              0.0000000000
     10706        93  CHL1      H17            23.1799398828      -15.7571563230       -8.5109150000  MEMB      93              0.0000000000
     10707        93  CHL1      C13            24.0110288115      -17.2880293019       -9.8321650000  MEMB      93              0.0000000000
     10708        93  CHL1      C18            25.1307657155      -18.3583123728       -9.8871250000  MEMB      93              0.0000000000
     10709        93  CHL1      H18A           26.0534650597      -17.7715433829      -10.0837450000  MEMB      93              0.0000000000
     10710        93  CHL1      H18B           25.3270283245      -18.9234380534       -8.9509450000  MEMB      93              0.0000000000
     10711        93  CHL1      H18C           24.8954797828      -19.0640122572      -10.7123250000  MEMB      93              0.0000000000
     10712        93  CHL1      C12            22.7036807872      -17.8466070348      -10.3282550000  MEMB      93              0.0000000000
     10713        93  CHL1      H12A           22.3789087802      -18.7501585792       -9.7693150000  MEMB      93              0.0000000000
     10714        93  CHL1      H12B           21.9278644063      -17.0682840410      -10.1650250000  MEMB      93              0.0000000000
     10715        93  CHL1      C11            22.7455155116      -18.2194054982      -11.8656950000  MEMB      93              0.0000000000
     10716        93  CHL1      H11A           23.2634642859      -19.1986559665      -11.9500850000  MEMB      93              0.0000000000
     10717        93  CHL1      H11B           21.7235628186      -18.5025780072      -12.1969850000  MEMB      93              0.0000000000
     10718        93  CHL1      C9             23.3720646700      -17.2525493873      -12.8566050000  MEMB      93              0.0000000000
     10719        93  CHL1      H9             22.5638819018      -16.5013009843      -12.9861650000  MEMB      93              0.0000000000
     10720        93  CHL1      C10            23.5899590686      -17.6934226043      -14.3299850000  MEMB      93              0.0000000000
     10721        93  CHL1      C19            24.0869136973      -19.1641007027      -14.3595550000  MEMB      93              0.0000000000
     10722        93  CHL1      H19A           24.9807546724      -19.2472584129      -13.7049950000  MEMB      93              0.0000000000
     10723        93  CHL1      H19B           23.3061680741      -19.8293253495      -13.9326650000  MEMB      93              0.0000000000
     10724        93  CHL1      H19C           24.3807460949      -19.5233776134      -15.3689650000  MEMB      93              0.0000000000
     10725        93  CHL1      C1             22.2404259482      -17.7231388668      -15.0278650000  MEMB      93              0.0000000000
     10726        93  CHL1      H1A            21.5821113700      -18.3863049162      -14.4269050000  MEMB      93              0.0000000000
     10727        93  CHL1      H1B            21.7400003808      -16.7318265655      -14.9932350000  MEMB      93              0.0000000000
     10728        93  CHL1      C2             22.2842580918      -18.0627733073      -16.5639050000  MEMB      93              0.0000000000
     10729        93  CHL1      H2A            21.2864102977      -18.0669039451      -17.0523850000  MEMB      93              0.0000000000
     10730        93  CHL1      H2B            22.7761627328      -19.0452421471      -16.7285550000  MEMB      93              0.0000000000
     10731        93  CHL1      C20            23.9526850408      -17.1688171007       -7.1036250000  MEMB      93              0.0000000000
     10732        93  CHL1      H20            24.9101183674      -17.7265560379       -7.0225150000  MEMB      93              0.0000000000
     10733        93  CHL1      C21            22.7868124483      -18.1789967787       -7.0593850000  MEMB      93              0.0000000000
     10734        93  CHL1      H21A           21.8675705527      -17.6129802148       -7.3219450000  MEMB      93              0.0000000000
     10735        93  CHL1      H21B           22.5320767286      -18.4959863304       -6.0254850000  MEMB      93              0.0000000000
     10736        93  CHL1      H21C           22.9299711792      -19.0288924798       -7.7604550000  MEMB      93              0.0000000000
     10737        93  CHL1      C22            23.9044507115      -16.1072392407       -5.9869050000  MEMB      93              0.0000000000
     10738        93  CHL1      H22A           24.7255142401      -15.4345860881       -6.3151050000  MEMB      93              0.0000000000
     10739        93  CHL1      H22B           23.0146617372      -15.4433494552       -6.0298150000  MEMB      93              0.0000000000
     10740        93  CHL1      C23            23.9293103128      -16.6236444425       -4.5219650000  MEMB      93              0.0000000000
     10741        93  CHL1      H23A           22.9302822762      -17.0769428093       -4.3465150000  MEMB      93              0.0000000000
     10742        93  CHL1      H23B           24.5791234656      -17.5132128039       -4.6659750000  MEMB      93              0.0000000000
     10743        93  CHL1      C24            24.4694669418      -15.6025145599       -3.5188950000  MEMB      93              0.0000000000
     10744        93  CHL1      H24A           25.5302972548      -15.3690120537       -3.7521950000  MEMB      93              0.0000000000
     10745        93  CHL1      H24B           23.7438442280      -14.7672206912       -3.6193050000  MEMB      93              0.0000000000
     10746        93  CHL1      C25            24.4426072248      -16.0884831175       -2.0441150000  MEMB      93              0.0000000000
     10747        93  CHL1      H25            24.9969748561      -17.0493369433       -1.9826750000  MEMB      93              0.0000000000
     10748        93  CHL1      C26            25.2176971117      -15.0619428305       -1.2213450000  MEMB      93              0.0000000000
     10749        93  CHL1      H26A           24.6433058041      -14.1174093414       -1.3319950000  MEMB      93              0.0000000000
     10750        93  CHL1      H26B           25.2512452608      -15.3327874726       -0.1443850000  MEMB      93              0.0000000000
     10751        93  CHL1      H26C           26.2837751869      -14.9097233033       -1.4945150000  MEMB      93              0.0000000000
     10752        93  CHL1      C27            23.0326118961      -16.2222464683       -1.3603550000  MEMB      93              0.0000000000
     10753        93  CHL1      H27A           22.5550195862      -15.2359155074       -1.1776450000  MEMB      93              0.0000000000
     10754        93  CHL1      H27B           22.3929372630      -16.8875870393       -1.9787850000  MEMB      93              0.0000000000
     10755        93  CHL1      H27C           23.2903080791      -16.6272382408       -0.3584150000  MEMB      93              0.0000000000
     10756        94  POPC      N              24.9421740379       21.5037953806      -20.2656867207  MEMB      94              0.0000000000
     10757        94  POPC      C12            23.8055715301       20.4979107486      -20.4021991028  MEMB      94              0.0000000000
     10758        94  POPC      H12A           24.0132011070       19.8477322572      -21.2391924130  MEMB      94              0.0000000000
     10759        94  POPC      H12B           22.9238530640       21.0878842566      -20.6044465052  MEMB      94              0.0000000000
     10760        94  POPC      C13            26.1643813411       20.7843586379      -19.8902726894  MEMB      94              0.0000000000
     10761        94  POPC      H13A           26.9282792603       21.5107048602      -19.6551530571  MEMB      94              0.0000000000
     10762        94  POPC      H13B           25.8959564187       20.2506262963      -18.9905628760  MEMB      94              0.0000000000
     10763        94  POPC      H13C           26.4999588697       20.0875892000      -20.6441295915  MEMB      94              0.0000000000
     10764        94  POPC      C14            25.1311990408       22.0530656036      -21.6645208864  MEMB      94              0.0000000000
     10765        94  POPC      H14A           25.7224625208       21.3496624357      -22.2319991001  MEMB      94              0.0000000000
     10766        94  POPC      H14B           24.1228214071       22.2232738748      -22.0118012575  MEMB      94              0.0000000000
     10767        94  POPC      H14C           25.6305517842       22.9937869800      -21.4853847457  MEMB      94              0.0000000000
     10768        94  POPC      C15            24.5429376897       22.6503436708      -19.3477831910  MEMB      94              0.0000000000
     10769        94  POPC      H15A           24.2098123631       23.4620749246      -19.9774816529  MEMB      94              0.0000000000
     10770        94  POPC      H15B           25.5003923608       22.8603451019      -18.8943741074  MEMB      94              0.0000000000
     10771        94  POPC      H15C           23.9021070653       22.3439046327      -18.5342530468  MEMB      94              0.0000000000
     10772        94  POPC      C11            23.5096131938       19.4632414797      -19.1954451186  MEMB      94              0.0000000000
     10773        94  POPC      H11A           22.5934412309       18.9166414345      -19.5055712839  MEMB      94              0.0000000000
     10774        94  POPC      H11B           23.3505615639       20.1777074862      -18.3596449265  MEMB      94              0.0000000000
     10775        94  POPC      P              24.2890489885       17.7224211785      -17.6120584113  MEMB      94              0.0000000000
     10776        94  POPC      O13            24.4911077511       18.7316361295      -16.5456564587  MEMB      94              0.0000000000
     10777        94  POPC      O14            25.0626155397       16.4743574294      -17.4431975320  MEMB      94              0.0000000000
     10778        94  POPC      O12            24.5306088944       18.4843590210      -18.9842163216  MEMB      94              0.0000000000
     10779        94  POPC      O11            22.7594753926       17.4866307218      -17.6489635704  MEMB      94              0.0000000000
     10780        94  POPC      C1             22.2379043157       16.7874982902      -16.4520589020  MEMB      94              0.0000000000
     10781        94  POPC      HA             23.0176610391       16.4459686056      -15.7381556581  MEMB      94              0.0000000000
     10782        94  POPC      HB             21.9135441294       15.8266383044      -16.9057764243  MEMB      94              0.0000000000
     10783        94  POPC      C2             21.0936543280       17.6640485153      -15.8044637585  MEMB      94              0.0000000000
     10784        94  POPC      HS             20.2859804496       17.7965966114      -16.5557393628  MEMB      94              0.0000000000
     10785        94  POPC      O21            21.6211193210       18.8922320045      -15.2549130842  MEMB      94              0.0000000000
     10786        94  POPC      C21            20.7297057240       19.8704585731      -14.8986078153  MEMB      94              0.0000000000
     10787        94  POPC      O22            19.5557465084       19.8615257909      -15.1678345941  MEMB      94              0.0000000000
     10788        94  POPC      C22            21.3638472382       20.9897871083      -14.0984773833  MEMB      94              0.0000000000
     10789        94  POPC      H2R            21.0256633363       21.0389651363      -13.0413423701  MEMB      94              0.0000000000
     10790        94  POPC      H2S            20.8303412434       21.8799440630      -14.4951043237  MEMB      94              0.0000000000
     10791        94  POPC      C3             20.4096885844       16.8983162540      -14.6457071864  MEMB      94              0.0000000000
     10792        94  POPC      HX             19.9371157293       15.9925226941      -15.0822094016  MEMB      94              0.0000000000
     10793        94  POPC      HY             19.6563251067       17.5381327437      -14.1383616250  MEMB      94              0.0000000000
     10794        94  POPC      O31            21.4056373951       16.3938198689      -13.7544338913  MEMB      94              0.0000000000
     10795        94  POPC      C31            21.3209178925       16.6822311469      -12.4319705225  MEMB      94              0.0000000000
     10796        94  POPC      O32            20.3651883589       17.2585174071      -11.8670148780  MEMB      94              0.0000000000
     10797        94  POPC      C32            22.5563268743       16.1359468494      -11.6868385722  MEMB      94              0.0000000000
     10798        94  POPC      H2X            23.1026583387       17.0820564933      -11.4850480260  MEMB      94              0.0000000000
     10799        94  POPC      H2Y            23.1434543021       15.4445771206      -12.3284072575  MEMB      94              0.0000000000
     10800        94  POPC      C23            22.9287775923       20.9618246946      -14.2241917726  MEMB      94              0.0000000000
     10801        94  POPC      H3R            23.3016659551       20.7122894427      -15.2405613948  MEMB      94              0.0000000000
     10802        94  POPC      H3S            23.2965843521       20.2875636596      -13.4214394025  MEMB      94              0.0000000000
     10803        94  POPC      C24            23.5206380011       22.3564116535      -14.0563121752  MEMB      94              0.0000000000
     10804        94  POPC      H4R            23.0414644415       23.0586930641      -14.7715147204  MEMB      94              0.0000000000
     10805        94  POPC      H4S            24.6100703517       22.3182029392      -14.2707833486  MEMB      94              0.0000000000
     10806        94  POPC      C25            23.2027417319       23.0423705335      -12.7261607646  MEMB      94              0.0000000000
     10807        94  POPC      H5R            22.1413276984       23.2793747051      -12.4991138983  MEMB      94              0.0000000000
     10808        94  POPC      H5S            23.7005661567       24.0353549372      -12.7479170355  MEMB      94              0.0000000000
     10809        94  POPC      C26            23.8352564156       22.2645188755      -11.4597207170  MEMB      94              0.0000000000
     10810        94  POPC      H6R            23.3604886740       21.2697700050      -11.3204676203  MEMB      94              0.0000000000
     10811        94  POPC      H6S            23.6178506797       22.8822918782      -10.5622730122  MEMB      94              0.0000000000
     10812        94  POPC      C27            25.3028102399       22.2143891900      -11.5142385798  MEMB      94              0.0000000000
     10813        94  POPC      H7R            25.6672152071       23.2633333418      -11.5495443756  MEMB      94              0.0000000000
     10814        94  POPC      H7S            25.5645412305       21.6712590062      -12.4474198755  MEMB      94              0.0000000000
     10815        94  POPC      C28            25.8989290920       21.6032816276      -10.1984731138  MEMB      94              0.0000000000
     10816        94  POPC      H8R            25.5532500479       22.2680219776       -9.3781388728  MEMB      94              0.0000000000
     10817        94  POPC      H8S            26.9747412920       21.8402435689      -10.3426878790  MEMB      94              0.0000000000
     10818        94  POPC      C29            25.6157257053       20.1888257873      -10.1134277812  MEMB      94              0.0000000000
     10819        94  POPC      H91            25.7326379399       19.5514354332      -11.0022833507  MEMB      94              0.0000000000
     10820        94  POPC      C210           25.0964012029       19.5763538901       -9.0237861515  MEMB      94              0.0000000000
     10821        94  POPC      H101           24.7340969379       18.5402715744       -9.0963730106  MEMB      94              0.0000000000
     10822        94  POPC      C211           24.6932800553       20.1654639798       -7.7037451074  MEMB      94              0.0000000000
     10823        94  POPC      H11R           23.5933355107       20.0103598845       -7.6841035629  MEMB      94              0.0000000000
     10824        94  POPC      H11S           25.0298959980       21.2238013172       -7.7342842328  MEMB      94              0.0000000000
     10825        94  POPC      C212           25.4086982645       19.6253086389       -6.4044142952  MEMB      94              0.0000000000
     10826        94  POPC      H12R           25.2460603824       18.5315887348       -6.2964944373  MEMB      94              0.0000000000
     10827        94  POPC      H12S           24.9103975857       20.0719751766       -5.5175625793  MEMB      94              0.0000000000
     10828        94  POPC      C213           26.8883510657       20.0687638953       -6.1230174652  MEMB      94              0.0000000000
     10829        94  POPC      H13R           26.8294290883       21.1754116362       -6.0444061802  MEMB      94              0.0000000000
     10830        94  POPC      H13S           27.4579031878       19.8078972803       -7.0405576665  MEMB      94              0.0000000000
     10831        94  POPC      C214           27.5368382124       19.3383439994       -4.9190489170  MEMB      94              0.0000000000
     10832        94  POPC      H14R           28.4480761996       19.9568895266       -4.7728713635  MEMB      94              0.0000000000
     10833        94  POPC      H14S           27.7493478676       18.2825021093       -5.1917367894  MEMB      94              0.0000000000
     10834        94  POPC      C215           26.7883006365       19.1995659834       -3.5572715797  MEMB      94              0.0000000000
     10835        94  POPC      H15R           27.3919290323       18.5779711754       -2.8618770614  MEMB      94              0.0000000000
     10836        94  POPC      H15S           25.8108090644       18.6975896842       -3.7211332462  MEMB      94              0.0000000000
     10837        94  POPC      C216           26.5567146779       20.5825999212       -2.9453103243  MEMB      94              0.0000000000
     10838        94  POPC      H16R           26.0871480507       21.2099263891       -3.7328954014  MEMB      94              0.0000000000
     10839        94  POPC      H16S           27.4203163519       21.1196598090       -2.4980073342  MEMB      94              0.0000000000
     10840        94  POPC      C217           25.4296683723       20.5405468930       -1.8998389630  MEMB      94              0.0000000000
     10841        94  POPC      H17R           25.9522077906       19.8608447655       -1.1932425727  MEMB      94              0.0000000000
     10842        94  POPC      H17S           24.5487137317       19.9502327265       -2.2311528789  MEMB      94              0.0000000000
     10843        94  POPC      C218           25.0472257142       21.8923827150       -1.2596796323  MEMB      94              0.0000000000
     10844        94  POPC      H18R           24.1054705109       21.7478475161       -0.6882542976  MEMB      94              0.0000000000
     10845        94  POPC      H18S           24.8604469569       22.6847340248       -2.0157299173  MEMB      94              0.0000000000
     10846        94  POPC      H18T           25.8918252613       22.2378855882       -0.6259599708  MEMB      94              0.0000000000
     10847        94  POPC      C33            22.2391774839       15.4770894014      -10.3251462292  MEMB      94              0.0000000000
     10848        94  POPC      H3X            21.4120210086       14.7416726041      -10.4215575904  MEMB      94              0.0000000000
     10849        94  POPC      H3Y            21.7870624105       16.2206373648       -9.6344588635  MEMB      94              0.0000000000
     10850        94  POPC      C34            23.5984835324       14.9630175598       -9.6886272681  MEMB      94              0.0000000000
     10851        94  POPC      H4X            24.2600453577       15.7995853418       -9.3774821387  MEMB      94              0.0000000000
     10852        94  POPC      H4Y            24.2230833837       14.2860888882      -10.3098860688  MEMB      94              0.0000000000
     10853        94  POPC      C35            23.2637194673       14.1984672601       -8.3245020183  MEMB      94              0.0000000000
     10854        94  POPC      H5X            24.2435439260       13.8828139601       -7.9066176389  MEMB      94              0.0000000000
     10855        94  POPC      H5Y            22.7738456035       13.2340756240       -8.5780635146  MEMB      94              0.0000000000
     10856        94  POPC      C36            22.4854334851       15.0735336161       -7.3181985197  MEMB      94              0.0000000000
     10857        94  POPC      H6X            22.4009213628       14.5262603572       -6.3550422196  MEMB      94              0.0000000000
     10858        94  POPC      H6Y            21.4568610091       15.2098497024       -7.7154113696  MEMB      94              0.0000000000
     10859        94  POPC      C37            23.1462709454       16.4552001679       -7.0407850981  MEMB      94              0.0000000000
     10860        94  POPC      H7X            22.9630169836       17.0926931403       -7.9320433565  MEMB      94              0.0000000000
     10861        94  POPC      H7Y            24.2010896854       16.1529641844       -6.8666246752  MEMB      94              0.0000000000
     10862        94  POPC      C38            22.6603329687       17.0494257465       -5.7113082283  MEMB      94              0.0000000000
     10863        94  POPC      H8X            23.5211967804       17.6647515296       -5.3727693668  MEMB      94              0.0000000000
     10864        94  POPC      H8Y            22.5798214582       16.2240235932       -4.9720176503  MEMB      94              0.0000000000
     10865        94  POPC      C39            21.4819675201       18.0001080773       -5.8045504572  MEMB      94              0.0000000000
     10866        94  POPC      H9X            20.8687524842       17.6042288830       -6.6421470103  MEMB      94              0.0000000000
     10867        94  POPC      H9Y            21.8936291058       18.9906756113       -6.0937416185  MEMB      94              0.0000000000
     10868        94  POPC      C310           20.6904850236       18.1523783421       -4.4527310213  MEMB      94              0.0000000000
     10869        94  POPC      H10X           20.0993395803       17.2305929206       -4.2651687363  MEMB      94              0.0000000000
     10870        94  POPC      H10Y           19.9388649078       18.9313136363       -4.7030271343  MEMB      94              0.0000000000
     10871        94  POPC      C311           21.6323851766       18.5579870478       -3.3288836945  MEMB      94              0.0000000000
     10872        94  POPC      H11X           21.7869700529       19.6535514185       -3.4296974293  MEMB      94              0.0000000000
     10873        94  POPC      H11Y           22.6156894717       18.0445429818       -3.2671681469  MEMB      94              0.0000000000
     10874        94  POPC      C312           20.9560716953       18.4145782001       -1.9596008788  MEMB      94              0.0000000000
     10875        94  POPC      H12X           20.7123122074       17.3379551610       -1.8339641618  MEMB      94              0.0000000000
     10876        94  POPC      H12Y           20.0311986571       19.0231731765       -1.8671727448  MEMB      94              0.0000000000
     10877        94  POPC      C313           21.8418219887       18.9405688810       -0.8511894659  MEMB      94              0.0000000000
     10878        94  POPC      H13X           22.1162348289       19.9821936717       -1.1232857100  MEMB      94              0.0000000000
     10879        94  POPC      H13Y           22.7471654739       18.3017173986       -0.7703008598  MEMB      94              0.0000000000
     10880        94  POPC      C314           21.1793006214       19.2438338218        0.5056980704  MEMB      94              0.0000000000
     10881        94  POPC      H14X           20.5786974018       18.4122593713        0.9324089858  MEMB      94              0.0000000000
     10882        94  POPC      H14Y           20.4919999942       20.0407893325        0.1496076730  MEMB      94              0.0000000000
     10883        94  POPC      C315           22.1004301697       19.9137160056        1.5912699151  MEMB      94              0.0000000000
     10884        94  POPC      H15X           22.6367234337       20.8450593851        1.3096494225  MEMB      94              0.0000000000
     10885        94  POPC      H15Y           22.8727659863       19.1693228908        1.8805740259  MEMB      94              0.0000000000
     10886        94  POPC      C316           21.3656931662       20.4121001811        2.9059903225  MEMB      94              0.0000000000
     10887        94  POPC      H16X           22.1499934162       20.4028470083        3.6928255396  MEMB      94              0.0000000000
     10888        94  POPC      H16Y           20.4886898408       19.7722971203        3.1422899420  MEMB      94              0.0000000000
     10889        94  POPC      H16Z           20.8667839958       21.3875711056        2.7219594252  MEMB      94              0.0000000000
     10890        95  SAPS      N              22.5784499859      -23.1523530853      -21.4436943977  MEMB      95              0.0000000000
     10891        95  SAPS      HN1            22.2892557014      -22.4353008829      -22.1392535636  MEMB      95              0.0000000000
     10892        95  SAPS      HN2            23.1043372857      -22.7654314440      -20.6341671964  MEMB      95              0.0000000000
     10893        95  SAPS      HN3            23.1547649284      -23.8935313131      -21.8910374916  MEMB      95              0.0000000000
     10894        95  SAPS      C12            21.3626468625      -23.7872533649      -20.9197421614  MEMB      95              0.0000000000
     10895        95  SAPS      H12A           20.9832644436      -23.1154381793      -20.1640084428  MEMB      95              0.0000000000
     10896        95  SAPS      C13            20.2679718230      -24.1264968172      -21.9675336143  MEMB      95              0.0000000000
     10897        95  SAPS      O13A           20.4145570564      -23.9279504306      -23.2364943767  MEMB      95              0.0000000000
     10898        95  SAPS      O13B           19.1438331893      -24.2921230401      -21.4856861312  MEMB      95              0.0000000000
     10899        95  SAPS      C11            21.7214376647      -25.1039300172      -20.2165847973  MEMB      95              0.0000000000
     10900        95  SAPS      H11A           22.5700791148      -25.0200160791      -19.5044844552  MEMB      95              0.0000000000
     10901        95  SAPS      H11B           22.0796402535      -25.8260336973      -20.9811618474  MEMB      95              0.0000000000
     10902        95  SAPS      P              20.2125619685      -25.5370367403      -18.1258684695  MEMB      95              0.0000000000
     10903        95  SAPS      O13            20.1065422961      -24.0797599598      -17.7370004769  MEMB      95              0.0000000000
     10904        95  SAPS      O14            19.0855471418      -26.3870528206      -17.7406479179  MEMB      95              0.0000000000
     10905        95  SAPS      O12            20.5937633939      -25.7352166205      -19.6819922286  MEMB      95              0.0000000000
     10906        95  SAPS      O11            21.5421443369      -26.0282210244      -17.4447554007  MEMB      95              0.0000000000
     10907        95  SAPS      C1             21.7245579470      -27.4800226341      -17.2252647370  MEMB      95              0.0000000000
     10908        95  SAPS      HA             20.8533242901      -28.0850794438      -17.5556873204  MEMB      95              0.0000000000
     10909        95  SAPS      HB             22.5042545632      -27.8238688926      -17.9381209327  MEMB      95              0.0000000000
     10910        95  SAPS      C2             22.1931084252      -27.8185010972      -15.7838140137  MEMB      95              0.0000000000
     10911        95  SAPS      HS             21.8269137065      -28.8471654189      -15.5786986481  MEMB      95              0.0000000000
     10912        95  SAPS      O21            21.6885961368      -26.9630282679      -14.8144487668  MEMB      95              0.0000000000
     10913        95  SAPS      C21            20.3621808814      -27.0818990148      -14.5048790332  MEMB      95              0.0000000000
     10914        95  SAPS      O22            19.5753199947      -27.8753916712      -15.0386555641  MEMB      95              0.0000000000
     10915        95  SAPS      C22            19.9761128396      -25.8191824406      -13.6662758976  MEMB      95              0.0000000000
     10916        95  SAPS      H2R            20.0618583996      -26.1893877643      -12.6222848159  MEMB      95              0.0000000000
     10917        95  SAPS      H2S            20.8015629655      -25.0881691187      -13.8025571469  MEMB      95              0.0000000000
     10918        95  SAPS      C3             23.7921390304      -27.8178069694      -15.6818861289  MEMB      95              0.0000000000
     10919        95  SAPS      HX             24.1530027960      -28.4157940297      -16.5458940610  MEMB      95              0.0000000000
     10920        95  SAPS      HY             24.0447575623      -28.3360211910      -14.7321709671  MEMB      95              0.0000000000
     10921        95  SAPS      O31            24.2922328026      -26.5272774943      -15.7514232602  MEMB      95              0.0000000000
     10922        95  SAPS      C31            24.7557179799      -25.9598924988      -16.9489392153  MEMB      95              0.0000000000
     10923        95  SAPS      O32            24.6767812973      -26.5256069688      -18.0379390710  MEMB      95              0.0000000000
     10924        95  SAPS      C32            25.4234980120      -24.5997073394      -16.6870405517  MEMB      95              0.0000000000
     10925        95  SAPS      H2X            26.1284239167      -24.3333232197      -17.5033983151  MEMB      95              0.0000000000
     10926        95  SAPS      H2Y            26.0269297769      -24.6999476108      -15.7596015480  MEMB      95              0.0000000000
     10927        95  SAPS      C23            18.6701639541      -25.3147252752      -14.2051662597  MEMB      95              0.0000000000
     10928        95  SAPS      H3R            17.9476084365      -26.1384134108      -14.3889387764  MEMB      95              0.0000000000
     10929        95  SAPS      H3S            18.9143080879      -24.7951566852      -15.1563566393  MEMB      95              0.0000000000
     10930        95  SAPS      C24            18.0301006290      -24.3762463667      -13.1474659215  MEMB      95              0.0000000000
     10931        95  SAPS      H4R            18.0744445565      -24.8469390513      -12.1420787546  MEMB      95              0.0000000000
     10932        95  SAPS      H4S            16.9508128257      -24.1168812739      -13.1942469852  MEMB      95              0.0000000000
     10933        95  SAPS      C25            18.8384269850      -23.0260030001      -13.0613073741  MEMB      95              0.0000000000
     10934        95  SAPS      H5R            19.0034013754      -22.5820876215      -14.0541427934  MEMB      95              0.0000000000
     10935        95  SAPS      C26            19.3722739479      -22.4491421173      -12.0114359822  MEMB      95              0.0000000000
     10936        95  SAPS      H6R            19.7907993015      -21.4482547006      -12.1932617085  MEMB      95              0.0000000000
     10937        95  SAPS      C27            19.3371087462      -22.9035077742      -10.5474712123  MEMB      95              0.0000000000
     10938        95  SAPS      H7R            19.3238912967      -24.0057969297      -10.4092507370  MEMB      95              0.0000000000
     10939        95  SAPS      H7S            18.2937394577      -22.7525703778      -10.1968724683  MEMB      95              0.0000000000
     10940        95  SAPS      C28            20.3168051286      -22.1914454331       -9.6110898984  MEMB      95              0.0000000000
     10941        95  SAPS      H8R            21.2026808419      -22.8056601914       -9.3920816838  MEMB      95              0.0000000000
     10942        95  SAPS      C29            20.1671137142      -20.9363878350       -9.0643047172  MEMB      95              0.0000000000
     10943        95  SAPS      H9R            21.0500877009      -20.6691360496       -8.4651936505  MEMB      95              0.0000000000
     10944        95  SAPS      C210           19.0045262157      -19.9868880135       -9.2463798183  MEMB      95              0.0000000000
     10945        95  SAPS      H10R           18.0921686894      -20.6018100518       -9.4006384597  MEMB      95              0.0000000000
     10946        95  SAPS      H10S           19.2083065175      -19.5991607222      -10.2673900809  MEMB      95              0.0000000000
     10947        95  SAPS      C211           18.7378696568      -18.8186102788       -8.4104185271  MEMB      95              0.0000000000
     10948        95  SAPS      H11R           19.1378639572      -17.8382200447       -8.7084786196  MEMB      95              0.0000000000
     10949        95  SAPS      C212           18.1904048443      -18.9231284540       -7.2055764018  MEMB      95              0.0000000000
     10950        95  SAPS      H12R           17.9152305034      -17.9853833913       -6.7006870809  MEMB      95              0.0000000000
     10951        95  SAPS      C213           17.7227266415      -20.2282548185       -6.6033237319  MEMB      95              0.0000000000
     10952        95  SAPS      H13R           18.5302969275      -20.9871936267       -6.5248182437  MEMB      95              0.0000000000
     10953        95  SAPS      H13S           16.8126489003      -20.6921512114       -7.0402220038  MEMB      95              0.0000000000
     10954        95  SAPS      C214           17.2610882078      -19.7434187389       -5.2407762512  MEMB      95              0.0000000000
     10955        95  SAPS      H14R           16.5110592610      -18.9389052370       -5.2554085335  MEMB      95              0.0000000000
     10956        95  SAPS      C215           17.6901083471      -20.1613837736       -4.0242579242  MEMB      95              0.0000000000
     10957        95  SAPS      H15R           17.1385901250      -19.7113777303       -3.1856158151  MEMB      95              0.0000000000
     10958        95  SAPS      C216           18.6679205727      -21.2360813932       -3.6566852204  MEMB      95              0.0000000000
     10959        95  SAPS      H16R           19.2484425869      -20.8378568149       -2.7971899384  MEMB      95              0.0000000000
     10960        95  SAPS      H16S           19.3584112292      -21.4286124731       -4.5054930490  MEMB      95              0.0000000000
     10961        95  SAPS      C217           17.9754466722      -22.5759695072       -3.2483498087  MEMB      95              0.0000000000
     10962        95  SAPS      H17R           18.6244065584      -23.4593040993       -3.4297130105  MEMB      95              0.0000000000
     10963        95  SAPS      H17S           17.0783314965      -22.7097486985       -3.8899168314  MEMB      95              0.0000000000
     10964        95  SAPS      C218           17.6004436504      -22.5835381519       -1.7607353042  MEMB      95              0.0000000000
     10965        95  SAPS      H18R           17.0752825482      -23.5615552231       -1.7159060819  MEMB      95              0.0000000000
     10966        95  SAPS      H18S           16.8357383477      -21.8214564692       -1.4984801339  MEMB      95              0.0000000000
     10967        95  SAPS      C219           18.6922107269      -22.5722634262       -0.7321628108  MEMB      95              0.0000000000
     10968        95  SAPS      H19R           19.4515275447      -21.7873905401       -0.9364510291  MEMB      95              0.0000000000
     10969        95  SAPS      H19S           19.1703830719      -23.5724558273       -0.8048803012  MEMB      95              0.0000000000
     10970        95  SAPS      C220           18.2346246415      -22.4366899364        0.7324390833  MEMB      95              0.0000000000
     10971        95  SAPS      H20R           17.6855661082      -21.4906769879        0.9271568361  MEMB      95              0.0000000000
     10972        95  SAPS      H20S           19.1541278444      -22.5258228875        1.3496021521  MEMB      95              0.0000000000
     10973        95  SAPS      H20T           17.5299965017      -23.2512300141        1.0051015298  MEMB      95              0.0000000000
     10974        95  SAPS      C33            24.3127413221      -23.5814450236      -16.4282439155  MEMB      95              0.0000000000
     10975        95  SAPS      H3X            23.6274662408      -23.4681756599      -17.2953594736  MEMB      95              0.0000000000
     10976        95  SAPS      H3Y            24.7237158683      -22.5527648882      -16.5133196332  MEMB      95              0.0000000000
     10977        95  SAPS      C34            23.5950186666      -23.7161040585      -15.1001404594  MEMB      95              0.0000000000
     10978        95  SAPS      H4X            23.1926511549      -24.7419257716      -14.9583264985  MEMB      95              0.0000000000
     10979        95  SAPS      H4Y            22.7633408452      -22.9796685027      -15.1173375688  MEMB      95              0.0000000000
     10980        95  SAPS      C35            24.5789762646      -23.5062526698      -13.9198768957  MEMB      95              0.0000000000
     10981        95  SAPS      H5X            25.1219608965      -22.5443660211      -14.0393026340  MEMB      95              0.0000000000
     10982        95  SAPS      H5Y            25.2713222484      -24.3751448271      -13.9218920399  MEMB      95              0.0000000000
     10983        95  SAPS      C36            23.9063611954      -23.5270933101      -12.5561459044  MEMB      95              0.0000000000
     10984        95  SAPS      H6X            23.0079803323      -22.8849923558      -12.4339199296  MEMB      95              0.0000000000
     10985        95  SAPS      H6Y            24.6763819905      -23.2575663003      -11.8019943820  MEMB      95              0.0000000000
     10986        95  SAPS      C37            23.4529601035      -24.9084054588      -12.1310063832  MEMB      95              0.0000000000
     10987        95  SAPS      H7X            24.2024669825      -25.7284463636      -12.1213529050  MEMB      95              0.0000000000
     10988        95  SAPS      H7Y            22.6481873179      -25.2384142338      -12.8222053789  MEMB      95              0.0000000000
     10989        95  SAPS      C38            22.8035843843      -25.0791214839      -10.6873458622  MEMB      95              0.0000000000
     10990        95  SAPS      H8X            21.8444482246      -24.5200032471      -10.7293642741  MEMB      95              0.0000000000
     10991        95  SAPS      H8Y            23.5942314704      -24.5896149700      -10.0794133106  MEMB      95              0.0000000000
     10992        95  SAPS      C39            22.5258881179      -26.4674253971      -10.0540839416  MEMB      95              0.0000000000
     10993        95  SAPS      H9X            23.3252031129      -27.0893705130      -10.5108116684  MEMB      95              0.0000000000
     10994        95  SAPS      H9Y            21.5747201307      -26.9415046439      -10.3778876527  MEMB      95              0.0000000000
     10995        95  SAPS      C310           22.5562349318      -26.3595628608       -8.5134223940  MEMB      95              0.0000000000
     10996        95  SAPS      H10X           23.4091954760      -25.6900500904       -8.2714885757  MEMB      95              0.0000000000
     10997        95  SAPS      H10Y           22.7224981440      -27.4080494728       -8.1857741613  MEMB      95              0.0000000000
     10998        95  SAPS      C311           21.2436048420      -25.7472537965       -7.9236207870  MEMB      95              0.0000000000
     10999        95  SAPS      H11X           20.3572490159      -26.4074045322       -8.0371797575  MEMB      95              0.0000000000
     11000        95  SAPS      H11Y           21.0003193213      -24.8844325175       -8.5798774375  MEMB      95              0.0000000000
     11001        95  SAPS      C312           21.2446731819      -25.4899699843       -6.4881889706  MEMB      95              0.0000000000
     11002        95  SAPS      H12X           20.2190384976      -25.3046965524       -6.1033924843  MEMB      95              0.0000000000
     11003        95  SAPS      H12Y           21.8302046342      -24.5578846198       -6.3375552909  MEMB      95              0.0000000000
     11004        95  SAPS      C313           21.7774886933      -26.5537125680       -5.5117193580  MEMB      95              0.0000000000
     11005        95  SAPS      H13X           22.8528609369      -26.7610922837       -5.6985056592  MEMB      95              0.0000000000
     11006        95  SAPS      H13Y           21.1631687706      -27.4556243919       -5.7202545093  MEMB      95              0.0000000000
     11007        95  SAPS      C314           21.5901933289      -26.0595454668       -4.0687397447  MEMB      95              0.0000000000
     11008        95  SAPS      H14X           22.1841273995      -26.6714461504       -3.3566015885  MEMB      95              0.0000000000
     11009        95  SAPS      H14Y           20.5128944840      -26.0257321470       -3.7992867607  MEMB      95              0.0000000000
     11010        95  SAPS      C315           22.1368768156      -24.7035414247       -3.6686054458  MEMB      95              0.0000000000
     11011        95  SAPS      H15X           21.6652006027      -24.0628771569       -4.4440999458  MEMB      95              0.0000000000
     11012        95  SAPS      H15Y           23.2170606670      -24.6403418369       -3.9206564203  MEMB      95              0.0000000000
     11013        95  SAPS      C316           21.7523502284      -24.1244526231       -2.2621323084  MEMB      95              0.0000000000
     11014        95  SAPS      H16X           20.7493937979      -24.4159623391       -1.8834219670  MEMB      95              0.0000000000
     11015        95  SAPS      H16Y           21.8032869926      -23.0351512572       -2.4746149820  MEMB      95              0.0000000000
     11016        95  SAPS      C317           22.6214807178      -24.4318478072       -1.0212654857  MEMB      95              0.0000000000
     11017        95  SAPS      H17X           22.8521568875      -25.5127048955       -0.9078735477  MEMB      95              0.0000000000
     11018        95  SAPS      H17Y           22.1449767223      -24.0282396812       -0.1023735128  MEMB      95              0.0000000000
     11019        95  SAPS      C318           24.0424415150      -23.8722291495       -1.1313152906  MEMB      95              0.0000000000
     11020        95  SAPS      H18X           24.6535313909      -24.3535899693       -0.3381059188  MEMB      95              0.0000000000
     11021        95  SAPS      H18Y           24.0980013948      -22.7637364793       -1.0815306238  MEMB      95              0.0000000000
     11022        95  SAPS      H18Z           24.5362602763      -24.2425911959       -2.0550548952  MEMB      95              0.0000000000
     11023        96  SLPC      N             -26.6512964469      -23.3482365441      -17.9456233456  MEMB      96              0.0000000000
     11024        96  SLPC      C13           -27.3988443708      -23.5509994931      -16.6489787498  MEMB      96              0.0000000000
     11025        96  SLPC      H13A          -26.7587047746      -23.4359404009      -15.7867823675  MEMB      96              0.0000000000
     11026        96  SLPC      H13B          -28.2249057750      -22.8557485994      -16.6235124973  MEMB      96              0.0000000000
     11027        96  SLPC      H13C          -27.8334691344      -24.5354859802      -16.7400148996  MEMB      96              0.0000000000
     11028        96  SLPC      C14           -25.8287256358      -22.0727661394      -17.8764236314  MEMB      96              0.0000000000
     11029        96  SLPC      H14A          -26.4692991668      -21.2042648995      -17.8343381097  MEMB      96              0.0000000000
     11030        96  SLPC      H14B          -25.3282770906      -22.2075015555      -16.9289018113  MEMB      96              0.0000000000
     11031        96  SLPC      H14C          -25.1558461057      -22.1059550044      -18.7205394817  MEMB      96              0.0000000000
     11032        96  SLPC      C15           -27.5571731823      -23.3362417398      -19.1607906832  MEMB      96              0.0000000000
     11033        96  SLPC      H15A          -28.4995968356      -22.8398017397      -18.9825061537  MEMB      96              0.0000000000
     11034        96  SLPC      H15B          -27.0900364971      -22.8966076408      -20.0296434409  MEMB      96              0.0000000000
     11035        96  SLPC      H15C          -27.7748570039      -24.3730495025      -19.3706559203  MEMB      96              0.0000000000
     11036        96  SLPC      C12           -25.6426874138      -24.3806711024      -18.1855616666  MEMB      96              0.0000000000
     11037        96  SLPC      H12A          -25.0969225466      -24.1873225975      -19.0972398624  MEMB      96              0.0000000000
     11038        96  SLPC      H12B          -26.1350221222      -25.3009562526      -18.4631978123  MEMB      96              0.0000000000
     11039        96  SLPC      C11           -24.7205402789      -24.8664669290      -16.9567505498  MEMB      96              0.0000000000
     11040        96  SLPC      H11A          -24.0618201179      -25.5881497066      -17.4855063789  MEMB      96              0.0000000000
     11041        96  SLPC      H11B          -25.3543804529      -25.3339258726      -16.1731372704  MEMB      96              0.0000000000
     11042        96  SLPC      P             -22.4563594090      -24.0253395465      -16.0421360955  MEMB      96              0.0000000000
     11043        96  SLPC      O13           -22.3332691774      -24.8779721177      -14.8505566218  MEMB      96              0.0000000000
     11044        96  SLPC      O14           -21.7483472617      -24.5144767878      -17.2697700984  MEMB      96              0.0000000000
     11045        96  SLPC      O12           -23.9771517264      -23.8082212014      -16.3884246867  MEMB      96              0.0000000000
     11046        96  SLPC      O11           -21.8204657152      -22.6069604496      -15.6749838711  MEMB      96              0.0000000000
     11047        96  SLPC      C1            -22.5339461020      -21.4022139504      -15.9499609030  MEMB      96              0.0000000000
     11048        96  SLPC      HA            -21.6161049668      -20.8127297790      -16.1606673672  MEMB      96              0.0000000000
     11049        96  SLPC      HB            -23.2882304243      -21.4537733939      -16.7640356592  MEMB      96              0.0000000000
     11050        96  SLPC      C2            -23.1143901105      -20.7698446729      -14.6176776481  MEMB      96              0.0000000000
     11051        96  SLPC      HS            -22.8762422499      -19.6899766880      -14.7248759844  MEMB      96              0.0000000000
     11052        96  SLPC      O21           -22.7126370930      -21.2847312820      -13.3479398117  MEMB      96              0.0000000000
     11053        96  SLPC      C21           -21.4074630871      -21.0424741408      -13.0967884089  MEMB      96              0.0000000000
     11054        96  SLPC      O22           -20.7441477201      -20.3507030409      -13.7924184535  MEMB      96              0.0000000000
     11055        96  SLPC      C22           -21.0411775000      -21.8252673746      -11.9250753170  MEMB      96              0.0000000000
     11056        96  SLPC      H2R           -20.0726903797      -21.4453668219      -11.5351658376  MEMB      96              0.0000000000
     11057        96  SLPC      H2S           -21.8144048573      -21.6423591068      -11.1485537546  MEMB      96              0.0000000000
     11058        96  SLPC      C3            -24.6730547199      -20.9818495151      -14.6783456928  MEMB      96              0.0000000000
     11059        96  SLPC      HX            -24.9709491878      -22.0463130810      -14.7901368352  MEMB      96              0.0000000000
     11060        96  SLPC      HY            -25.0031069540      -20.5168702270      -15.6318552851  MEMB      96              0.0000000000
     11061        96  SLPC      O31           -25.3214538830      -20.3520272441      -13.5537817868  MEMB      96              0.0000000000
     11062        96  SLPC      C31           -25.4878697650      -21.0697645690      -12.4242615829  MEMB      96              0.0000000000
     11063        96  SLPC      O32           -25.1480166043      -22.2704842579      -12.3202919112  MEMB      96              0.0000000000
     11064        96  SLPC      C32           -26.1301239202      -20.1104017998      -11.2499716066  MEMB      96              0.0000000000
     11065        96  SLPC      H2X           -27.2036704010      -19.9494490683      -11.4864316262  MEMB      96              0.0000000000
     11066        96  SLPC      H2Y           -25.6058423661      -19.1478815435      -11.4316445902  MEMB      96              0.0000000000
     11067        96  SLPC      C23           -21.0539626822      -23.2890444921      -12.2299367483  MEMB      96              0.0000000000
     11068        96  SLPC      H3R           -20.0509953844      -23.7066548216      -12.4622704615  MEMB      96              0.0000000000
     11069        96  SLPC      H3S           -21.7386880997      -23.5415116565      -13.0676314327  MEMB      96              0.0000000000
     11070        96  SLPC      C24           -21.5507387118      -24.1794141174      -11.0449167609  MEMB      96              0.0000000000
     11071        96  SLPC      H4R           -21.4185040367      -25.2453313085      -11.3289163562  MEMB      96              0.0000000000
     11072        96  SLPC      H4S           -22.6418896448      -23.9874709729      -11.1277925820  MEMB      96              0.0000000000
     11073        96  SLPC      C25           -21.0148950434      -23.9728748176       -9.5977693413  MEMB      96              0.0000000000
     11074        96  SLPC      H5R           -21.1440394615      -22.9330604034       -9.2284066463  MEMB      96              0.0000000000
     11075        96  SLPC      H5S           -19.9280685208      -24.2007786686       -9.5632835137  MEMB      96              0.0000000000
     11076        96  SLPC      C26           -21.5495997024      -24.9044438236       -8.4606301455  MEMB      96              0.0000000000
     11077        96  SLPC      H6R           -21.0003376709      -24.5458177739       -7.5639583967  MEMB      96              0.0000000000
     11078        96  SLPC      H6S           -21.1793778203      -25.9179083240       -8.7254814191  MEMB      96              0.0000000000
     11079        96  SLPC      C27           -23.0493747082      -24.9653819340       -8.3140797221  MEMB      96              0.0000000000
     11080        96  SLPC      H7R           -23.3677585380      -24.9284931588       -9.3778430509  MEMB      96              0.0000000000
     11081        96  SLPC      H7S           -23.3413213541      -23.9772279540       -7.8985810709  MEMB      96              0.0000000000
     11082        96  SLPC      C28           -23.6667060799      -26.1223513732       -7.4958102033  MEMB      96              0.0000000000
     11083        96  SLPC      H8R           -23.2458351943      -27.0155168780       -8.0051673059  MEMB      96              0.0000000000
     11084        96  SLPC      H8S           -24.7754977857      -26.1010307710       -7.5625015909  MEMB      96              0.0000000000
     11085        96  SLPC      C29           -23.2517836782      -26.1386467646       -6.0546453050  MEMB      96              0.0000000000
     11086        96  SLPC      H9R           -22.5930083621      -26.9419259665       -5.6930412868  MEMB      96              0.0000000000
     11087        96  SLPC      C210          -23.7226089099      -25.2123649913       -5.2069780716  MEMB      96              0.0000000000
     11088        96  SLPC      H10R          -23.2812056334      -25.1336928705       -4.2025014936  MEMB      96              0.0000000000
     11089        96  SLPC      C211          -24.6914944348      -24.1022116898       -5.4670817546  MEMB      96              0.0000000000
     11090        96  SLPC      H11R          -25.1703755387      -24.2188657877       -6.4627653247  MEMB      96              0.0000000000
     11091        96  SLPC      H11S          -24.0393372024      -23.2028107501       -5.4576045007  MEMB      96              0.0000000000
     11092        96  SLPC      C212          -25.8331992665      -23.9227362052       -4.5258657713  MEMB      96              0.0000000000
     11093        96  SLPC      H12R          -26.0755443214      -24.6913524701       -3.7772021858  MEMB      96              0.0000000000
     11094        96  SLPC      C213          -26.6665614936      -22.8266972703       -4.4601000948  MEMB      96              0.0000000000
     11095        96  SLPC      H13R          -27.4672066335      -22.8313470665       -3.7058159891  MEMB      96              0.0000000000
     11096        96  SLPC      C214          -26.7115803342      -21.5646164467       -5.2788138242  MEMB      96              0.0000000000
     11097        96  SLPC      H14R          -27.6474676257      -21.6204047763       -5.8749044392  MEMB      96              0.0000000000
     11098        96  SLPC      H14S          -25.9098204062      -21.4999496571       -6.0451821846  MEMB      96              0.0000000000
     11099        96  SLPC      C215          -26.6577308945      -20.2617221278       -4.4351881756  MEMB      96              0.0000000000
     11100        96  SLPC      H15R          -27.7046441572      -20.3902116803       -4.0862119119  MEMB      96              0.0000000000
     11101        96  SLPC      H15S          -26.6966540755      -19.3612280016       -5.0847384721  MEMB      96              0.0000000000
     11102        96  SLPC      C216          -25.5087184648      -20.1217212698       -3.4207644518  MEMB      96              0.0000000000
     11103        96  SLPC      H16R          -24.6040714612      -19.8963540076       -4.0250359573  MEMB      96              0.0000000000
     11104        96  SLPC      H16S          -25.4261911722      -21.0203825162       -2.7727531409  MEMB      96              0.0000000000
     11105        96  SLPC      C217          -25.6318875327      -18.9436016011       -2.4788057191  MEMB      96              0.0000000000
     11106        96  SLPC      H17R          -25.5181374570      -17.9777038340       -3.0158553823  MEMB      96              0.0000000000
     11107        96  SLPC      H17S          -24.8521184333      -19.0247941603       -1.6916029497  MEMB      96              0.0000000000
     11108        96  SLPC      C218          -26.9219583020      -18.9210665750       -1.6987399335  MEMB      96              0.0000000000
     11109        96  SLPC      H18R          -26.8320799483      -18.3420336085       -0.7548306504  MEMB      96              0.0000000000
     11110        96  SLPC      H18S          -27.3169347454      -19.9241638903       -1.4302055832  MEMB      96              0.0000000000
     11111        96  SLPC      H18T          -27.6906966887      -18.5311171926       -2.3996693962  MEMB      96              0.0000000000
     11112        96  SLPC      C33           -25.9143103839      -20.7964166381       -9.8945623357  MEMB      96              0.0000000000
     11113        96  SLPC      H3X           -26.3614622222      -21.8121527855       -9.8430212559  MEMB      96              0.0000000000
     11114        96  SLPC      H3Y           -26.3146439993      -20.1027692178       -9.1245578046  MEMB      96              0.0000000000
     11115        96  SLPC      C34           -24.4771944655      -20.9945689133       -9.3659584110  MEMB      96              0.0000000000
     11116        96  SLPC      H4X           -23.9814615968      -21.5825990300      -10.1677008362  MEMB      96              0.0000000000
     11117        96  SLPC      H4Y           -24.4460318404      -21.6239126625       -8.4509300530  MEMB      96              0.0000000000
     11118        96  SLPC      C35           -23.6566860928      -19.7458563054       -9.1000168694  MEMB      96              0.0000000000
     11119        96  SLPC      H5X           -24.3053106693      -18.8606364320       -9.2732007057  MEMB      96              0.0000000000
     11120        96  SLPC      H5Y           -22.7838387316      -19.8680377565       -9.7764268608  MEMB      96              0.0000000000
     11121        96  SLPC      C36           -23.1283907073      -19.6545364143       -7.6412632172  MEMB      96              0.0000000000
     11122        96  SLPC      H6X           -23.9129025267      -20.0863340959       -6.9836817825  MEMB      96              0.0000000000
     11123        96  SLPC      H6Y           -22.9589142846      -18.5938356052       -7.3575159365  MEMB      96              0.0000000000
     11124        96  SLPC      C37           -21.8123440431      -20.4046428559       -7.4344527995  MEMB      96              0.0000000000
     11125        96  SLPC      H7X           -21.1123326545      -19.8640064147       -8.1067757358  MEMB      96              0.0000000000
     11126        96  SLPC      H7Y           -21.8040734401      -21.4278361944       -7.8672677778  MEMB      96              0.0000000000
     11127        96  SLPC      C38           -21.1810629053      -20.3123265617       -6.0409909589  MEMB      96              0.0000000000
     11128        96  SLPC      H8X           -21.3880818167      -19.3010429196       -5.6301754424  MEMB      96              0.0000000000
     11129        96  SLPC      H8Y           -20.0782538558      -20.3661143136       -6.1644419083  MEMB      96              0.0000000000
     11130        96  SLPC      C39           -21.6519460765      -21.3806589651       -5.0874474733  MEMB      96              0.0000000000
     11131        96  SLPC      H9X           -21.6155437159      -22.3132512759       -5.6901645069  MEMB      96              0.0000000000
     11132        96  SLPC      H9Y           -22.7156553176      -21.2558705418       -4.7920293154  MEMB      96              0.0000000000
     11133        96  SLPC      C310          -20.6795895166      -21.4505039470       -3.8765515520  MEMB      96              0.0000000000
     11134        96  SLPC      H10X          -20.6625580553      -20.4607362407       -3.3721802496  MEMB      96              0.0000000000
     11135        96  SLPC      H10Y          -19.6745197668      -21.6086698730       -4.3228023974  MEMB      96              0.0000000000
     11136        96  SLPC      C311          -20.8668648747      -22.6689936351       -2.9715105292  MEMB      96              0.0000000000
     11137        96  SLPC      H11X          -20.5556091840      -23.5851622028       -3.5174747080  MEMB      96              0.0000000000
     11138        96  SLPC      H11Y          -21.9350647374      -22.8973389546       -2.7687099429  MEMB      96              0.0000000000
     11139        96  SLPC      C312          -20.2167694330      -22.3885394646       -1.6023309180  MEMB      96              0.0000000000
     11140        96  SLPC      H12X          -20.6505463032      -21.4291109264       -1.2478521761  MEMB      96              0.0000000000
     11141        96  SLPC      H12Y          -19.1657220695      -22.0729527523       -1.7756085491  MEMB      96              0.0000000000
     11142        96  SLPC      C313          -20.2194418537      -23.5361745773       -0.5867228295  MEMB      96              0.0000000000
     11143        96  SLPC      H13X          -19.8349477338      -23.0504643409        0.3355413717  MEMB      96              0.0000000000
     11144        96  SLPC      H13Y          -19.5977543961      -24.2528181126       -1.1648636821  MEMB      96              0.0000000000
     11145        96  SLPC      C314          -21.5553041012      -24.1679444466       -0.2716858805  MEMB      96              0.0000000000
     11146        96  SLPC      H14X          -21.3662396440      -24.9283125236        0.5159783905  MEMB      96              0.0000000000
     11147        96  SLPC      H14Y          -21.8649424064      -24.6590832276       -1.2189074683  MEMB      96              0.0000000000
     11148        96  SLPC      C315          -22.5164178256      -23.1682859260        0.3960075344  MEMB      96              0.0000000000
     11149        96  SLPC      H15X          -22.5629894733      -22.2250862494       -0.1892500969  MEMB      96              0.0000000000
     11150        96  SLPC      H15Y          -22.1862925175      -22.7891741375        1.3867718462  MEMB      96              0.0000000000
     11151        96  SLPC      C316          -23.9584811982      -23.7130772485        0.6102854153  MEMB      96              0.0000000000
     11152        96  SLPC      H16X          -24.4329854683      -23.0152211658        1.3328933396  MEMB      96              0.0000000000
     11153        96  SLPC      H16Y          -23.8159679139      -24.6753957364        1.1468976368  MEMB      96              0.0000000000
     11154        96  SLPC      C317          -24.7511073378      -24.1358906497       -0.6012698307  MEMB      96              0.0000000000
     11155        96  SLPC      H17X          -24.1709492353      -24.9961245127       -0.9984288355  MEMB      96              0.0000000000
     11156        96  SLPC      H17Y          -24.7939829908      -23.3177609699       -1.3517011295  MEMB      96              0.0000000000
     11157        96  SLPC      C318          -26.1707673503      -24.5373211994       -0.2790431483  MEMB      96              0.0000000000
     11158        96  SLPC      H18X          -26.6804793652      -23.6528489138        0.1593899542  MEMB      96              0.0000000000
     11159        96  SLPC      H18Y          -26.3014835266      -25.3480643966        0.4692427012  MEMB      96              0.0000000000
     11160        96  SLPC      H18Z          -26.6707032343      -25.0053624476       -1.1538700740  MEMB      96              0.0000000000
