* GENERATED BY CHARMM-GUI (HTTP://WWW.CHARMM-GUI.ORG) V3.7 ON OCT, 21. 2024. JOB
* GENERATES LIPID PACKING USING BIG SPHERES
*  DATE:    10/21/24     13:53:11      CREATED BY USER: apache
*
        96  EXT
         1         1  CHL1      POLO           24.7788077981       20.1269072834       11.9071662695  HEAD      1               0.0000000000
         2         2  CHL1      POLO            7.2581673720        7.5314293693       11.9764557217  HEAD      2               0.0000000000
         3         3  CHL1      POLO           11.4758646001      -25.0613759356       11.8681087795  HEAD      3               0.0000000000
         4         4  CHL1      POLO          -23.1913158967      -24.9873618915       12.0010091939  HEAD      4               0.0000000000
         5         5  CHL1      POLO          -10.0175012547        7.4554802731       11.9369628110  HEAD      5               0.0000000000
         6         6  CHL1      POLO           -5.7473504067      -12.0758305713       12.0240295538  HEAD      6               0.0000000000
         7         7  CHL1      POLO          -14.3461994265        0.8373547295       11.9589870810  HEAD      7               0.0000000000
         8         8  CHL1      POLO           -1.4266265937        7.3376788769       11.9382088025  HEAD      8               0.0000000000
         9         9  CHL1      POLO           11.4831830712        0.9475570603       11.9482837334  HEAD      9               0.0000000000
        10        10  CHL1      POLO          -14.1498658768      -24.8862032310       12.1009462896  HEAD      10              0.0000000000
        11        11  CHL1      POLO          -14.3568567098      -11.9669277465       12.1208186683  HEAD      11              0.0000000000
        12        12  CHL1      POLO          -22.7323189694       13.7420849159       11.9533109589  HEAD      12              0.0000000000
        13        13  CHL1      POLO           20.1287666811       13.9650622167       11.8442829564  HEAD      13              0.0000000000
        14        14  CHL1      POLO           -1.3782241370      -18.5128463905       12.0212965214  HEAD      14              0.0000000000
        15        15  POPC      POLO          -18.3766190948        7.2607251088       12.0701782105  HEAD      15              0.0000000000
        16        16  POPC      POLO           -5.7539110865      -24.9467438924       11.9420229738  HEAD      16              0.0000000000
        17        17  SLPC      POLO           20.4461298891      -25.2204477953       11.9863064788  HEAD      17              0.0000000000
        18        18  SLPC      POLO           -5.5758522559       13.8843291371       12.0280968447  HEAD      18              0.0000000000
        19        19  SLPC      POLO           15.8756113521        7.4507023019       11.8835479689  HEAD      19              0.0000000000
        20        20  SLPC      POLO           24.6310408738      -18.4710274344       11.9810397710  HEAD      20              0.0000000000
        21        21  SOPE      POLO          -22.9300869644        1.0040636325       12.1706580041  HEAD      21              0.0000000000
        22        22  SOPE      POLO           -1.4717466901       20.5030218777       11.8853619524  HEAD      22              0.0000000000
        23        23  SOPE      POLO           15.8578977370       20.4166759869       12.0563930392  HEAD      23              0.0000000000
        24        24  SAPI      POLO          -18.6505090100      -18.5255952468       12.0223807781  HEAD      24              0.0000000000
        25        25  SAPC      POLO           16.0269007560       -5.4647441163       12.0285881157  HEAD      25              0.0000000000
        26        26  SAPC      POLO           11.6631040151      -12.0702846121       12.0031693406  HEAD      26              0.0000000000
        27        27  SAPC      POLO           24.5249371984       -5.5462933370       11.9967553979  HEAD      27              0.0000000000
        28        28  SAPC      POLO          -18.5929447892       20.5626206506       12.0871337948  HEAD      28              0.0000000000
        29        29  SAPE      POLO           24.6489157151        7.6022138485       12.1209931643  HEAD      29              0.0000000000
        30        30  SAPE      POLO            7.2238497075       -5.5709295971       12.0049336001  HEAD      30              0.0000000000
        31        31  SAPE      POLO           20.1930764196        1.0767199892       11.9510937159  HEAD      31              0.0000000000
        32        32  SAPE      POLO           -5.8347805445        1.0525866762       12.0008801736  HEAD      32              0.0000000000
        33        33  SAPE      POLO            2.9637935240       14.0403065147       11.9873197006  HEAD      33              0.0000000000
        34        34  SAPE      POLO           15.8956954579      -18.6477593500       11.9980836704  HEAD      34              0.0000000000
        35        35  SAPE      POLO           11.5444986210       13.9776454578       12.0129700414  HEAD      35              0.0000000000
        36        36  SAPS      POLO          -23.0877091162      -11.9833451769       12.2934306819  HEAD      36              0.0000000000
        37        37  SAPS      POLO            3.0916861698      -24.8761172988       11.8927190757  HEAD      37              0.0000000000
        38        38  SAPS      POLO           -1.4362764924       -5.4196296532       11.9330712939  HEAD      38              0.0000000000
        39        39  SAPS      POLO            7.2213399313      -18.4240599372       11.9427532421  HEAD      39              0.0000000000
        40        40  OSM       POLO          -10.0235282795       -5.5778924486       11.9913758642  HEAD      40              0.0000000000
        41        41  OSM       POLO          -14.3127940459       14.0854214117       12.0345163580  HEAD      41              0.0000000000
        42        42  OSM       POLO          -10.1028083613      -18.3752142555       12.0651493946  HEAD      42              0.0000000000
        43        43  OSM       POLO            7.0840805193       20.4629461992       12.0959253020  HEAD      43              0.0000000000
        44        44  OSM       POLO            2.9740269901        1.0433145377       11.9327098526  HEAD      44              0.0000000000
        45        45  OSM       POLO           20.1832125874      -11.9807864247       11.8101803732  HEAD      45              0.0000000000
        46        46  OSM       POLO            2.7530965195      -12.0168898686       12.0274225632  HEAD      46              0.0000000000
        47        47  OSM       POLO          -18.6382032719       -5.5891355051       12.0572910901  HEAD      47              0.0000000000
        48        48  OSM       POLO           -9.9219776053       20.4450546063       12.0325563147  HEAD      48              0.0000000000
        49        49  CHL1      POLO           23.1906185463      -17.2723835268      -12.1321104413  HEAD      49              0.0000000000
        50        50  CHL1      POLO           -7.2819069240        0.0387279293      -12.0384740023  HEAD      50              0.0000000000
        51        51  CHL1      POLO           -2.9203699532       -7.2012668686      -11.9289312347  HEAD      51              0.0000000000
        52        52  CHL1      POLO          -23.1595153596       12.9620977187      -12.0903384597  HEAD      52              0.0000000000
        53        53  CHL1      POLO           -0.0206792958       17.1213411631      -11.9376776852  HEAD      53              0.0000000000
        54        54  CHL1      POLO           10.4511716922      -12.0744806820      -11.9585439475  HEAD      54              0.0000000000
        55        55  CHL1      POLO          -13.4779845324      -15.3940187517      -11.9473234068  HEAD      55              0.0000000000
        56        56  CHL1      POLO            8.0400721905        0.3119592804      -12.0162344980  HEAD      56              0.0000000000
        57        57  CHL1      POLO          -20.9782268916      -16.5109022040      -12.1840254783  HEAD      57              0.0000000000
        58        58  CHL1      POLO           -7.6281726036       15.0604299167      -12.1642069324  HEAD      58              0.0000000000
        59        59  CHL1      POLO           -8.9069402554      -21.9926245011      -12.0632641882  HEAD      59              0.0000000000
        60        60  CHL1      POLO          -16.5512449453      -23.4415374103      -11.8539645910  HEAD      60              0.0000000000
        61        61  CHL1      POLO           15.2152199837      -17.9853001490      -11.9559865190  HEAD      61              0.0000000000
        62        62  CHL1      POLO           21.2513661065       11.4266924180      -12.0003884661  HEAD      62              0.0000000000
        63        63  POPC      POLO           21.5408478630       -3.3888309278      -12.1467297292  HEAD      63              0.0000000000
        64        64  POPC      POLO           24.4753394287       19.6229200096      -11.9940346660  HEAD      64              0.0000000000
        65        65  SLPC      POLO           -1.1712309037      -20.7353535595      -11.8820304474  HEAD      65              0.0000000000
        66        66  SLPC      POLO          -24.2027145871      -24.3774555102      -12.0333221539  HEAD      66              0.0000000000
        67        67  SLPC      POLO           11.1402803151        7.1021664412      -12.0752448420  HEAD      67              0.0000000000
        68        68  SLPC      POLO          -25.6952573719       -9.9354174260      -12.1004483322  HEAD      68              0.0000000000
        69        69  SOPE      POLO          -12.1031527961       21.6387681004      -12.0674821766  HEAD      69              0.0000000000
        70        70  SOPE      POLO           14.1016971149       13.8719411316      -12.0325459969  HEAD      70              0.0000000000
        71        71  SOPE      POLO           13.7586389281       -4.6834863540      -11.9728199897  HEAD      71              0.0000000000
        72        72  SAPI      POLO           -4.4848454327       23.3699577079      -12.0073344727  HEAD      72              0.0000000000
        73        73  SAPC      POLO           -4.0408349731        7.8524413984      -11.9946217338  HEAD      73              0.0000000000
        74        74  SAPC      POLO          -19.3421944123        5.9586357272      -12.0098310908  HEAD      74              0.0000000000
        75        75  SAPC      POLO           12.1366632235      -25.0196569325      -11.8660081092  HEAD      75              0.0000000000
        76        76  SAPC      POLO          -14.9735541436       -1.0001093485      -11.9591072401  HEAD      76              0.0000000000
        77        77  SAPE      POLO          -11.5706778349        6.9899855930      -11.9663936423  HEAD      77              0.0000000000
        78        78  SAPE      POLO           16.9718156141       20.6038437097      -12.0161454734  HEAD      78              0.0000000000
        79        79  SAPE      POLO            1.9490579730      -13.6430600553      -12.0336993503  HEAD      79              0.0000000000
        80        80  SAPE      POLO           17.4487936259        3.1508600702      -11.9590412688  HEAD      80              0.0000000000
        81        81  SAPE      POLO            6.2431488235       13.1596584678      -12.0555656425  HEAD      81              0.0000000000
        82        82  SAPE      POLO          -19.7853572934       20.8383751863      -12.0675624297  HEAD      82              0.0000000000
        83        83  SAPE      POLO          -22.5662630172       -2.1026210158      -12.1239637787  HEAD      83              0.0000000000
        84        84  SAPS      POLO           24.9027920002        4.5107940637      -11.8967983521  HEAD      84              0.0000000000
        85        85  SAPS      POLO           18.5551255841      -10.7937401016      -12.0016509730  HEAD      85              0.0000000000
        86        86  SAPS      POLO          -15.4264807926       14.1274038072      -11.9002871045  HEAD      86              0.0000000000
        87        87  SAPS      POLO           19.9955629402      -24.4415223036      -12.0496272714  HEAD      87              0.0000000000
        88        88  OSM       POLO            5.0362478549       -6.6821516613      -11.9276657566  HEAD      88              0.0000000000
        89        89  OSM       POLO            3.3251912344        6.4885460695      -12.0552911796  HEAD      89              0.0000000000
        90        90  OSM       POLO            0.2231515573       -0.2694928327      -12.0615290759  HEAD      90              0.0000000000
        91        91  OSM       POLO          -10.5283372401       -7.6118031741      -11.9554728098  HEAD      91              0.0000000000
        92        92  OSM       POLO           -5.8573755114      -14.3518277001      -11.9161429171  HEAD      92              0.0000000000
        93        93  OSM       POLO            8.9721301003       19.9685337088      -12.0659237339  HEAD      93              0.0000000000
        94        94  OSM       POLO          -18.1905430366       -8.8200799773      -11.8193315892  HEAD      94              0.0000000000
        95        95  OSM       POLO            7.0766530830      -19.3446075051      -11.9382552200  HEAD      95              0.0000000000
        96        96  OSM       POLO            3.4582433818       25.0688004597      -12.1742082466  HEAD      96              0.0000000000
