* EQUILIBRATED WATER
*  DATE:    10/21/24     14: 0:12      CREATED BY USER: apache
*
      5178  EXT
         1         1  TIP3      OH2           -14.0354030842      -15.9365584666       -3.1276769216  W2        1               0.0000000000
         2         1  TIP3      H1            -13.9462930842      -14.9927384666       -3.2599669216  W2        1               0.0000000000
         3         1  TIP3      H2            -14.6736430842      -16.2119184666       -3.7857369216  W2        1               0.0000000000
         4         2  TIP3      OH2           -15.1022730842      -16.6814884666        0.2911430784  W2        2               0.0000000000
         5         2  TIP3      H1            -15.1405230842      -17.3278584666        0.9961030784  W2        2               0.0000000000
         6         2  TIP3      H2            -15.4246230842      -17.1480484666       -0.4799869216  W2        2               0.0000000000
         7         3  TIP3      OH2           -22.7337730842      -17.0672784666        1.8841330784  W2        3               0.0000000000
         8         3  TIP3      H1            -22.6925630842      -17.6929484666        2.6073730784  W2        3               0.0000000000
         9         3  TIP3      H2            -22.0310030842      -16.4434184666        2.0661730784  W2        3               0.0000000000
        10         4  TIP3      OH2           -11.3962530842      -13.7424484666       -1.4073469216  W2        4               0.0000000000
        11         4  TIP3      H1            -11.8369830842      -14.4628484666       -0.9567869216  W2        4               0.0000000000
        12         4  TIP3      H2            -11.4092830842      -13.0217284666       -0.7775769216  W2        4               0.0000000000
        13         5  TIP3      OH2           -21.8104630842      -12.6173884666        0.4190430784  W2        5               0.0000000000
        14         5  TIP3      H1            -22.1799430842      -13.4193384666        0.0494730784  W2        5               0.0000000000
        15         5  TIP3      H2            -20.8693530842      -12.7858984666        0.4653830784  W2        5               0.0000000000
        16         6  TIP3      OH2           -25.2004130842      -18.9571284666       -4.1880769216  W2        6               0.0000000000
        17         6  TIP3      H1            -25.6480730842      -18.1112584666       -4.2064269216  W2        6               0.0000000000
        18         6  TIP3      H2            -25.7612930842      -19.5367084666       -4.7035669216  W2        6               0.0000000000
        19         7  TIP3      OH2           -24.4898030842      -16.7951684666       -2.0622769216  W2        7               0.0000000000
        20         7  TIP3      H1            -24.2764530842      -17.5650084666       -1.5349769216  W2        7               0.0000000000
        21         7  TIP3      H2            -23.7520430842      -16.7054984666       -2.6655169216  W2        7               0.0000000000
        22         8  TIP3      OH2           -14.2847030842       -8.6382784666       -1.1953069216  W2        8               0.0000000000
        23         8  TIP3      H1            -13.6650630842       -9.3148084666       -1.4683869216  W2        8               0.0000000000
        24         8  TIP3      H2            -14.4929630842       -8.8561984666       -0.2868169216  W2        8               0.0000000000
        25         9  TIP3      OH2           -16.7128330842      -14.2493484666        0.6972430784  W2        9               0.0000000000
        26         9  TIP3      H1            -16.4090430842      -14.9352084666        0.1026530784  W2        9               0.0000000000
        27         9  TIP3      H2            -15.9914330842      -14.1304784666        1.3150430784  W2        9               0.0000000000
        28        10  TIP3      OH2            -8.0498530842      -22.6478184666        1.5578630784  W2        10              0.0000000000
        29        10  TIP3      H1             -8.0006330842      -22.0376984666        2.2937730784  W2        10              0.0000000000
        30        10  TIP3      H2             -7.6243430842      -22.1867284666        0.8349730784  W2        10              0.0000000000
        31        11  TIP3      OH2           -13.5721330842      -19.8551084666        1.0247230784  W2        11              0.0000000000
        32        11  TIP3      H1            -13.4295430842      -20.8014084666        1.0448830784  W2        11              0.0000000000
        33        11  TIP3      H2            -13.6782330842      -19.6481284666        0.0962130784  W2        11              0.0000000000
        34        12  TIP3      OH2           -20.4173030842      -21.7534684666       -1.7027969216  W2        12              0.0000000000
        35        12  TIP3      H1            -20.3741930842      -20.8936184666       -2.1211669216  W2        12              0.0000000000
        36        12  TIP3      H2            -20.8748930842      -22.3059984666       -2.3364769216  W2        12              0.0000000000
        37        13  TIP3      OH2           -12.6950330842      -21.6229084666       -3.3019669216  W2        13              0.0000000000
        38        13  TIP3      H1            -12.0486030842      -21.9515884666       -2.6772069216  W2        13              0.0000000000
        39        13  TIP3      H2            -12.1850930842      -21.1050084666       -3.9248269216  W2        13              0.0000000000
        40        14  TIP3      OH2           -23.7971530842      -19.3568884666       -0.9406569216  W2        14              0.0000000000
        41        14  TIP3      H1            -23.1434930842      -19.9067184666       -0.5086469216  W2        14              0.0000000000
        42        14  TIP3      H2            -23.7732230842      -19.6309884666       -1.8574569216  W2        14              0.0000000000
        43        15  TIP3      OH2           -18.6407030842      -17.8067584666       -1.7255069216  W2        15              0.0000000000
        44        15  TIP3      H1            -18.0246030842      -18.3332184666       -1.2161069216  W2        15              0.0000000000
        45        15  TIP3      H2            -19.2268230842      -18.4468884666       -2.1291469216  W2        15              0.0000000000
        46        16  TIP3      OH2            -7.6583930842      -21.1698984666        3.7938430784  W2        16              0.0000000000
        47        16  TIP3      H1             -8.3469330842      -20.5118284666        3.6985030784  W2        16              0.0000000000
        48        16  TIP3      H2             -7.6429330842      -21.3671084666        4.7303830784  W2        16              0.0000000000
        49        17  TIP3      OH2           -21.6071130842      -22.8356284666        2.3712830784  W2        17              0.0000000000
        50        17  TIP3      H1            -21.8259430842      -22.3055684666        1.6048830784  W2        17              0.0000000000
        51        17  TIP3      H2            -22.2750230842      -22.6090784666        3.0184230784  W2        17              0.0000000000
        52        18  TIP3      OH2           -14.2381330842      -13.3355184666       -4.0848069216  W2        18              0.0000000000
        53        18  TIP3      H1            -14.5336230842      -13.6582884666       -4.9361169216  W2        18              0.0000000000
        54        18  TIP3      H2            -14.5623530842      -12.4358484666       -4.0435469216  W2        18              0.0000000000
        55        19  TIP3      OH2           -19.0379730842      -15.1600584666        2.6586530784  W2        19              0.0000000000
        56        19  TIP3      H1            -19.7780630842      -14.5619084666        2.7621730784  W2        19              0.0000000000
        57        19  TIP3      H2            -18.3240230842      -14.6060984666        2.3430130784  W2        19              0.0000000000
        58        20  TIP3      OH2           -10.9311930842      -22.3319784666       -1.3213769216  W2        20              0.0000000000
        59        20  TIP3      H1            -11.1463930842      -23.0976384666       -0.7887769216  W2        20              0.0000000000
        60        20  TIP3      H2            -10.2754530842      -21.8595184666       -0.8085269216  W2        20              0.0000000000
        61        21  TIP3      OH2           -22.0133830842      -20.9434484666        0.3235030784  W2        21              0.0000000000
        62        21  TIP3      H1            -21.3997530842      -20.3106884666        0.6967430784  W2        21              0.0000000000
        63        21  TIP3      H2            -21.5013130842      -21.4159484666       -0.3328069216  W2        21              0.0000000000
        64        22  TIP3      OH2           -20.6305430842      -13.1957584666        3.4458030784  W2        22              0.0000000000
        65        22  TIP3      H1            -20.6357830842      -12.3164084666        3.0677330784  W2        22              0.0000000000
        66        22  TIP3      H2            -21.4841330842      -13.2793484666        3.8707930784  W2        22              0.0000000000
        67        23  TIP3      OH2           -24.5094530842      -13.5249684666       -5.7722669216  W2        23              0.0000000000
        68        23  TIP3      H1            -24.7813630842      -13.2958684666       -6.6609769216  W2        23              0.0000000000
        69        23  TIP3      H2            -24.4638830842      -12.6870884666       -5.3117369216  W2        23              0.0000000000
        70        24  TIP3      OH2           -10.8844830842      -11.9033784666        0.9405830784  W2        24              0.0000000000
        71        24  TIP3      H1            -11.8261130842      -11.8449884666        1.1022730784  W2        24              0.0000000000
        72        24  TIP3      H2            -10.6078730842      -10.9973284666        0.8035530784  W2        24              0.0000000000
        73        25  TIP3      OH2           -10.5837830842      -23.6168484666        2.3579730784  W2        25              0.0000000000
        74        25  TIP3      H1            -11.3198630842      -23.0061384666        2.3201030784  W2        25              0.0000000000
        75        25  TIP3      H2             -9.9003830842      -23.2019484666        1.8316130784  W2        25              0.0000000000
        76        26  TIP3      OH2           -17.5806430842      -25.5301184666       -0.1762269216  W2        26              0.0000000000
        77        26  TIP3      H1            -17.6982230842      -26.4785184666       -0.2303969216  W2        26              0.0000000000
        78        26  TIP3      H2            -18.4356330842      -25.1975084666        0.0968830784  W2        26              0.0000000000
        79        27  TIP3      OH2           -12.6323630842      -10.1220284666       -2.4342569216  W2        27              0.0000000000
        80        27  TIP3      H1            -12.2071330842      -10.8292384666       -2.9192969216  W2        27              0.0000000000
        81        27  TIP3      H2            -12.3153630842       -9.3207584666       -2.8510369216  W2        27              0.0000000000
        82        28  TIP3      OH2           -11.4727130842      -12.2211784666       -3.9255969216  W2        28              0.0000000000
        83        28  TIP3      H1            -11.7302330842      -12.9111684666       -4.5370069216  W2        28              0.0000000000
        84        28  TIP3      H2            -11.4016330842      -12.6640584666       -3.0800069216  W2        28              0.0000000000
        85        29  TIP3      OH2            -9.7866930842      -13.6545084666        4.5517530784  W2        29              0.0000000000
        86        29  TIP3      H1             -9.6470630842      -14.2462584666        3.8124530784  W2        29              0.0000000000
        87        29  TIP3      H2             -9.6194130842      -12.7819184666        4.1956330784  W2        29              0.0000000000
        88        30  TIP3      OH2           -15.3141530842      -16.6925584666       -5.6756469216  W2        30              0.0000000000
        89        30  TIP3      H1            -16.0256030842      -16.1575884666       -6.0275969216  W2        30              0.0000000000
        90        30  TIP3      H2            -14.6231930842      -16.6373484666       -6.3357569216  W2        30              0.0000000000
        91        31  TIP3      OH2           -15.2602330842      -18.2351284666       -8.6371469216  W2        31              0.0000000000
        92        31  TIP3      H1            -14.5592430842      -18.2124384666       -7.9857469216  W2        31              0.0000000000
        93        31  TIP3      H2            -14.9579430842      -18.8631584666       -9.2932169216  W2        31              0.0000000000
        94        32  TIP3      OH2            -7.9447630842      -17.3147084666        2.6177930784  W2        32              0.0000000000
        95        32  TIP3      H1             -8.5973530842      -16.6201484666        2.7068830784  W2        32              0.0000000000
        96        32  TIP3      H2             -7.4797330842      -17.1046184666        1.8079530784  W2        32              0.0000000000
        97        33  TIP3      OH2           -11.9083830842      -16.4832284666       -4.7240569216  W2        33              0.0000000000
        98        33  TIP3      H1            -12.6402830842      -16.2548584666       -4.1509969216  W2        33              0.0000000000
        99        33  TIP3      H2            -11.4611630842      -17.1969584666       -4.2693069216  W2        33              0.0000000000
       100        34  TIP3      OH2           -12.0110330842      -18.3089684666        4.3436430784  W2        34              0.0000000000
       101        34  TIP3      H1            -11.9311230842      -17.5455284666        4.9154930784  W2        34              0.0000000000
       102        34  TIP3      H2            -12.6122630842      -18.0297284666        3.6531530784  W2        34              0.0000000000
       103        35  TIP3      OH2           -20.2630130842      -15.8526084666       -2.8415569216  W2        35              0.0000000000
       104        35  TIP3      H1            -20.5934930842      -16.2232684666       -3.6598569216  W2        35              0.0000000000
       105        35  TIP3      H2            -19.6746030842      -16.5232084666       -2.4947269216  W2        35              0.0000000000
       106        36  TIP3      OH2           -18.8962630842      -12.4245484666       -0.1603369216  W2        36              0.0000000000
       107        36  TIP3      H1            -18.9911330842      -13.0032384666       -0.9168769216  W2        36              0.0000000000
       108        36  TIP3      H2            -18.1669030842      -12.7959784666        0.3359430784  W2        36              0.0000000000
       109        37  TIP3      OH2           -19.8964630842      -17.0840484666        0.7919430784  W2        37              0.0000000000
       110        37  TIP3      H1            -19.3312130842      -16.9626284666        0.0290630784  W2        37              0.0000000000
       111        37  TIP3      H2            -19.5775730842      -16.4465484666        1.4307930784  W2        37              0.0000000000
       112        38  TIP3      OH2           -13.5872430842      -11.5808584666        1.5259930784  W2        38              0.0000000000
       113        38  TIP3      H1            -13.8275830842      -10.9185484666        2.1739130784  W2        38              0.0000000000
       114        38  TIP3      H2            -13.7854230842      -12.4153384666        1.9509530784  W2        38              0.0000000000
       115        39  TIP3      OH2           -19.0163930842      -12.6847784666        5.5091330784  W2        39              0.0000000000
       116        39  TIP3      H1            -19.3276430842      -11.9024584666        5.9644530784  W2        39              0.0000000000
       117        39  TIP3      H2            -19.6663730842      -12.8378684666        4.8233330784  W2        39              0.0000000000
       118        40  TIP3      OH2           -13.0374330842      -17.3209384666       -7.0389369216  W2        40              0.0000000000
       119        40  TIP3      H1            -12.4578830842      -17.1709084666       -6.2920469216  W2        40              0.0000000000
       120        40  TIP3      H2            -12.6234330842      -16.8501984666       -7.7622969216  W2        40              0.0000000000
       121        41  TIP3      OH2           -22.0964030842      -16.4866684666        4.7377030784  W2        41              0.0000000000
       122        41  TIP3      H1            -22.0260830842      -15.8359884666        5.4362030784  W2        41              0.0000000000
       123        41  TIP3      H2            -22.9871830842      -16.3839184666        4.4027930784  W2        41              0.0000000000
       124        42  TIP3      OH2           -15.3109430842      -10.5840884666       -3.6036269216  W2        42              0.0000000000
       125        42  TIP3      H1            -14.8371830842      -10.2884584666       -2.8262069216  W2        42              0.0000000000
       126        42  TIP3      H2            -15.8740130842       -9.8459284666       -3.8366669216  W2        42              0.0000000000
       127        43  TIP3      OH2           -20.7768030842      -10.6132784666        6.2725130784  W2        43              0.0000000000
       128        43  TIP3      H1            -20.7692730842      -10.7493084666        5.3250630784  W2        43              0.0000000000
       129        43  TIP3      H2            -21.6927630842      -10.7304684666        6.5245130784  W2        43              0.0000000000
       130        44  TIP3      OH2            -9.3385930842      -25.5708984666       -7.2259669216  W2        44              0.0000000000
       131        44  TIP3      H1            -10.2385230842      -25.4319984666       -6.9309069216  W2        44              0.0000000000
       132        44  TIP3      H2             -9.0867530842      -24.7394384666       -7.6277969216  W2        44              0.0000000000
       133        45  TIP3      OH2           -21.2727430842      -16.7831784666       -5.2522769216  W2        45              0.0000000000
       134        45  TIP3      H1            -21.5646130842      -16.0150084666       -5.7431469216  W2        45              0.0000000000
       135        45  TIP3      H2            -21.9472230842      -17.4425584666       -5.4151369216  W2        45              0.0000000000
       136        46  TIP3      OH2            -8.1494530842      -11.2046584666       -8.8495769216  W2        46              0.0000000000
       137        46  TIP3      H1             -8.0761030842      -10.2656384666       -8.6790469216  W2        46              0.0000000000
       138        46  TIP3      H2             -7.2439430842      -11.5097984666       -8.9058469216  W2        46              0.0000000000
       139        47  TIP3      OH2           -25.1797330842      -14.4202584666        3.5627030784  W2        47              0.0000000000
       140        47  TIP3      H1            -25.6808930842      -14.4483184666        2.7476730784  W2        47              0.0000000000
       141        47  TIP3      H2            -25.1743630842      -15.3259384666        3.8724330784  W2        47              0.0000000000
       142        48  TIP3      OH2           -25.4294630842      -11.6398784666        0.4467230784  W2        48              0.0000000000
       143        48  TIP3      H1            -24.4834030842      -11.7841784666        0.4276730784  W2        48              0.0000000000
       144        48  TIP3      H2            -25.5418330842      -10.8555984666        0.9838430784  W2        48              0.0000000000
       145        49  TIP3      OH2            -7.2316130842      -10.9739084666        6.1290930784  W2        49              0.0000000000
       146        49  TIP3      H1             -7.2809330842      -11.9290984666        6.0918530784  W2        49              0.0000000000
       147        49  TIP3      H2             -8.0583830842      -10.7063784666        6.5304730784  W2        49              0.0000000000
       148        50  TIP3      OH2           -16.2532130842      -11.3999884666        5.0052330784  W2        50              0.0000000000
       149        50  TIP3      H1            -16.1657530842      -10.5735284666        5.4801430784  W2        50              0.0000000000
       150        50  TIP3      H2            -17.1167030842      -11.7296084666        5.2541630784  W2        50              0.0000000000
       151        51  TIP3      OH2           -15.8386330842       -7.6276184666       -5.1887069216  W2        51              0.0000000000
       152        51  TIP3      H1            -15.9140330842       -7.7488984666       -6.1351869216  W2        51              0.0000000000
       153        51  TIP3      H2            -15.8057630842       -6.6783484666       -5.0702469216  W2        51              0.0000000000
       154        52  TIP3      OH2           -22.1852530842       -8.8389184666       -3.4078069216  W2        52              0.0000000000
       155        52  TIP3      H1            -22.0332130842       -9.1868784666       -2.5291569216  W2        52              0.0000000000
       156        52  TIP3      H2            -23.0362130842       -9.1951884666       -3.6630869216  W2        52              0.0000000000
       157        53  TIP3      OH2           -12.7370330842       -8.4735984666       -8.1864669216  W2        53              0.0000000000
       158        53  TIP3      H1            -12.3621930842       -9.2179884666       -8.6572069216  W2        53              0.0000000000
       159        53  TIP3      H2            -12.7326630842       -8.7435384666       -7.2681369216  W2        53              0.0000000000
       160        54  TIP3      OH2           -13.0682230842       -8.5478884666       -5.4372469216  W2        54              0.0000000000
       161        54  TIP3      H1            -14.0032430842       -8.4476984666       -5.2585469216  W2        54              0.0000000000
       162        54  TIP3      H2            -12.7880330842       -9.2572884666       -4.8589269216  W2        54              0.0000000000
       163        55  TIP3      OH2           -10.0796330842      -19.4806584666        6.6093130784  W2        55              0.0000000000
       164        55  TIP3      H1            -10.4869530842      -19.0000984666        5.8886430784  W2        55              0.0000000000
       165        55  TIP3      H2            -10.0390630842      -20.3860584666        6.3013930784  W2        55              0.0000000000
       166        56  TIP3      OH2           -22.9306830842      -13.0967184666        4.6059830784  W2        56              0.0000000000
       167        56  TIP3      H1            -22.7145530842      -13.4581584666        5.4655630784  W2        56              0.0000000000
       168        56  TIP3      H2            -23.7862130842      -13.4713384666        4.3963330784  W2        56              0.0000000000
       169        57  TIP3      OH2           -20.3118830842      -24.6266684666        0.6014030784  W2        57              0.0000000000
       170        57  TIP3      H1            -21.1735130842      -24.7138484666        0.1936930784  W2        57              0.0000000000
       171        57  TIP3      H2            -20.3343130842      -23.7706584666        1.0291630784  W2        57              0.0000000000
       172        58  TIP3      OH2           -15.6491030842      -24.9046284666        3.9761030784  W2        58              0.0000000000
       173        58  TIP3      H1            -15.2287930842      -25.3199184666        4.7291630784  W2        58              0.0000000000
       174        58  TIP3      H2            -16.5821430842      -25.0832984666        4.0933030784  W2        58              0.0000000000
       175        59  TIP3      OH2           -12.3226130842      -21.1491084666        4.8295530784  W2        59              0.0000000000
       176        59  TIP3      H1            -12.8366630842      -21.2748884666        5.6271530784  W2        59              0.0000000000
       177        59  TIP3      H2            -12.4781430842      -20.2367984666        4.5851730784  W2        59              0.0000000000
       178        60  TIP3      OH2           -11.5601230842      -16.2881084666       -9.4091469216  W2        60              0.0000000000
       179        60  TIP3      H1            -11.5180430842      -16.5107184666      -10.3391469216  W2        60              0.0000000000
       180        60  TIP3      H2            -10.7109130842      -15.8893984666       -9.2191569216  W2        60              0.0000000000
       181        61  TIP3      OH2           -15.9873730842      -22.4122884666       -8.7388169216  W2        61              0.0000000000
       182        61  TIP3      H1            -16.2408930842      -22.3931284666       -7.8160069216  W2        61              0.0000000000
       183        61  TIP3      H2            -16.2441630842      -23.2837484666       -9.0401969216  W2        61              0.0000000000
       184        62  TIP3      OH2           -20.2208730842      -19.6612184666        1.6964230784  W2        62              0.0000000000
       185        62  TIP3      H1            -20.8626630842      -19.7014884666        2.4054330784  W2        62              0.0000000000
       186        62  TIP3      H2            -20.1836730842      -18.7347484666        1.4587230784  W2        62              0.0000000000
       187        63  TIP3      OH2           -20.2239630842      -19.4402084666       -3.3915769216  W2        63              0.0000000000
       188        63  TIP3      H1            -21.1166730842      -19.7805984666       -3.4501969216  W2        63              0.0000000000
       189        63  TIP3      H2            -19.7733030842      -19.8171184666       -4.1472569216  W2        63              0.0000000000
       190        64  TIP3      OH2           -14.6884130842      -19.0241784666       -4.5744969216  W2        64              0.0000000000
       191        64  TIP3      H1            -15.0973830842      -18.2093184666       -4.8660169216  W2        64              0.0000000000
       192        64  TIP3      H2            -13.9677930842      -19.1641684666       -5.1887869216  W2        64              0.0000000000
       193        65  TIP3      OH2           -15.5862530842      -18.8485384666        6.9135730784  W2        65              0.0000000000
       194        65  TIP3      H1            -16.1488730842      -19.5533784666        7.2343530784  W2        65              0.0000000000
       195        65  TIP3      H2            -14.7599130842      -18.9693484666        7.3813330784  W2        65              0.0000000000
       196        66  TIP3      OH2           -13.6836430842      -19.5781384666       -1.7605269216  W2        66              0.0000000000
       197        66  TIP3      H1            -13.8791930842      -18.9724584666       -2.4754669216  W2        66              0.0000000000
       198        66  TIP3      H2            -13.5023830842      -20.4116184666       -2.1948969216  W2        66              0.0000000000
       199        67  TIP3      OH2           -22.4708230842      -19.3408684666        3.5636230784  W2        67              0.0000000000
       200        67  TIP3      H1            -22.5088830842      -18.9407084666        4.4323330784  W2        67              0.0000000000
       201        67  TIP3      H2            -22.9617130842      -20.1576284666        3.6539130784  W2        67              0.0000000000
       202        68  TIP3      OH2           -19.1050830842      -21.9666384666       -9.6377769216  W2        68              0.0000000000
       203        68  TIP3      H1            -19.5360130842      -22.4116284666       -8.9080369216  W2        68              0.0000000000
       204        68  TIP3      H2            -19.8232130842      -21.5950084666      -10.1500269216  W2        68              0.0000000000
       205        69  TIP3      OH2           -25.8627430842      -22.2246884666       -2.5859069216  W2        69              0.0000000000
       206        69  TIP3      H1            -25.2319730842      -22.2534784666       -1.8665169216  W2        69              0.0000000000
       207        69  TIP3      H2            -25.4133130842      -22.6498184666       -3.3163169216  W2        69              0.0000000000
       208        70  TIP3      OH2           -24.5885330842      -21.4784884666       -7.1618669216  W2        70              0.0000000000
       209        70  TIP3      H1            -24.1143630842      -20.8874984666       -7.7467769216  W2        70              0.0000000000
       210        70  TIP3      H2            -25.3058930842      -20.9481984666       -6.8148569216  W2        70              0.0000000000
       211        71  TIP3      OH2           -14.4197230842      -17.9400084666        2.9107130784  W2        71              0.0000000000
       212        71  TIP3      H1            -14.0962430842      -18.5710384666        2.2677630784  W2        71              0.0000000000
       213        71  TIP3      H2            -14.8597930842      -18.4747884666        3.5714530784  W2        71              0.0000000000
       214        72  TIP3      OH2           -17.6424330842      -22.0124584666       -2.3051669216  W2        72              0.0000000000
       215        72  TIP3      H1            -18.5533230842      -21.9557784666       -2.0165669216  W2        72              0.0000000000
       216        72  TIP3      H2            -17.1371430842      -22.0729084666       -1.4944469216  W2        72              0.0000000000
       217        73  TIP3      OH2           -22.8140930842      -20.3838284666       -3.4784069216  W2        73              0.0000000000
       218        73  TIP3      H1            -23.7032930842      -20.2842784666       -3.8184469216  W2        73              0.0000000000
       219        73  TIP3      H2            -22.5176030842      -21.2255284666       -3.8246169216  W2        73              0.0000000000
       220        74  TIP3      OH2           -19.1609130842      -20.3835684666       -5.8219469216  W2        74              0.0000000000
       221        74  TIP3      H1            -18.2293630842      -20.2545684666       -5.6436369216  W2        74              0.0000000000
       222        74  TIP3      H2            -19.3758830842      -19.7141384666       -6.4714769216  W2        74              0.0000000000
       223        75  TIP3      OH2           -13.2372430842      -22.7778284666        0.9590130784  W2        75              0.0000000000
       224        75  TIP3      H1            -13.9140830842      -22.6465184666        1.6229830784  W2        75              0.0000000000
       225        75  TIP3      H2            -13.7227530842      -22.9328784666        0.1487830784  W2        75              0.0000000000
       226        76  TIP3      OH2           -20.4868930842      -19.1893484666       -8.2553369216  W2        76              0.0000000000
       227        76  TIP3      H1            -21.0293830842      -19.5689684666       -8.9465769216  W2        76              0.0000000000
       228        76  TIP3      H2            -19.6534030842      -18.9948784666       -8.6839269216  W2        76              0.0000000000
       229        77  TIP3      OH2            -9.9497330842       -7.1062884666        7.2357730784  W2        77              0.0000000000
       230        77  TIP3      H1             -9.7498630842       -6.6820984666        6.4013030784  W2        77              0.0000000000
       231        77  TIP3      H2             -9.2943630842       -6.7624684666        7.8428130784  W2        77              0.0000000000
       232        78  TIP3      OH2           -22.3517530842      -14.6321584666        6.8438230784  W2        78              0.0000000000
       233        78  TIP3      H1            -21.6195130842      -14.3775684666        7.4052730784  W2        78              0.0000000000
       234        78  TIP3      H2            -23.1318830842      -14.4276184666        7.3593630784  W2        78              0.0000000000
       235        79  TIP3      OH2           -16.3224630842      -19.2251584666       -0.4182069216  W2        79              0.0000000000
       236        79  TIP3      H1            -15.7581230842      -19.7714984666       -0.9652469216  W2        79              0.0000000000
       237        79  TIP3      H2            -16.4701230842      -19.7469684666        0.3705530784  W2        79              0.0000000000
       238        80  TIP3      OH2           -21.3204930842      -23.0885484666       -3.9997269216  W2        80              0.0000000000
       239        80  TIP3      H1            -21.6375430842      -23.9910184666       -4.0351869216  W2        80              0.0000000000
       240        80  TIP3      H2            -20.5390830842      -23.0868084666       -4.5525669216  W2        80              0.0000000000
       241        81  TIP3      OH2           -17.6958730842      -20.8365484666        1.9958330784  W2        81              0.0000000000
       242        81  TIP3      H1            -18.5313430842      -20.3825984666        2.1060730784  W2        81              0.0000000000
       243        81  TIP3      H2            -17.1718130842      -20.5606984666        2.7478230784  W2        81              0.0000000000
       244        82  TIP3      OH2           -17.1516130842      -14.6237784666       -6.3195269216  W2        82              0.0000000000
       245        82  TIP3      H1            -17.8965130842      -15.1312484666       -6.6417369216  W2        82              0.0000000000
       246        82  TIP3      H2            -17.2858930842      -14.5749784666       -5.3730469216  W2        82              0.0000000000
       247        83  TIP3      OH2           -10.0017230842      -15.4909584666        2.4672330784  W2        83              0.0000000000
       248        83  TIP3      H1             -9.3598430842      -15.0343284666        1.9234530784  W2        83              0.0000000000
       249        83  TIP3      H2            -10.8320330842      -15.3777184666        2.0046430784  W2        83              0.0000000000
       250        84  TIP3      OH2           -13.2539330842      -21.8097884666       -8.1202669216  W2        84              0.0000000000
       251        84  TIP3      H1            -14.1925130842      -21.6982284666       -8.2713869216  W2        84              0.0000000000
       252        84  TIP3      H2            -12.9567230842      -20.9530984666       -7.8136969216  W2        84              0.0000000000
       253        85  TIP3      OH2           -15.6324030842      -14.4394484666        4.9173830784  W2        85              0.0000000000
       254        85  TIP3      H1            -15.9777930842      -14.8212084666        5.7243430784  W2        85              0.0000000000
       255        85  TIP3      H2            -15.8323930842      -13.5060884666        4.9886730784  W2        85              0.0000000000
       256        86  TIP3      OH2           -12.5355830842      -19.9425184666       -6.4595269216  W2        86              0.0000000000
       257        86  TIP3      H1            -11.6436830842      -20.0800184666       -6.1404069216  W2        86              0.0000000000
       258        86  TIP3      H2            -12.4792230842      -19.1519084666       -6.9961769216  W2        86              0.0000000000
       259        87  TIP3      OH2           -22.0267830842      -15.3287784666       -0.5497369216  W2        87              0.0000000000
       260        87  TIP3      H1            -21.2820630842      -15.3312084666       -1.1510869216  W2        87              0.0000000000
       261        87  TIP3      H2            -21.9491230842      -16.1523984666       -0.0682269216  W2        87              0.0000000000
       262        88  TIP3      OH2           -15.0262030842      -13.1653484666       -7.2940669216  W2        88              0.0000000000
       263        88  TIP3      H1            -15.3213630842      -12.3385584666       -6.9125869216  W2        88              0.0000000000
       264        88  TIP3      H2            -15.7292030842      -13.7846584666       -7.0979269216  W2        88              0.0000000000
       265        89  TIP3      OH2           -25.0188130842      -16.8680884666        4.7651130784  W2        89              0.0000000000
       266        89  TIP3      H1            -24.7959530842      -17.2861284666        5.5968630784  W2        89              0.0000000000
       267        89  TIP3      H2            -25.6208030842      -17.4805884666        4.3423930784  W2        89              0.0000000000
       268        90  TIP3      OH2           -18.0023230842      -17.3510984666        6.9780830784  W2        90              0.0000000000
       269        90  TIP3      H1            -18.2982430842      -17.5167984666        6.0829930784  W2        90              0.0000000000
       270        90  TIP3      H2            -17.0708030842      -17.5710684666        6.9674730784  W2        90              0.0000000000
       271        91  TIP3      OH2           -13.3820430842      -11.9778984666        4.8678830784  W2        91              0.0000000000
       272        91  TIP3      H1            -14.2826130842      -11.7946384666        4.6002730784  W2        91              0.0000000000
       273        91  TIP3      H2            -13.3479330842      -11.7189684666        5.7887630784  W2        91              0.0000000000
       274        92  TIP3      OH2            -7.6507130842      -19.7331084666       -6.7648569216  W2        92              0.0000000000
       275        92  TIP3      H1             -8.2050830842      -20.1293084666       -7.4371069216  W2        92              0.0000000000
       276        92  TIP3      H2             -7.5503530842      -18.8225884666       -7.0425269216  W2        92              0.0000000000
       277        93  TIP3      OH2            -7.6875130842      -13.9329384666        6.0722930784  W2        93              0.0000000000
       278        93  TIP3      H1             -8.5386630842      -13.6945584666        5.7049330784  W2        93              0.0000000000
       279        93  TIP3      H2             -7.0971730842      -13.9496184666        5.3190030784  W2        93              0.0000000000
       280        94  TIP3      OH2            -9.3555430842      -10.9470684666       -6.2996469216  W2        94              0.0000000000
       281        94  TIP3      H1             -9.7284330842      -11.7726884666       -5.9905869216  W2        94              0.0000000000
       282        94  TIP3      H2             -9.0781930842      -11.1301284666       -7.1973069216  W2        94              0.0000000000
       283        95  TIP3      OH2           -12.1951530842      -16.1391184666        0.7215430784  W2        95              0.0000000000
       284        95  TIP3      H1            -13.1234630842      -16.3709284666        0.6944730784  W2        95              0.0000000000
       285        95  TIP3      H2            -11.7440430842      -16.9161384666        0.3914230784  W2        95              0.0000000000
       286        96  TIP3      OH2           -19.6518430842      -11.8109584666       -3.1455869216  W2        96              0.0000000000
       287        96  TIP3      H1            -19.1246230842      -11.0375184666       -3.3457069216  W2        96              0.0000000000
       288        96  TIP3      H2            -20.5319930842      -11.5860384666       -3.4471869216  W2        96              0.0000000000
       289        97  TIP3      OH2           -23.8970730842      -16.9485484666       -8.5583469216  W2        97              0.0000000000
       290        97  TIP3      H1            -23.2810830842      -16.3218284666       -8.1788669216  W2        97              0.0000000000
       291        97  TIP3      H2            -24.7588130842      -16.6325684666       -8.2866969216  W2        97              0.0000000000
       292        98  TIP3      OH2           -18.2246130842      -14.1479684666       -3.5691569216  W2        98              0.0000000000
       293        98  TIP3      H1            -18.4656130842      -13.2225284666       -3.5276269216  W2        98              0.0000000000
       294        98  TIP3      H2            -18.9652530842      -14.6068384666       -3.1727669216  W2        98              0.0000000000
       295        99  TIP3      OH2           -17.7099530842       -9.9986084666        2.7459530784  W2        99              0.0000000000
       296        99  TIP3      H1            -17.3474830842       -9.1440484666        2.5123930784  W2        99              0.0000000000
       297        99  TIP3      H2            -17.1784330842      -10.2904484666        3.4865830784  W2        99              0.0000000000
       298       100  TIP3      OH2           -19.5415330842       -9.1262084666       -4.0239369216  W2        100             0.0000000000
       299       100  TIP3      H1            -20.4914830842       -9.0204684666       -3.9726069216  W2        100             0.0000000000
       300       100  TIP3      H2            -19.1897230842       -8.3054684666       -3.6791869216  W2        100             0.0000000000
       301       101  TIP3      OH2           -14.1658730842      -13.8995384666        2.4465130784  W2        101             0.0000000000
       302       101  TIP3      H1            -14.5917430842      -14.1273684666        3.2729130784  W2        101             0.0000000000
       303       101  TIP3      H2            -13.5852930842      -14.6383584666        2.2640430784  W2        101             0.0000000000
       304       102  TIP3      OH2           -11.9629830842      -12.9704884666       -8.4795869216  W2        102             0.0000000000
       305       102  TIP3      H1            -11.6096730842      -13.3505084666       -7.6752369216  W2        102             0.0000000000
       306       102  TIP3      H2            -12.9116330842      -13.0640084666       -8.3926569216  W2        102             0.0000000000
       307       103  TIP3      OH2           -11.5074530842       -9.3475884666        4.9159930784  W2        103             0.0000000000
       308       103  TIP3      H1            -12.1091330842       -9.9032984666        4.4206230784  W2        103             0.0000000000
       309       103  TIP3      H2            -11.2260830842       -8.6806084666        4.2897330784  W2        103             0.0000000000
       310       104  TIP3      OH2            -7.4595430842       -8.4912384666       -8.2785669216  W2        104             0.0000000000
       311       104  TIP3      H1             -6.7157530842       -7.9051884666       -8.4184069216  W2        104             0.0000000000
       312       104  TIP3      H2             -8.1537330842       -7.9226584666       -7.9453269216  W2        104             0.0000000000
       313       105  TIP3      OH2           -23.3848630842      -22.1148184666        4.3232530784  W2        105             0.0000000000
       314       105  TIP3      H1            -24.2776330842      -21.7762784666        4.2556530784  W2        105             0.0000000000
       315       105  TIP3      H2            -23.4835830842      -22.9702084666        4.7413330784  W2        105             0.0000000000
       316       106  TIP3      OH2           -11.0970530842      -14.2982884666       -6.2527969216  W2        106             0.0000000000
       317       106  TIP3      H1            -11.3742930842      -15.0263584666       -5.6966869216  W2        106             0.0000000000
       318       106  TIP3      H2            -10.1697530842      -14.1790884666       -6.0475369216  W2        106             0.0000000000
       319       107  TIP3      OH2           -23.7336630842      -10.3103784666        2.7581930784  W2        107             0.0000000000
       320       107  TIP3      H1            -23.5166330842      -11.2421384666        2.7271630784  W2        107             0.0000000000
       321       107  TIP3      H2            -23.4873130842      -10.0358784666        3.6414730784  W2        107             0.0000000000
       322       108  TIP3      OH2           -17.8722030842      -11.8588784666      -10.0325869216  W2        108             0.0000000000
       323       108  TIP3      H1            -17.6332230842      -12.6070684666      -10.5796969216  W2        108             0.0000000000
       324       108  TIP3      H2            -18.1410730842      -12.2467084666       -9.1998069216  W2        108             0.0000000000
       325       109  TIP3      OH2           -18.9351430842      -12.2884984666       -7.5763269216  W2        109             0.0000000000
       326       109  TIP3      H1            -18.7883430842      -12.8085184666       -6.7862369216  W2        109             0.0000000000
       327       109  TIP3      H2            -18.9379730842      -11.3817384666       -7.2697369216  W2        109             0.0000000000
       328       110  TIP3      OH2           -22.4820330842      -15.0361684666       -7.0657869216  W2        110             0.0000000000
       329       110  TIP3      H1            -23.1681030842      -14.6839184666       -6.4988169216  W2        110             0.0000000000
       330       110  TIP3      H2            -21.9592430842      -14.2732084666       -7.3123569216  W2        110             0.0000000000
       331       111  TIP3      OH2           -14.6505230842      -22.3737884666        3.2131130784  W2        111             0.0000000000
       332       111  TIP3      H1            -13.9517330842      -22.2999184666        3.8630830784  W2        111             0.0000000000
       333       111  TIP3      H2            -15.0313830842      -23.2382884666        3.3674030784  W2        111             0.0000000000
       334       112  TIP3      OH2           -13.8660330842      -22.7216184666       -5.6896569216  W2        112             0.0000000000
       335       112  TIP3      H1            -13.6462030842      -22.2500784666       -6.4931169216  W2        112             0.0000000000
       336       112  TIP3      H2            -13.3076330842      -22.3273584666       -5.0195969216  W2        112             0.0000000000
       337       113  TIP3      OH2           -16.1974230842      -10.5911384666       -6.8269069216  W2        113             0.0000000000
       338       113  TIP3      H1            -17.0138130842      -10.0941684666       -6.7744769216  W2        113             0.0000000000
       339       113  TIP3      H2            -15.6677930842      -10.1157884666       -7.4670269216  W2        113             0.0000000000
       340       114  TIP3      OH2           -16.6660430842      -20.9937384666       -4.8548169216  W2        114             0.0000000000
       341       114  TIP3      H1            -15.8537830842      -20.4894184666       -4.8086469216  W2        114             0.0000000000
       342       114  TIP3      H2            -16.9107430842      -21.1387684666       -3.9408569216  W2        114             0.0000000000
       343       115  TIP3      OH2           -16.1304030842      -20.0074684666        4.3298430784  W2        115             0.0000000000
       344       115  TIP3      H1            -16.0113730842      -19.4339284666        5.0868830784  W2        115             0.0000000000
       345       115  TIP3      H2            -15.4749430842      -20.6955284666        4.4446230784  W2        115             0.0000000000
       346       116  TIP3      OH2           -15.7823730842      -23.9124384666       -3.9167069216  W2        116             0.0000000000
       347       116  TIP3      H1            -16.1290230842      -23.2953784666       -3.2722769216  W2        116             0.0000000000
       348       116  TIP3      H2            -15.1236830842      -23.4118684666       -4.3981569216  W2        116             0.0000000000
       349       117  TIP3      OH2           -18.8591130842       -9.5474184666       -6.8452169216  W2        117             0.0000000000
       350       117  TIP3      H1            -18.6982430842       -8.7476684666       -7.3459569216  W2        117             0.0000000000
       351       117  TIP3      H2            -19.0563330842       -9.2408184666       -5.9601569216  W2        117             0.0000000000
       352       118  TIP3      OH2           -20.1246730842      -22.8494984666       -7.2294569216  W2        118             0.0000000000
       353       118  TIP3      H1            -20.2081930842      -21.9611884666       -6.8828169216  W2        118             0.0000000000
       354       118  TIP3      H2            -19.2346430842      -23.1148284666       -6.9977769216  W2        118             0.0000000000
       355       119  TIP3      OH2            -9.9258230842      -22.1004384666        5.1648130784  W2        119             0.0000000000
       356       119  TIP3      H1            -10.8422430842      -21.8382684666        5.0771830784  W2        119             0.0000000000
       357       119  TIP3      H2             -9.5903230842      -22.1035384666        4.2683430784  W2        119             0.0000000000
       358       120  TIP3      OH2           -11.3237230842      -18.3503384666       -0.7394569216  W2        120             0.0000000000
       359       120  TIP3      H1            -12.1212830842      -18.7653184666       -1.0679569216  W2        120             0.0000000000
       360       120  TIP3      H2            -10.8786130842      -19.0409684666       -0.2484069216  W2        120             0.0000000000
       361       121  TIP3      OH2           -21.8661430842      -12.4222784666       -8.1690069216  W2        121             0.0000000000
       362       121  TIP3      H1            -21.2739930842      -11.7227984666       -7.8927669216  W2        121             0.0000000000
       363       121  TIP3      H2            -21.4068430842      -12.8553284666       -8.8885469216  W2        121             0.0000000000
       364       122  TIP3      OH2           -23.5502230842      -19.7579784666       -9.0530669216  W2        122             0.0000000000
       365       122  TIP3      H1            -23.5949630842      -18.8186684666       -8.8743669216  W2        122             0.0000000000
       366       122  TIP3      H2            -24.4379030842      -19.9934884666       -9.3228569216  W2        122             0.0000000000
       367       123  TIP3      OH2           -10.2372630842       -9.0940884666        0.8828930784  W2        123             0.0000000000
       368       123  TIP3      H1            -10.3928330842       -8.4156484666        0.2258230784  W2        123             0.0000000000
       369       123  TIP3      H2             -9.3046230842       -9.0221584666        1.0859530784  W2        123             0.0000000000
       370       124  TIP3      OH2           -22.7420230842      -24.9763184666       -0.3799669216  W2        124             0.0000000000
       371       124  TIP3      H1            -22.9710430842      -24.9170684666       -1.3074669216  W2        124             0.0000000000
       372       124  TIP3      H2            -23.1846830842      -25.7677684666       -0.0735569216  W2        124             0.0000000000
       373       125  TIP3      OH2           -23.8116930842      -11.0356084666       -4.2193869216  W2        125             0.0000000000
       374       125  TIP3      H1            -24.6438330842      -10.5633384666       -4.1922469216  W2        125             0.0000000000
       375       125  TIP3      H2            -23.2658630842      -10.5258484666       -4.8180769216  W2        125             0.0000000000
       376       126  TIP3      OH2           -24.5233230842       -8.4232384666        7.1104130784  W2        126             0.0000000000
       377       126  TIP3      H1            -23.9831030842       -8.6398384666        7.8703330784  W2        126             0.0000000000
       378       126  TIP3      H2            -25.0045230842       -9.2286384666        6.9206630784  W2        126             0.0000000000
       379       127  TIP3      OH2           -19.9259830842       -9.5037984666        8.7308330784  W2        127             0.0000000000
       380       127  TIP3      H1            -19.1582630842       -9.9627184666        9.0717530784  W2        127             0.0000000000
       381       127  TIP3      H2            -19.9473630842       -9.7298184666        7.8009530784  W2        127             0.0000000000
       382       128  TIP3      OH2           -15.8340230842       -9.9957384666       -9.8939869216  W2        128             0.0000000000
       383       128  TIP3      H1            -16.4779230842      -10.6268784666       -9.5726169216  W2        128             0.0000000000
       384       128  TIP3      H2            -15.0721930842      -10.5269384666      -10.1256369216  W2        128             0.0000000000
       385       129  TIP3      OH2           -13.3491130842      -11.1236884666        7.4599830784  W2        129             0.0000000000
       386       129  TIP3      H1            -13.7001630842      -11.9803884666        7.7030230784  W2        129             0.0000000000
       387       129  TIP3      H2            -12.6227930842      -10.9810184666        8.0668830784  W2        129             0.0000000000
       388       130  TIP3      OH2           -11.2297330842      -10.1787484666       -9.6601869216  W2        130             0.0000000000
       389       130  TIP3      H1            -10.9466930842      -10.9732284666       -9.2074969216  W2        130             0.0000000000
       390       130  TIP3      H2            -10.4899430842       -9.9456484666      -10.2210769216  W2        130             0.0000000000
       391       131  TIP3      OH2           -24.6163730842      -14.6128284666        8.0648430784  W2        131             0.0000000000
       392       131  TIP3      H1            -24.4723230842      -15.5147584666        7.7785130784  W2        131             0.0000000000
       393       131  TIP3      H2            -25.3886330842      -14.3266184666        7.5770730784  W2        131             0.0000000000
       394       132  TIP3      OH2           -20.2750030842      -14.2692584666       -9.8026969216  W2        132             0.0000000000
       395       132  TIP3      H1            -20.2105930842      -15.0632984666       -9.2720569216  W2        132             0.0000000000
       396       132  TIP3      H2            -19.6220830842      -14.3879784666      -10.4924969216  W2        132             0.0000000000
       397       133  TIP3      OH2           -17.9607630842      -14.6430184666        7.4974830784  W2        133             0.0000000000
       398       133  TIP3      H1            -18.2893830842      -14.3722084666        6.6402230784  W2        133             0.0000000000
       399       133  TIP3      H2            -17.8089430842      -15.5840384666        7.4099830784  W2        133             0.0000000000
       400       134  TIP3      OH2           -14.9226630842      -13.2220884666      -10.0668969216  W2        134             0.0000000000
       401       134  TIP3      H1            -15.1912530842      -13.0418784666       -9.1660069216  W2        134             0.0000000000
       402       134  TIP3      H2            -15.1291030842      -14.1474684666      -10.1983169216  W2        134             0.0000000000
       403       135  TIP3      OH2           -12.2262430842      -14.7272884666        4.8807130784  W2        135             0.0000000000
       404       135  TIP3      H1            -11.4807630842      -14.1389184666        4.7611130784  W2        135             0.0000000000
       405       135  TIP3      H2            -12.9835630842      -14.1453184666        4.9440230784  W2        135             0.0000000000
       406       136  TIP3      OH2           -23.7837230842      -17.4124984666        7.4847730784  W2        136             0.0000000000
       407       136  TIP3      H1            -23.3756030842      -18.2698384666        7.3638330784  W2        136             0.0000000000
       408       136  TIP3      H2            -24.0439630842      -17.3983684666        8.4058030784  W2        136             0.0000000000
       409       137  TIP3      OH2           -19.1256230842      -16.2966384666       -7.4968969216  W2        137             0.0000000000
       410       137  TIP3      H1            -19.5854230842      -16.7808084666       -6.8110469216  W2        137             0.0000000000
       411       137  TIP3      H2            -18.8707530842      -16.9650984666       -8.1328469216  W2        137             0.0000000000
       412       138  TIP3      OH2           -19.8366930842      -18.4039284666        4.8590630784  W2        138             0.0000000000
       413       138  TIP3      H1            -20.4550830842      -17.7292684666        5.1395330784  W2        138             0.0000000000
       414       138  TIP3      H2            -19.4925730842      -18.0825384666        4.0256830784  W2        138             0.0000000000
       415       139  TIP3      OH2           -18.0545830842      -18.0534584666       -9.2345769216  W2        139             0.0000000000
       416       139  TIP3      H1            -18.2350830842      -18.2083384666      -10.1617469216  W2        139             0.0000000000
       417       139  TIP3      H2            -17.1045330842      -17.9455884666       -9.1897869216  W2        139             0.0000000000
       418       140  TIP3      OH2           -14.8168730842      -15.9323984666        8.1365430784  W2        140             0.0000000000
       419       140  TIP3      H1            -13.8637530842      -15.8484884666        8.1091430784  W2        140             0.0000000000
       420       140  TIP3      H2            -14.9774130842      -16.6442184666        8.7560330784  W2        140             0.0000000000
       421       141  TIP3      OH2            -8.6647530842      -15.6990384666       -9.7887669216  W2        141             0.0000000000
       422       141  TIP3      H1             -8.9382730842      -16.1234884666      -10.6019369216  W2        141             0.0000000000
       423       141  TIP3      H2             -8.6253430842      -14.7675884666      -10.0057269216  W2        141             0.0000000000
       424       142  TIP3      OH2           -19.4973230842      -21.0488484666        5.9413730784  W2        142             0.0000000000
       425       142  TIP3      H1            -19.3472330842      -21.7777184666        5.3393430784  W2        142             0.0000000000
       426       142  TIP3      H2            -19.4950830842      -20.2716784666        5.3825930784  W2        142             0.0000000000
       427       143  TIP3      OH2           -19.0847530842      -22.6792684666        3.4341130784  W2        143             0.0000000000
       428       143  TIP3      H1            -18.5490030842      -22.2275984666        2.7820430784  W2        143             0.0000000000
       429       143  TIP3      H2            -19.9367930842      -22.7872884666        3.0115230784  W2        143             0.0000000000
       430       144  TIP3      OH2           -17.5029130842      -17.2396484666        3.6736330784  W2        144             0.0000000000
       431       144  TIP3      H1            -16.7524330842      -17.3958984666        3.1004130784  W2        144             0.0000000000
       432       144  TIP3      H2            -17.8420830842      -16.3879884666        3.3981830784  W2        144             0.0000000000
       433       145  TIP3      OH2           -13.0872930842      -19.4244684666        8.7021630784  W2        145             0.0000000000
       434       145  TIP3      H1            -12.8951630842      -20.3555284666        8.5906130784  W2        145             0.0000000000
       435       145  TIP3      H2            -12.2296630842      -18.9995184666        8.6917030784  W2        145             0.0000000000
       436       146  TIP3      OH2           -11.7705730842      -16.6359484666        6.7794330784  W2        146             0.0000000000
       437       146  TIP3      H1            -12.0520730842      -15.9264884666        6.2018130784  W2        146             0.0000000000
       438       146  TIP3      H2            -10.8281430842      -16.7086484666        6.6285530784  W2        146             0.0000000000
       439       147  TIP3      OH2           -21.0186930842      -19.8504984666        7.8529330784  W2        147             0.0000000000
       440       147  TIP3      H1            -21.7857930842      -20.3830184666        7.6426930784  W2        147             0.0000000000
       441       147  TIP3      H2            -20.3397930842      -20.1604584666        7.2535630784  W2        147             0.0000000000
       442       148  TIP3      OH2           -18.2792030842      -25.2226984666        3.8654730784  W2        148             0.0000000000
       443       148  TIP3      H1            -18.3772430842      -24.2763784666        3.7600930784  W2        148             0.0000000000
       444       148  TIP3      H2            -19.0215830842      -25.5953184666        3.3898230784  W2        148             0.0000000000
       445       149  TIP3      OH2           -17.0151530842      -20.9011584666        7.4293130784  W2        149             0.0000000000
       446       149  TIP3      H1            -17.2506130842      -21.1204884666        8.3308030784  W2        149             0.0000000000
       447       149  TIP3      H2            -17.7984630842      -21.1080384666        6.9195630784  W2        149             0.0000000000
       448       150  TIP3      OH2           -14.2994930842      -21.7738084666        6.5046630784  W2        150             0.0000000000
       449       150  TIP3      H1            -15.2469530842      -21.7418384666        6.6369930784  W2        150             0.0000000000
       450       150  TIP3      H2            -13.9868230842      -22.3990984666        7.1584830784  W2        150             0.0000000000
       451       151  TIP3      OH2           -12.6653430842      -23.1396984666        8.5098530784  W2        151             0.0000000000
       452       151  TIP3      H1            -12.7621630842      -24.0919684666        8.5040430784  W2        151             0.0000000000
       453       151  TIP3      H2            -12.9870330842      -22.8710184666        9.3704030784  W2        151             0.0000000000
       454       152  TIP3      OH2           -22.8384130842      -21.9301184666        7.5574030784  W2        152             0.0000000000
       455       152  TIP3      H1            -22.6266730842      -22.6365084666        6.9471530784  W2        152             0.0000000000
       456       152  TIP3      H2            -22.9496630842      -22.3675184666        8.4015230784  W2        152             0.0000000000
       457       153  TIP3      OH2           -18.0573930842      -25.9289584666        6.5367530784  W2        153             0.0000000000
       458       153  TIP3      H1            -17.3455530842      -26.5687384666        6.5226630784  W2        153             0.0000000000
       459       153  TIP3      H2            -18.1583530842      -25.6621284666        5.6230630784  W2        153             0.0000000000
       460       154  TIP3      OH2           -17.7036430842      -24.2461184666        8.5903830784  W2        154             0.0000000000
       461       154  TIP3      H1            -17.8354230842      -24.7217384666        7.7702330784  W2        154             0.0000000000
       462       154  TIP3      H2            -18.3029030842      -23.5017584666        8.5350930784  W2        154             0.0000000000
       463       155  TIP3      OH2           -18.1574130842       -7.3630884666       -8.2332169216  W2        155             0.0000000000
       464       155  TIP3      H1            -17.2243430842       -7.2052184666       -8.0893769216  W2        155             0.0000000000
       465       155  TIP3      H2            -18.4215330842       -6.6877884666       -8.8580669216  W2        155             0.0000000000
       466       156  TIP3      OH2           -24.5889230842      -12.7267084666       -8.7504069216  W2        156             0.0000000000
       467       156  TIP3      H1            -23.6750030842      -12.6478184666       -8.4770169216  W2        156             0.0000000000
       468       156  TIP3      H2            -24.5816130842      -13.4137484666       -9.4168469216  W2        156             0.0000000000
       469       157  TIP3      OH2           -25.9398630842       -7.3338584666       -3.6730169216  W2        157             0.0000000000
       470       157  TIP3      H1            -26.5871530842       -7.7956884666       -4.2058969216  W2        157             0.0000000000
       471       157  TIP3      H2            -25.5854030842       -8.0055284666       -3.0903969216  W2        157             0.0000000000
       472       158  TIP3      OH2           -25.0699430842       -9.2531584666       -1.8683969216  W2        158             0.0000000000
       473       158  TIP3      H1            -25.4042630842      -10.1334284666       -1.6963769216  W2        158             0.0000000000
       474       158  TIP3      H2            -24.8477030842       -8.9076584666       -1.0038369216  W2        158             0.0000000000
       475       159  TIP3      OH2            -7.5214630842       -8.4435184666        1.1120830784  W2        159             0.0000000000
       476       159  TIP3      H1             -7.5427930842       -8.2586784666        2.0510230784  W2        159             0.0000000000
       477       159  TIP3      H2             -6.8308430842       -7.8751184666        0.7712230784  W2        159             0.0000000000
       478       160  TIP3      OH2            -7.9581730842       -8.8764084666        4.0339930784  W2        160             0.0000000000
       479       160  TIP3      H1             -8.4453030842       -9.6119984666        3.6627330784  W2        160             0.0000000000
       480       160  TIP3      H2             -7.4089030842       -9.2700184666        4.7119330784  W2        160             0.0000000000
       481       161  TIP3      OH2            -9.5074430842      -13.0865984666        8.6720230784  W2        161             0.0000000000
       482       161  TIP3      H1            -10.3733330842      -13.1916284666        9.0662530784  W2        161             0.0000000000
       483       161  TIP3      H2             -9.1308530842      -12.3282684666        9.1184930784  W2        161             0.0000000000
       484       162  TIP3      OH2            -8.2064730842      -14.8302284666       -5.8137269216  W2        162             0.0000000000
       485       162  TIP3      H1             -7.3563330842      -14.4091384666       -5.6865669216  W2        162             0.0000000000
       486       162  TIP3      H2             -8.2009630842      -15.5702184666       -5.2065869216  W2        162             0.0000000000
       487       163  TIP3      OH2            -7.8119130842      -16.7764884666       -3.9901569216  W2        163             0.0000000000
       488       163  TIP3      H1             -8.5384530842      -17.2562284666       -3.5923969216  W2        163             0.0000000000
       489       163  TIP3      H2             -7.2305830842      -16.5710184666       -3.2579969216  W2        163             0.0000000000
       490       164  TIP3      OH2            -8.0527930842      -13.9917384666        0.9576030784  W2        164             0.0000000000
       491       164  TIP3      H1             -7.2193730842      -14.3697384666        0.6769630784  W2        164             0.0000000000
       492       164  TIP3      H2             -7.9407630842      -13.0486184666        0.8385130784  W2        164             0.0000000000
       493       165  TIP3      OH2            -9.5665630842      -11.1139884666        3.2644430784  W2        165             0.0000000000
       494       165  TIP3      H1            -10.2140330842      -10.7888384666        3.8899630784  W2        165             0.0000000000
       495       165  TIP3      H2            -10.0841630842      -11.5542184666        2.5902730784  W2        165             0.0000000000
       496       166  TIP3      OH2            -7.5436030842      -16.8756384666       -7.5990269216  W2        166             0.0000000000
       497       166  TIP3      H1             -8.0654930842      -16.5192284666       -8.3179369216  W2        166             0.0000000000
       498       166  TIP3      H2             -7.5766830842      -16.2008584666       -6.9209369216  W2        166             0.0000000000
       499       167  TIP3      OH2            -9.1947030842      -19.6360784666       -9.0483169216  W2        167             0.0000000000
       500       167  TIP3      H1             -9.0982630842      -18.9693784666       -9.7283469216  W2        167             0.0000000000
       501       167  TIP3      H2             -9.3347430842      -20.4514484666       -9.5297669216  W2        167             0.0000000000
       502       168  TIP3      OH2           -10.0252330842      -18.2558384666       -3.4272869216  W2        168             0.0000000000
       503       168  TIP3      H1            -10.1753530842      -19.2009784666       -3.4475069216  W2        168             0.0000000000
       504       168  TIP3      H2            -10.3787830842      -17.9746984666       -2.5833769216  W2        168             0.0000000000
       505       169  TIP3      OH2           -24.9899930842      -16.1776184666        0.5830930784  W2        169             0.0000000000
       506       169  TIP3      H1            -24.8057030842      -16.2594484666       -0.3526169216  W2        169             0.0000000000
       507       169  TIP3      H2            -24.1407030842      -16.3019184666        1.0067330784  W2        169             0.0000000000
       508       170  TIP3      OH2            -9.1689430842      -16.2855084666        6.2115430784  W2        170             0.0000000000
       509       170  TIP3      H1             -8.5862130842      -17.0202784666        6.4032630784  W2        170             0.0000000000
       510       170  TIP3      H2             -8.6050130842      -15.5134784666        6.2581230784  W2        170             0.0000000000
       511       171  TIP3      OH2            -7.6722330842      -18.3829284666        6.8960830784  W2        171             0.0000000000
       512       171  TIP3      H1             -8.5355630842      -18.7617184666        6.7305530784  W2        171             0.0000000000
       513       171  TIP3      H2             -7.0678630842      -19.1214484666        6.8216630784  W2        171             0.0000000000
       514       172  TIP3      OH2            -9.9473230842      -22.2280984666       -9.9307669216  W2        172             0.0000000000
       515       172  TIP3      H1             -9.3367430842      -22.5994184666       -9.2939469216  W2        172             0.0000000000
       516       172  TIP3      H2            -10.7841730842      -22.6494084666       -9.7347669216  W2        172             0.0000000000
       517       173  TIP3      OH2           -10.3147530842      -20.6732584666       -4.9647769216  W2        173             0.0000000000
       518       173  TIP3      H1            -10.0350430842      -21.5802184666       -4.8406069216  W2        173             0.0000000000
       519       173  TIP3      H2             -9.5555830842      -20.2391084666       -5.3538569216  W2        173             0.0000000000
       520       174  TIP3      OH2            -9.7029230842      -20.0915184666        0.4711130784  W2        174             0.0000000000
       521       174  TIP3      H1             -8.7701230842      -19.8795284666        0.4367130784  W2        174             0.0000000000
       522       174  TIP3      H2             -9.9381730842      -19.9903084666        1.3934130784  W2        174             0.0000000000
       523       175  TIP3      OH2            -9.6737330842      -19.3549884666        3.2470530784  W2        175             0.0000000000
       524       175  TIP3      H1            -10.5166030842      -19.0869484666        3.6130330784  W2        175             0.0000000000
       525       175  TIP3      H2             -9.2313030842      -18.5327984666        3.0361630784  W2        175             0.0000000000
       526       176  TIP3      OH2           -25.3925130842      -20.9071184666        6.7239730784  W2        176             0.0000000000
       527       176  TIP3      H1            -24.4730230842      -21.0292884666        6.9602830784  W2        176             0.0000000000
       528       176  TIP3      H2            -25.8420630842      -21.6571484666        7.1133230784  W2        176             0.0000000000
       529       177  TIP3      OH2            -7.3905730842      -25.3749684666        8.6005530784  W2        177             0.0000000000
       530       177  TIP3      H1             -7.0408730842      -26.0286184666        7.9950230784  W2        177             0.0000000000
       531       177  TIP3      H2             -7.2436230842      -24.5375584666        8.1608130784  W2        177             0.0000000000
       532       178  TIP3      OH2            -9.7012730842      -23.4103284666       -4.9165769216  W2        178             0.0000000000
       533       178  TIP3      H1             -9.5187730842      -23.8591784666       -4.0910769216  W2        178             0.0000000000
       534       178  TIP3      H2            -10.3009830842      -23.9948884666       -5.3801169216  W2        178             0.0000000000
       535       179  TIP3      OH2           -24.1712630842      -22.5949584666       -0.3847369216  W2        179             0.0000000000
       536       179  TIP3      H1            -23.7261030842      -23.3867084666       -0.0827669216  W2        179             0.0000000000
       537       179  TIP3      H2            -23.7049630842      -21.8784384666        0.0458230784  W2        179             0.0000000000
       538       180  TIP3      OH2           -25.8672330842      -19.5956584666        0.6842830784  W2        180             0.0000000000
       539       180  TIP3      H1            -25.3752530842      -19.8166084666       -0.1065169216  W2        180             0.0000000000
       540       180  TIP3      H2            -25.5051430842      -18.7553184666        0.9652330784  W2        180             0.0000000000
       541       181  TIP3      OH2            -7.8708530842      -23.2655084666        6.9496830784  W2        181             0.0000000000
       542       181  TIP3      H1             -8.7882830842      -22.9947984666        6.9140330784  W2        181             0.0000000000
       543       181  TIP3      H2             -7.7479130842      -23.8006684666        6.1656530784  W2        181             0.0000000000
       544       182  TIP3      OH2            -7.8346530842      -23.3425184666       -8.3885469216  W2        182             0.0000000000
       545       182  TIP3      H1             -7.4223930842      -24.0639484666       -8.8637469216  W2        182             0.0000000000
       546       182  TIP3      H2             -7.1530030842      -22.6730584666       -8.3301169216  W2        182             0.0000000000
       547       183  TIP3      OH2           -25.5535830842      -23.3377484666       -5.2614769216  W2        183             0.0000000000
       548       183  TIP3      H1            -26.4787430842      -23.1290884666       -5.3909269216  W2        183             0.0000000000
       549       183  TIP3      H2            -25.0995930842      -22.8536684666       -5.9512469216  W2        183             0.0000000000
       550       184  TIP3      OH2           -10.7828630842       -8.3535784666       -3.3157369216  W2        184             0.0000000000
       551       184  TIP3      H1            -10.1305730842       -8.7013684666       -3.9238269216  W2        184             0.0000000000
       552       184  TIP3      H2            -10.2724830842       -7.8652584666       -2.6697669216  W2        184             0.0000000000
       553       185  TIP3      OH2           -25.5900430842      -24.5998484666        3.0827730784  W2        185             0.0000000000
       554       185  TIP3      H1            -26.2549930842      -24.8458184666        3.7258630784  W2        185             0.0000000000
       555       185  TIP3      H2            -26.0329130842      -23.9778084666        2.5055730784  W2        185             0.0000000000
       556       186  TIP3      OH2           -23.3981130842      -11.4244384666        7.2273530784  W2        186             0.0000000000
       557       186  TIP3      H1            -24.2188630842      -11.2497884666        6.7668230784  W2        186             0.0000000000
       558       186  TIP3      H2            -23.6503330842      -11.4979684666        8.1477930784  W2        186             0.0000000000
       559       187  TIP3      OH2           -20.4438230842      -10.4503184666        3.4857530784  W2        187             0.0000000000
       560       187  TIP3      H1            -20.8687130842       -9.6404684666        3.2032130784  W2        187             0.0000000000
       561       187  TIP3      H2            -19.5395430842      -10.3649084666        3.1837330784  W2        187             0.0000000000
       562       188  TIP3      OH2           -16.1326830842       -9.0513184666        6.4451230784  W2        188             0.0000000000
       563       188  TIP3      H1            -15.9479330842       -9.3847084666        7.3231530784  W2        188             0.0000000000
       564       188  TIP3      H2            -15.2862330842       -8.7414584666        6.1230430784  W2        188             0.0000000000
       565       189  TIP3      OH2           -13.7876430842       -7.7654284666        5.6892630784  W2        189             0.0000000000
       566       189  TIP3      H1            -13.1107530842       -8.3981984666        5.4491830784  W2        189             0.0000000000
       567       189  TIP3      H2            -13.4657630842       -7.3643784666        6.4965930784  W2        189             0.0000000000
       568       190  TIP3      OH2            -8.8702630842      -25.1758784666        4.7687630784  W2        190             0.0000000000
       569       190  TIP3      H1             -9.6829130842      -24.8508484666        4.3812330784  W2        190             0.0000000000
       570       190  TIP3      H2             -8.6374130842      -25.9360284666        4.2356730784  W2        190             0.0000000000
       571       191  TIP3      OH2           -23.0421530842       -7.1939284666        3.5332830784  W2        191             0.0000000000
       572       191  TIP3      H1            -23.7625130842       -6.7538284666        3.0820530784  W2        191             0.0000000000
       573       191  TIP3      H2            -23.4077530842       -7.4444584666        4.3816830784  W2        191             0.0000000000
       574       192  TIP3      OH2           -20.5748930842       -7.5935384666        2.5630030784  W2        192             0.0000000000
       575       192  TIP3      H1            -21.4396730842       -7.5216884666        2.9670130784  W2        192             0.0000000000
       576       192  TIP3      H2            -20.6299930842       -7.0468084666        1.7792530784  W2        192             0.0000000000
       577       193  TIP3      OH2           -15.8643330842       -7.7056484666        1.7386030784  W2        193             0.0000000000
       578       193  TIP3      H1            -16.3209330842       -7.1766784666        1.0844430784  W2        193             0.0000000000
       579       193  TIP3      H2            -15.7015330842       -7.1025084666        2.4638330784  W2        193             0.0000000000
       580       194  TIP3      OH2           -13.5367030842       -8.8276884666        2.6836330784  W2        194             0.0000000000
       581       194  TIP3      H1            -14.4413330842       -8.6626684666        2.4178430784  W2        194             0.0000000000
       582       194  TIP3      H2            -13.1078430842       -7.9744684666        2.6179730784  W2        194             0.0000000000
       583       195  TIP3      OH2           -10.9325130842       -7.2577784666        2.9784130784  W2        195             0.0000000000
       584       195  TIP3      H1            -11.1143130842       -6.3418884666        2.7679030784  W2        195             0.0000000000
       585       195  TIP3      H2            -10.7557330842       -7.6680684666        2.1318730784  W2        195             0.0000000000
       586       196  TIP3      OH2           -23.6273430842       -8.5706784666        0.4434630784  W2        196             0.0000000000
       587       196  TIP3      H1            -23.6457430842       -8.9961684666        1.3006930784  W2        196             0.0000000000
       588       196  TIP3      H2            -22.8225530842       -8.8891784666        0.0346830784  W2        196             0.0000000000
       589       197  TIP3      OH2           -21.4860330842       -9.8608084666       -0.9015469216  W2        197             0.0000000000
       590       197  TIP3      H1            -21.7049630842      -10.7770684666       -0.7319469216  W2        197             0.0000000000
       591       197  TIP3      H2            -20.6618130842       -9.7207684666       -0.4354069216  W2        197             0.0000000000
       592       198  TIP3      OH2           -18.9487830842       -9.3908784666       -0.0527469216  W2        198             0.0000000000
       593       198  TIP3      H1            -18.7362130842      -10.2789784666       -0.3396569216  W2        198             0.0000000000
       594       198  TIP3      H2            -18.8842730842       -9.4251084666        0.9016530784  W2        198             0.0000000000
       595       199  TIP3      OH2           -15.4404130842      -23.7268184666       -0.9084169216  W2        199             0.0000000000
       596       199  TIP3      H1            -16.1147330842      -24.3562584666       -0.6528369216  W2        199             0.0000000000
       597       199  TIP3      H2            -14.8764930842      -24.2109284666       -1.5116269216  W2        199             0.0000000000
       598       200  TIP3      OH2           -10.2976930842      -25.6194184666       -0.7957069216  W2        200             0.0000000000
       599       200  TIP3      H1             -9.6939330842      -25.0718784666       -1.2976069216  W2        200             0.0000000000
       600       200  TIP3      H2            -11.1674930842      -25.3003784666       -1.0362969216  W2        200             0.0000000000
       601       201  TIP3      OH2            -8.5706530842      -24.4805484666       -2.4626169216  W2        201             0.0000000000
       602       201  TIP3      H1             -7.9589030842      -24.9949784666       -2.9892569216  W2        201             0.0000000000
       603       201  TIP3      H2             -8.1883130842      -23.6033384666       -2.4391769216  W2        201             0.0000000000
       604       202  TIP3      OH2           -23.1136630842      -25.0927884666       -3.0864269216  W2        202             0.0000000000
       605       202  TIP3      H1            -23.8906830842      -25.3272984666       -3.5938369216  W2        202             0.0000000000
       606       202  TIP3      H2            -22.5833030842      -25.8895784666       -3.0776269216  W2        202             0.0000000000
       607       203  TIP3      OH2           -24.2773230842      -25.2949784666       -7.2828169216  W2        203             0.0000000000
       608       203  TIP3      H1            -23.8382530842      -24.6839284666       -7.8744669216  W2        203             0.0000000000
       609       203  TIP3      H2            -24.9110830842      -24.7565684666       -6.8088169216  W2        203             0.0000000000
       610       204  TIP3      OH2           -18.5344030842      -25.1660784666       -3.2731169216  W2        204             0.0000000000
       611       204  TIP3      H1            -17.6600630842      -24.7776484666       -3.3026869216  W2        204             0.0000000000
       612       204  TIP3      H2            -18.6703230842      -25.3812984666       -2.3503969216  W2        204             0.0000000000
       613       205  TIP3      OH2           -12.9775630842      -25.1360984666       -1.6239469216  W2        205             0.0000000000
       614       205  TIP3      H1            -12.9014030842      -25.0409384666       -2.5733469216  W2        205             0.0000000000
       615       205  TIP3      H2            -13.2526430842      -26.0438084666       -1.4950369216  W2        205             0.0000000000
       616       206  TIP3      OH2           -11.6243030842      -25.1103184666       -5.9314469216  W2        206             0.0000000000
       617       206  TIP3      H1            -12.3271930842      -24.4953984666       -6.1413069216  W2        206             0.0000000000
       618       206  TIP3      H2            -12.0691630842      -25.9476484666       -5.8003569216  W2        206             0.0000000000
       619       207  TIP3      OH2           -24.3763730842       -9.3467584666       -6.3853069216  W2        207             0.0000000000
       620       207  TIP3      H1            -25.0613830842       -9.3848684666       -7.0527969216  W2        207             0.0000000000
       621       207  TIP3      H2            -24.3726530842       -8.4339984666       -6.0970969216  W2        207             0.0000000000
       622       208  TIP3      OH2           -22.4164130842      -23.3788284666       -8.8404069216  W2        208             0.0000000000
       623       208  TIP3      H1            -21.9250730842      -24.0085884666       -9.3678569216  W2        208             0.0000000000
       624       208  TIP3      H2            -21.7927830842      -23.0828884666       -8.1772869216  W2        208             0.0000000000
       625       209  TIP3      OH2           -17.3904030842      -23.0856784666       -6.3833569216  W2        209             0.0000000000
       626       209  TIP3      H1            -17.2122730842      -23.7323584666       -5.7004969216  W2        209             0.0000000000
       627       209  TIP3      H2            -17.4437830842      -22.2519084666       -5.9162469216  W2        209             0.0000000000
       628       210  TIP3      OH2           -15.5120230842       -8.1372684666       -7.9876869216  W2        210             0.0000000000
       629       210  TIP3      H1            -14.6460030842       -7.7705284666       -8.1658669216  W2        210             0.0000000000
       630       210  TIP3      H2            -15.7587430842       -8.5764684666       -8.8016069216  W2        210             0.0000000000
       631       211  TIP3      OH2            -8.8030630842       -8.5742384666       -5.3085769216  W2        211             0.0000000000
       632       211  TIP3      H1             -8.9973530842       -9.3220284666       -5.8736169216  W2        211             0.0000000000
       633       211  TIP3      H2             -8.8420530842       -7.8162284666       -5.8917869216  W2        211             0.0000000000
       634       212  TIP3      OH2           -23.1558630842      -24.5785984666        6.4311930784  W2        212             0.0000000000
       635       212  TIP3      H1            -23.5220430842      -25.3443384666        6.8736630784  W2        212             0.0000000000
       636       212  TIP3      H2            -22.2430130842      -24.5495784666        6.7177030784  W2        212             0.0000000000
       637       213  TIP3      OH2           -21.1827830842      -25.2281584666        7.9669030784  W2        213             0.0000000000
       638       213  TIP3      H1            -20.2844230842      -25.5021384666        7.7822430784  W2        213             0.0000000000
       639       213  TIP3      H2            -21.5694730842      -25.9705584666        8.4311630784  W2        213             0.0000000000
       640       214  TIP3      OH2           -22.5582530842       -8.4266784666       -9.3600969216  W2        214             0.0000000000
       641       214  TIP3      H1            -22.8257930842       -8.1403884666       -8.4867869216  W2        214             0.0000000000
       642       214  TIP3      H2            -21.7869930842       -8.9727584666       -9.2078469216  W2        214             0.0000000000
       643       215  TIP3      OH2           -12.7615530842      -25.8956284666        8.1491830784  W2        215             0.0000000000
       644       215  TIP3      H1            -12.6848330842      -26.3215584666        9.0029530784  W2        215             0.0000000000
       645       215  TIP3      H2            -11.8678930842      -25.8821584666        7.8065330784  W2        215             0.0000000000
       646       216  TIP3      OH2            -9.5854430842       -9.8229984666        6.8416030784  W2        216             0.0000000000
       647       216  TIP3      H1            -10.3672530842      -10.0091984666        6.3216630784  W2        216             0.0000000000
       648       216  TIP3      H2             -9.6574530842       -8.8935684666        7.0588530784  W2        216             0.0000000000
       649       217  TIP3      OH2             4.8205969158      -15.9365584666       -3.1276769216  W2        217             0.0000000000
       650       217  TIP3      H1              4.9097069158      -14.9927384666       -3.2599669216  W2        217             0.0000000000
       651       217  TIP3      H2              4.1823569158      -16.2119184666       -3.7857369216  W2        217             0.0000000000
       652       218  TIP3      OH2             3.7537269158      -16.6814884666        0.2911430784  W2        218             0.0000000000
       653       218  TIP3      H1              3.7154769158      -17.3278584666        0.9961030784  W2        218             0.0000000000
       654       218  TIP3      H2              3.4313769158      -17.1480484666       -0.4799869216  W2        218             0.0000000000
       655       219  TIP3      OH2            -3.8777730842      -17.0672784666        1.8841330784  W2        219             0.0000000000
       656       219  TIP3      H1             -3.8365630842      -17.6929484666        2.6073730784  W2        219             0.0000000000
       657       219  TIP3      H2             -3.1750030842      -16.4434184666        2.0661730784  W2        219             0.0000000000
       658       220  TIP3      OH2             7.4597469158      -13.7424484666       -1.4073469216  W2        220             0.0000000000
       659       220  TIP3      H1              7.0190169158      -14.4628484666       -0.9567869216  W2        220             0.0000000000
       660       220  TIP3      H2              7.4467169158      -13.0217284666       -0.7775769216  W2        220             0.0000000000
       661       221  TIP3      OH2            -2.9544630842      -12.6173884666        0.4190430784  W2        221             0.0000000000
       662       221  TIP3      H1             -3.3239430842      -13.4193384666        0.0494730784  W2        221             0.0000000000
       663       221  TIP3      H2             -2.0133530842      -12.7858984666        0.4653830784  W2        221             0.0000000000
       664       222  TIP3      OH2            -6.3444130842      -18.9571284666       -4.1880769216  W2        222             0.0000000000
       665       222  TIP3      H1             -6.7920730842      -18.1112584666       -4.2064269216  W2        222             0.0000000000
       666       222  TIP3      H2             -6.9052930842      -19.5367084666       -4.7035669216  W2        222             0.0000000000
       667       223  TIP3      OH2            -5.6338030842      -16.7951684666       -2.0622769216  W2        223             0.0000000000
       668       223  TIP3      H1             -5.4204530842      -17.5650084666       -1.5349769216  W2        223             0.0000000000
       669       223  TIP3      H2             -4.8960430842      -16.7054984666       -2.6655169216  W2        223             0.0000000000
       670       224  TIP3      OH2             4.5712969158       -8.6382784666       -1.1953069216  W2        224             0.0000000000
       671       224  TIP3      H1              5.1909369158       -9.3148084666       -1.4683869216  W2        224             0.0000000000
       672       224  TIP3      H2              4.3630369158       -8.8561984666       -0.2868169216  W2        224             0.0000000000
       673       225  TIP3      OH2             2.1431669158      -14.2493484666        0.6972430784  W2        225             0.0000000000
       674       225  TIP3      H1              2.4469569158      -14.9352084666        0.1026530784  W2        225             0.0000000000
       675       225  TIP3      H2              2.8645669158      -14.1304784666        1.3150430784  W2        225             0.0000000000
       676       226  TIP3      OH2            10.8061469158      -22.6478184666        1.5578630784  W2        226             0.0000000000
       677       226  TIP3      H1             10.8553669158      -22.0376984666        2.2937730784  W2        226             0.0000000000
       678       226  TIP3      H2             11.2316569158      -22.1867284666        0.8349730784  W2        226             0.0000000000
       679       227  TIP3      OH2             5.2838669158      -19.8551084666        1.0247230784  W2        227             0.0000000000
       680       227  TIP3      H1              5.4264569158      -20.8014084666        1.0448830784  W2        227             0.0000000000
       681       227  TIP3      H2              5.1777669158      -19.6481284666        0.0962130784  W2        227             0.0000000000
       682       228  TIP3      OH2            -1.5613030842      -21.7534684666       -1.7027969216  W2        228             0.0000000000
       683       228  TIP3      H1             -1.5181930842      -20.8936184666       -2.1211669216  W2        228             0.0000000000
       684       228  TIP3      H2             -2.0188930842      -22.3059984666       -2.3364769216  W2        228             0.0000000000
       685       229  TIP3      OH2             6.1609669158      -21.6229084666       -3.3019669216  W2        229             0.0000000000
       686       229  TIP3      H1              6.8073969158      -21.9515884666       -2.6772069216  W2        229             0.0000000000
       687       229  TIP3      H2              6.6709069158      -21.1050084666       -3.9248269216  W2        229             0.0000000000
       688       230  TIP3      OH2            -4.9411530842      -19.3568884666       -0.9406569216  W2        230             0.0000000000
       689       230  TIP3      H1             -4.2874930842      -19.9067184666       -0.5086469216  W2        230             0.0000000000
       690       230  TIP3      H2             -4.9172230842      -19.6309884666       -1.8574569216  W2        230             0.0000000000
       691       231  TIP3      OH2             0.2152969158      -17.8067584666       -1.7255069216  W2        231             0.0000000000
       692       231  TIP3      H1              0.8313969158      -18.3332184666       -1.2161069216  W2        231             0.0000000000
       693       231  TIP3      H2             -0.3708230842      -18.4468884666       -2.1291469216  W2        231             0.0000000000
       694       232  TIP3      OH2            11.1976069158      -21.1698984666        3.7938430784  W2        232             0.0000000000
       695       232  TIP3      H1             10.5090669158      -20.5118284666        3.6985030784  W2        232             0.0000000000
       696       232  TIP3      H2             11.2130669158      -21.3671084666        4.7303830784  W2        232             0.0000000000
       697       233  TIP3      OH2            -2.7511130842      -22.8356284666        2.3712830784  W2        233             0.0000000000
       698       233  TIP3      H1             -2.9699430842      -22.3055684666        1.6048830784  W2        233             0.0000000000
       699       233  TIP3      H2             -3.4190230842      -22.6090784666        3.0184230784  W2        233             0.0000000000
       700       234  TIP3      OH2             4.6178669158      -13.3355184666       -4.0848069216  W2        234             0.0000000000
       701       234  TIP3      H1              4.3223769158      -13.6582884666       -4.9361169216  W2        234             0.0000000000
       702       234  TIP3      H2              4.2936469158      -12.4358484666       -4.0435469216  W2        234             0.0000000000
       703       235  TIP3      OH2            -0.1819730842      -15.1600584666        2.6586530784  W2        235             0.0000000000
       704       235  TIP3      H1             -0.9220630842      -14.5619084666        2.7621730784  W2        235             0.0000000000
       705       235  TIP3      H2              0.5319769158      -14.6060984666        2.3430130784  W2        235             0.0000000000
       706       236  TIP3      OH2             7.9248069158      -22.3319784666       -1.3213769216  W2        236             0.0000000000
       707       236  TIP3      H1              7.7096069158      -23.0976384666       -0.7887769216  W2        236             0.0000000000
       708       236  TIP3      H2              8.5805469158      -21.8595184666       -0.8085269216  W2        236             0.0000000000
       709       237  TIP3      OH2            -3.1573830842      -20.9434484666        0.3235030784  W2        237             0.0000000000
       710       237  TIP3      H1             -2.5437530842      -20.3106884666        0.6967430784  W2        237             0.0000000000
       711       237  TIP3      H2             -2.6453130842      -21.4159484666       -0.3328069216  W2        237             0.0000000000
       712       238  TIP3      OH2            -1.7745430842      -13.1957584666        3.4458030784  W2        238             0.0000000000
       713       238  TIP3      H1             -1.7797830842      -12.3164084666        3.0677330784  W2        238             0.0000000000
       714       238  TIP3      H2             -2.6281330842      -13.2793484666        3.8707930784  W2        238             0.0000000000
       715       239  TIP3      OH2            -5.6534530842      -13.5249684666       -5.7722669216  W2        239             0.0000000000
       716       239  TIP3      H1             -5.9253630842      -13.2958684666       -6.6609769216  W2        239             0.0000000000
       717       239  TIP3      H2             -5.6078830842      -12.6870884666       -5.3117369216  W2        239             0.0000000000
       718       240  TIP3      OH2             7.9715169158      -11.9033784666        0.9405830784  W2        240             0.0000000000
       719       240  TIP3      H1              7.0298869158      -11.8449884666        1.1022730784  W2        240             0.0000000000
       720       240  TIP3      H2              8.2481269158      -10.9973284666        0.8035530784  W2        240             0.0000000000
       721       241  TIP3      OH2             8.2722169158      -23.6168484666        2.3579730784  W2        241             0.0000000000
       722       241  TIP3      H1              7.5361369158      -23.0061384666        2.3201030784  W2        241             0.0000000000
       723       241  TIP3      H2              8.9556169158      -23.2019484666        1.8316130784  W2        241             0.0000000000
       724       242  TIP3      OH2             1.2753569158      -25.5301184666       -0.1762269216  W2        242             0.0000000000
       725       242  TIP3      H1              1.1577769158      -26.4785184666       -0.2303969216  W2        242             0.0000000000
       726       242  TIP3      H2              0.4203669158      -25.1975084666        0.0968830784  W2        242             0.0000000000
       727       243  TIP3      OH2             6.2236369158      -10.1220284666       -2.4342569216  W2        243             0.0000000000
       728       243  TIP3      H1              6.6488669158      -10.8292384666       -2.9192969216  W2        243             0.0000000000
       729       243  TIP3      H2              6.5406369158       -9.3207584666       -2.8510369216  W2        243             0.0000000000
       730       244  TIP3      OH2             7.3832869158      -12.2211784666       -3.9255969216  W2        244             0.0000000000
       731       244  TIP3      H1              7.1257669158      -12.9111684666       -4.5370069216  W2        244             0.0000000000
       732       244  TIP3      H2              7.4543669158      -12.6640584666       -3.0800069216  W2        244             0.0000000000
       733       245  TIP3      OH2             9.0693069158      -13.6545084666        4.5517530784  W2        245             0.0000000000
       734       245  TIP3      H1              9.2089369158      -14.2462584666        3.8124530784  W2        245             0.0000000000
       735       245  TIP3      H2              9.2365869158      -12.7819184666        4.1956330784  W2        245             0.0000000000
       736       246  TIP3      OH2             3.5418469158      -16.6925584666       -5.6756469216  W2        246             0.0000000000
       737       246  TIP3      H1              2.8303969158      -16.1575884666       -6.0275969216  W2        246             0.0000000000
       738       246  TIP3      H2              4.2328069158      -16.6373484666       -6.3357569216  W2        246             0.0000000000
       739       247  TIP3      OH2             3.5957669158      -18.2351284666       -8.6371469216  W2        247             0.0000000000
       740       247  TIP3      H1              4.2967569158      -18.2124384666       -7.9857469216  W2        247             0.0000000000
       741       247  TIP3      H2              3.8980569158      -18.8631584666       -9.2932169216  W2        247             0.0000000000
       742       248  TIP3      OH2            10.9112369158      -17.3147084666        2.6177930784  W2        248             0.0000000000
       743       248  TIP3      H1             10.2586469158      -16.6201484666        2.7068830784  W2        248             0.0000000000
       744       248  TIP3      H2             11.3762669158      -17.1046184666        1.8079530784  W2        248             0.0000000000
       745       249  TIP3      OH2             6.9476169158      -16.4832284666       -4.7240569216  W2        249             0.0000000000
       746       249  TIP3      H1              6.2157169158      -16.2548584666       -4.1509969216  W2        249             0.0000000000
       747       249  TIP3      H2              7.3948369158      -17.1969584666       -4.2693069216  W2        249             0.0000000000
       748       250  TIP3      OH2             6.8449669158      -18.3089684666        4.3436430784  W2        250             0.0000000000
       749       250  TIP3      H1              6.9248769158      -17.5455284666        4.9154930784  W2        250             0.0000000000
       750       250  TIP3      H2              6.2437369158      -18.0297284666        3.6531530784  W2        250             0.0000000000
       751       251  TIP3      OH2            -1.4070130842      -15.8526084666       -2.8415569216  W2        251             0.0000000000
       752       251  TIP3      H1             -1.7374930842      -16.2232684666       -3.6598569216  W2        251             0.0000000000
       753       251  TIP3      H2             -0.8186030842      -16.5232084666       -2.4947269216  W2        251             0.0000000000
       754       252  TIP3      OH2            -0.0402630842      -12.4245484666       -0.1603369216  W2        252             0.0000000000
       755       252  TIP3      H1             -0.1351330842      -13.0032384666       -0.9168769216  W2        252             0.0000000000
       756       252  TIP3      H2              0.6890969158      -12.7959784666        0.3359430784  W2        252             0.0000000000
       757       253  TIP3      OH2            -1.0404630842      -17.0840484666        0.7919430784  W2        253             0.0000000000
       758       253  TIP3      H1             -0.4752130842      -16.9626284666        0.0290630784  W2        253             0.0000000000
       759       253  TIP3      H2             -0.7215730842      -16.4465484666        1.4307930784  W2        253             0.0000000000
       760       254  TIP3      OH2             5.2687569158      -11.5808584666        1.5259930784  W2        254             0.0000000000
       761       254  TIP3      H1              5.0284169158      -10.9185484666        2.1739130784  W2        254             0.0000000000
       762       254  TIP3      H2              5.0705769158      -12.4153384666        1.9509530784  W2        254             0.0000000000
       763       255  TIP3      OH2            -0.1603930842      -12.6847784666        5.5091330784  W2        255             0.0000000000
       764       255  TIP3      H1             -0.4716430842      -11.9024584666        5.9644530784  W2        255             0.0000000000
       765       255  TIP3      H2             -0.8103730842      -12.8378684666        4.8233330784  W2        255             0.0000000000
       766       256  TIP3      OH2             5.8185669158      -17.3209384666       -7.0389369216  W2        256             0.0000000000
       767       256  TIP3      H1              6.3981169158      -17.1709084666       -6.2920469216  W2        256             0.0000000000
       768       256  TIP3      H2              6.2325669158      -16.8501984666       -7.7622969216  W2        256             0.0000000000
       769       257  TIP3      OH2            -3.2404030842      -16.4866684666        4.7377030784  W2        257             0.0000000000
       770       257  TIP3      H1             -3.1700830842      -15.8359884666        5.4362030784  W2        257             0.0000000000
       771       257  TIP3      H2             -4.1311830842      -16.3839184666        4.4027930784  W2        257             0.0000000000
       772       258  TIP3      OH2             3.5450569158      -10.5840884666       -3.6036269216  W2        258             0.0000000000
       773       258  TIP3      H1              4.0188169158      -10.2884584666       -2.8262069216  W2        258             0.0000000000
       774       258  TIP3      H2              2.9819869158       -9.8459284666       -3.8366669216  W2        258             0.0000000000
       775       259  TIP3      OH2            -1.9208030842      -10.6132784666        6.2725130784  W2        259             0.0000000000
       776       259  TIP3      H1             -1.9132730842      -10.7493084666        5.3250630784  W2        259             0.0000000000
       777       259  TIP3      H2             -2.8367630842      -10.7304684666        6.5245130784  W2        259             0.0000000000
       778       260  TIP3      OH2             9.5174069158      -25.5708984666       -7.2259669216  W2        260             0.0000000000
       779       260  TIP3      H1              8.6174769158      -25.4319984666       -6.9309069216  W2        260             0.0000000000
       780       260  TIP3      H2              9.7692469158      -24.7394384666       -7.6277969216  W2        260             0.0000000000
       781       261  TIP3      OH2            -2.4167430842      -16.7831784666       -5.2522769216  W2        261             0.0000000000
       782       261  TIP3      H1             -2.7086130842      -16.0150084666       -5.7431469216  W2        261             0.0000000000
       783       261  TIP3      H2             -3.0912230842      -17.4425584666       -5.4151369216  W2        261             0.0000000000
       784       262  TIP3      OH2            10.7065469158      -11.2046584666       -8.8495769216  W2        262             0.0000000000
       785       262  TIP3      H1             10.7798969158      -10.2656384666       -8.6790469216  W2        262             0.0000000000
       786       262  TIP3      H2             11.6120569158      -11.5097984666       -8.9058469216  W2        262             0.0000000000
       787       263  TIP3      OH2            -6.3237330842      -14.4202584666        3.5627030784  W2        263             0.0000000000
       788       263  TIP3      H1             -6.8248930842      -14.4483184666        2.7476730784  W2        263             0.0000000000
       789       263  TIP3      H2             -6.3183630842      -15.3259384666        3.8724330784  W2        263             0.0000000000
       790       264  TIP3      OH2            -6.5734630842      -11.6398784666        0.4467230784  W2        264             0.0000000000
       791       264  TIP3      H1             -5.6274030842      -11.7841784666        0.4276730784  W2        264             0.0000000000
       792       264  TIP3      H2             -6.6858330842      -10.8555984666        0.9838430784  W2        264             0.0000000000
       793       265  TIP3      OH2            11.6243869158      -10.9739084666        6.1290930784  W2        265             0.0000000000
       794       265  TIP3      H1             11.5750669158      -11.9290984666        6.0918530784  W2        265             0.0000000000
       795       265  TIP3      H2             10.7976169158      -10.7063784666        6.5304730784  W2        265             0.0000000000
       796       266  TIP3      OH2             2.6027869158      -11.3999884666        5.0052330784  W2        266             0.0000000000
       797       266  TIP3      H1              2.6902469158      -10.5735284666        5.4801430784  W2        266             0.0000000000
       798       266  TIP3      H2              1.7392969158      -11.7296084666        5.2541630784  W2        266             0.0000000000
       799       267  TIP3      OH2             3.0173669158       -7.6276184666       -5.1887069216  W2        267             0.0000000000
       800       267  TIP3      H1              2.9419669158       -7.7488984666       -6.1351869216  W2        267             0.0000000000
       801       267  TIP3      H2              3.0502369158       -6.6783484666       -5.0702469216  W2        267             0.0000000000
       802       268  TIP3      OH2            -3.3292530842       -8.8389184666       -3.4078069216  W2        268             0.0000000000
       803       268  TIP3      H1             -3.1772130842       -9.1868784666       -2.5291569216  W2        268             0.0000000000
       804       268  TIP3      H2             -4.1802130842       -9.1951884666       -3.6630869216  W2        268             0.0000000000
       805       269  TIP3      OH2             6.1189669158       -8.4735984666       -8.1864669216  W2        269             0.0000000000
       806       269  TIP3      H1              6.4938069158       -9.2179884666       -8.6572069216  W2        269             0.0000000000
       807       269  TIP3      H2              6.1233369158       -8.7435384666       -7.2681369216  W2        269             0.0000000000
       808       270  TIP3      OH2             5.7877769158       -8.5478884666       -5.4372469216  W2        270             0.0000000000
       809       270  TIP3      H1              4.8527569158       -8.4476984666       -5.2585469216  W2        270             0.0000000000
       810       270  TIP3      H2              6.0679669158       -9.2572884666       -4.8589269216  W2        270             0.0000000000
       811       271  TIP3      OH2             8.7763669158      -19.4806584666        6.6093130784  W2        271             0.0000000000
       812       271  TIP3      H1              8.3690469158      -19.0000984666        5.8886430784  W2        271             0.0000000000
       813       271  TIP3      H2              8.8169369158      -20.3860584666        6.3013930784  W2        271             0.0000000000
       814       272  TIP3      OH2            -4.0746830842      -13.0967184666        4.6059830784  W2        272             0.0000000000
       815       272  TIP3      H1             -3.8585530842      -13.4581584666        5.4655630784  W2        272             0.0000000000
       816       272  TIP3      H2             -4.9302130842      -13.4713384666        4.3963330784  W2        272             0.0000000000
       817       273  TIP3      OH2            -1.4558830842      -24.6266684666        0.6014030784  W2        273             0.0000000000
       818       273  TIP3      H1             -2.3175130842      -24.7138484666        0.1936930784  W2        273             0.0000000000
       819       273  TIP3      H2             -1.4783130842      -23.7706584666        1.0291630784  W2        273             0.0000000000
       820       274  TIP3      OH2             3.2068969158      -24.9046284666        3.9761030784  W2        274             0.0000000000
       821       274  TIP3      H1              3.6272069158      -25.3199184666        4.7291630784  W2        274             0.0000000000
       822       274  TIP3      H2              2.2738569158      -25.0832984666        4.0933030784  W2        274             0.0000000000
       823       275  TIP3      OH2             6.5333869158      -21.1491084666        4.8295530784  W2        275             0.0000000000
       824       275  TIP3      H1              6.0193369158      -21.2748884666        5.6271530784  W2        275             0.0000000000
       825       275  TIP3      H2              6.3778569158      -20.2367984666        4.5851730784  W2        275             0.0000000000
       826       276  TIP3      OH2             7.2958769158      -16.2881084666       -9.4091469216  W2        276             0.0000000000
       827       276  TIP3      H1              7.3379569158      -16.5107184666      -10.3391469216  W2        276             0.0000000000
       828       276  TIP3      H2              8.1450869158      -15.8893984666       -9.2191569216  W2        276             0.0000000000
       829       277  TIP3      OH2             2.8686269158      -22.4122884666       -8.7388169216  W2        277             0.0000000000
       830       277  TIP3      H1              2.6151069158      -22.3931284666       -7.8160069216  W2        277             0.0000000000
       831       277  TIP3      H2              2.6118369158      -23.2837484666       -9.0401969216  W2        277             0.0000000000
       832       278  TIP3      OH2            -1.3648730842      -19.6612184666        1.6964230784  W2        278             0.0000000000
       833       278  TIP3      H1             -2.0066630842      -19.7014884666        2.4054330784  W2        278             0.0000000000
       834       278  TIP3      H2             -1.3276730842      -18.7347484666        1.4587230784  W2        278             0.0000000000
       835       279  TIP3      OH2            -1.3679630842      -19.4402084666       -3.3915769216  W2        279             0.0000000000
       836       279  TIP3      H1             -2.2606730842      -19.7805984666       -3.4501969216  W2        279             0.0000000000
       837       279  TIP3      H2             -0.9173030842      -19.8171184666       -4.1472569216  W2        279             0.0000000000
       838       280  TIP3      OH2             4.1675869158      -19.0241784666       -4.5744969216  W2        280             0.0000000000
       839       280  TIP3      H1              3.7586169158      -18.2093184666       -4.8660169216  W2        280             0.0000000000
       840       280  TIP3      H2              4.8882069158      -19.1641684666       -5.1887869216  W2        280             0.0000000000
       841       281  TIP3      OH2             3.2697469158      -18.8485384666        6.9135730784  W2        281             0.0000000000
       842       281  TIP3      H1              2.7071269158      -19.5533784666        7.2343530784  W2        281             0.0000000000
       843       281  TIP3      H2              4.0960869158      -18.9693484666        7.3813330784  W2        281             0.0000000000
       844       282  TIP3      OH2             5.1723569158      -19.5781384666       -1.7605269216  W2        282             0.0000000000
       845       282  TIP3      H1              4.9768069158      -18.9724584666       -2.4754669216  W2        282             0.0000000000
       846       282  TIP3      H2              5.3536169158      -20.4116184666       -2.1948969216  W2        282             0.0000000000
       847       283  TIP3      OH2            -3.6148230842      -19.3408684666        3.5636230784  W2        283             0.0000000000
       848       283  TIP3      H1             -3.6528830842      -18.9407084666        4.4323330784  W2        283             0.0000000000
       849       283  TIP3      H2             -4.1057130842      -20.1576284666        3.6539130784  W2        283             0.0000000000
       850       284  TIP3      OH2            -0.2490830842      -21.9666384666       -9.6377769216  W2        284             0.0000000000
       851       284  TIP3      H1             -0.6800130842      -22.4116284666       -8.9080369216  W2        284             0.0000000000
       852       284  TIP3      H2             -0.9672130842      -21.5950084666      -10.1500269216  W2        284             0.0000000000
       853       285  TIP3      OH2            -7.0067430842      -22.2246884666       -2.5859069216  W2        285             0.0000000000
       854       285  TIP3      H1             -6.3759730842      -22.2534784666       -1.8665169216  W2        285             0.0000000000
       855       285  TIP3      H2             -6.5573130842      -22.6498184666       -3.3163169216  W2        285             0.0000000000
       856       286  TIP3      OH2            -5.7325330842      -21.4784884666       -7.1618669216  W2        286             0.0000000000
       857       286  TIP3      H1             -5.2583630842      -20.8874984666       -7.7467769216  W2        286             0.0000000000
       858       286  TIP3      H2             -6.4498930842      -20.9481984666       -6.8148569216  W2        286             0.0000000000
       859       287  TIP3      OH2             4.4362769158      -17.9400084666        2.9107130784  W2        287             0.0000000000
       860       287  TIP3      H1              4.7597569158      -18.5710384666        2.2677630784  W2        287             0.0000000000
       861       287  TIP3      H2              3.9962069158      -18.4747884666        3.5714530784  W2        287             0.0000000000
       862       288  TIP3      OH2             1.2135669158      -22.0124584666       -2.3051669216  W2        288             0.0000000000
       863       288  TIP3      H1              0.3026769158      -21.9557784666       -2.0165669216  W2        288             0.0000000000
       864       288  TIP3      H2              1.7188569158      -22.0729084666       -1.4944469216  W2        288             0.0000000000
       865       289  TIP3      OH2            -3.9580930842      -20.3838284666       -3.4784069216  W2        289             0.0000000000
       866       289  TIP3      H1             -4.8472930842      -20.2842784666       -3.8184469216  W2        289             0.0000000000
       867       289  TIP3      H2             -3.6616030842      -21.2255284666       -3.8246169216  W2        289             0.0000000000
       868       290  TIP3      OH2            -0.3049130842      -20.3835684666       -5.8219469216  W2        290             0.0000000000
       869       290  TIP3      H1              0.6266369158      -20.2545684666       -5.6436369216  W2        290             0.0000000000
       870       290  TIP3      H2             -0.5198830842      -19.7141384666       -6.4714769216  W2        290             0.0000000000
       871       291  TIP3      OH2             5.6187569158      -22.7778284666        0.9590130784  W2        291             0.0000000000
       872       291  TIP3      H1              4.9419169158      -22.6465184666        1.6229830784  W2        291             0.0000000000
       873       291  TIP3      H2              5.1332469158      -22.9328784666        0.1487830784  W2        291             0.0000000000
       874       292  TIP3      OH2            -1.6308930842      -19.1893484666       -8.2553369216  W2        292             0.0000000000
       875       292  TIP3      H1             -2.1733830842      -19.5689684666       -8.9465769216  W2        292             0.0000000000
       876       292  TIP3      H2             -0.7974030842      -18.9948784666       -8.6839269216  W2        292             0.0000000000
       877       293  TIP3      OH2             8.9062669158       -7.1062884666        7.2357730784  W2        293             0.0000000000
       878       293  TIP3      H1              9.1061369158       -6.6820984666        6.4013030784  W2        293             0.0000000000
       879       293  TIP3      H2              9.5616369158       -6.7624684666        7.8428130784  W2        293             0.0000000000
       880       294  TIP3      OH2            -3.4957530842      -14.6321584666        6.8438230784  W2        294             0.0000000000
       881       294  TIP3      H1             -2.7635130842      -14.3775684666        7.4052730784  W2        294             0.0000000000
       882       294  TIP3      H2             -4.2758830842      -14.4276184666        7.3593630784  W2        294             0.0000000000
       883       295  TIP3      OH2             2.5335369158      -19.2251584666       -0.4182069216  W2        295             0.0000000000
       884       295  TIP3      H1              3.0978769158      -19.7714984666       -0.9652469216  W2        295             0.0000000000
       885       295  TIP3      H2              2.3858769158      -19.7469684666        0.3705530784  W2        295             0.0000000000
       886       296  TIP3      OH2            -2.4644930842      -23.0885484666       -3.9997269216  W2        296             0.0000000000
       887       296  TIP3      H1             -2.7815430842      -23.9910184666       -4.0351869216  W2        296             0.0000000000
       888       296  TIP3      H2             -1.6830830842      -23.0868084666       -4.5525669216  W2        296             0.0000000000
       889       297  TIP3      OH2             1.1601269158      -20.8365484666        1.9958330784  W2        297             0.0000000000
       890       297  TIP3      H1              0.3246569158      -20.3825984666        2.1060730784  W2        297             0.0000000000
       891       297  TIP3      H2              1.6841869158      -20.5606984666        2.7478230784  W2        297             0.0000000000
       892       298  TIP3      OH2             1.7043869158      -14.6237784666       -6.3195269216  W2        298             0.0000000000
       893       298  TIP3      H1              0.9594869158      -15.1312484666       -6.6417369216  W2        298             0.0000000000
       894       298  TIP3      H2              1.5701069158      -14.5749784666       -5.3730469216  W2        298             0.0000000000
       895       299  TIP3      OH2             8.8542769158      -15.4909584666        2.4672330784  W2        299             0.0000000000
       896       299  TIP3      H1              9.4961569158      -15.0343284666        1.9234530784  W2        299             0.0000000000
       897       299  TIP3      H2              8.0239669158      -15.3777184666        2.0046430784  W2        299             0.0000000000
       898       300  TIP3      OH2             5.6020669158      -21.8097884666       -8.1202669216  W2        300             0.0000000000
       899       300  TIP3      H1              4.6634869158      -21.6982284666       -8.2713869216  W2        300             0.0000000000
       900       300  TIP3      H2              5.8992769158      -20.9530984666       -7.8136969216  W2        300             0.0000000000
       901       301  TIP3      OH2             3.2235969158      -14.4394484666        4.9173830784  W2        301             0.0000000000
       902       301  TIP3      H1              2.8782069158      -14.8212084666        5.7243430784  W2        301             0.0000000000
       903       301  TIP3      H2              3.0236069158      -13.5060884666        4.9886730784  W2        301             0.0000000000
       904       302  TIP3      OH2             6.3204169158      -19.9425184666       -6.4595269216  W2        302             0.0000000000
       905       302  TIP3      H1              7.2123169158      -20.0800184666       -6.1404069216  W2        302             0.0000000000
       906       302  TIP3      H2              6.3767769158      -19.1519084666       -6.9961769216  W2        302             0.0000000000
       907       303  TIP3      OH2            -3.1707830842      -15.3287784666       -0.5497369216  W2        303             0.0000000000
       908       303  TIP3      H1             -2.4260630842      -15.3312084666       -1.1510869216  W2        303             0.0000000000
       909       303  TIP3      H2             -3.0931230842      -16.1523984666       -0.0682269216  W2        303             0.0000000000
       910       304  TIP3      OH2             3.8297969158      -13.1653484666       -7.2940669216  W2        304             0.0000000000
       911       304  TIP3      H1              3.5346369158      -12.3385584666       -6.9125869216  W2        304             0.0000000000
       912       304  TIP3      H2              3.1267969158      -13.7846584666       -7.0979269216  W2        304             0.0000000000
       913       305  TIP3      OH2            -6.1628130842      -16.8680884666        4.7651130784  W2        305             0.0000000000
       914       305  TIP3      H1             -5.9399530842      -17.2861284666        5.5968630784  W2        305             0.0000000000
       915       305  TIP3      H2             -6.7648030842      -17.4805884666        4.3423930784  W2        305             0.0000000000
       916       306  TIP3      OH2             0.8536769158      -17.3510984666        6.9780830784  W2        306             0.0000000000
       917       306  TIP3      H1              0.5577569158      -17.5167984666        6.0829930784  W2        306             0.0000000000
       918       306  TIP3      H2              1.7851969158      -17.5710684666        6.9674730784  W2        306             0.0000000000
       919       307  TIP3      OH2             5.4739569158      -11.9778984666        4.8678830784  W2        307             0.0000000000
       920       307  TIP3      H1              4.5733869158      -11.7946384666        4.6002730784  W2        307             0.0000000000
       921       307  TIP3      H2              5.5080669158      -11.7189684666        5.7887630784  W2        307             0.0000000000
       922       308  TIP3      OH2            11.2052869158      -19.7331084666       -6.7648569216  W2        308             0.0000000000
       923       308  TIP3      H1             10.6509169158      -20.1293084666       -7.4371069216  W2        308             0.0000000000
       924       308  TIP3      H2             11.3056469158      -18.8225884666       -7.0425269216  W2        308             0.0000000000
       925       309  TIP3      OH2            11.1684869158      -13.9329384666        6.0722930784  W2        309             0.0000000000
       926       309  TIP3      H1             10.3173369158      -13.6945584666        5.7049330784  W2        309             0.0000000000
       927       309  TIP3      H2             11.7588269158      -13.9496184666        5.3190030784  W2        309             0.0000000000
       928       310  TIP3      OH2             9.5004569158      -10.9470684666       -6.2996469216  W2        310             0.0000000000
       929       310  TIP3      H1              9.1275669158      -11.7726884666       -5.9905869216  W2        310             0.0000000000
       930       310  TIP3      H2              9.7778069158      -11.1301284666       -7.1973069216  W2        310             0.0000000000
       931       311  TIP3      OH2             6.6608469158      -16.1391184666        0.7215430784  W2        311             0.0000000000
       932       311  TIP3      H1              5.7325369158      -16.3709284666        0.6944730784  W2        311             0.0000000000
       933       311  TIP3      H2              7.1119569158      -16.9161384666        0.3914230784  W2        311             0.0000000000
       934       312  TIP3      OH2            -0.7958430842      -11.8109584666       -3.1455869216  W2        312             0.0000000000
       935       312  TIP3      H1             -0.2686230842      -11.0375184666       -3.3457069216  W2        312             0.0000000000
       936       312  TIP3      H2             -1.6759930842      -11.5860384666       -3.4471869216  W2        312             0.0000000000
       937       313  TIP3      OH2            -5.0410730842      -16.9485484666       -8.5583469216  W2        313             0.0000000000
       938       313  TIP3      H1             -4.4250830842      -16.3218284666       -8.1788669216  W2        313             0.0000000000
       939       313  TIP3      H2             -5.9028130842      -16.6325684666       -8.2866969216  W2        313             0.0000000000
       940       314  TIP3      OH2             0.6313869158      -14.1479684666       -3.5691569216  W2        314             0.0000000000
       941       314  TIP3      H1              0.3903869158      -13.2225284666       -3.5276269216  W2        314             0.0000000000
       942       314  TIP3      H2             -0.1092530842      -14.6068384666       -3.1727669216  W2        314             0.0000000000
       943       315  TIP3      OH2             1.1460469158       -9.9986084666        2.7459530784  W2        315             0.0000000000
       944       315  TIP3      H1              1.5085169158       -9.1440484666        2.5123930784  W2        315             0.0000000000
       945       315  TIP3      H2              1.6775669158      -10.2904484666        3.4865830784  W2        315             0.0000000000
       946       316  TIP3      OH2            -0.6855330842       -9.1262084666       -4.0239369216  W2        316             0.0000000000
       947       316  TIP3      H1             -1.6354830842       -9.0204684666       -3.9726069216  W2        316             0.0000000000
       948       316  TIP3      H2             -0.3337230842       -8.3054684666       -3.6791869216  W2        316             0.0000000000
       949       317  TIP3      OH2             4.6901269158      -13.8995384666        2.4465130784  W2        317             0.0000000000
       950       317  TIP3      H1              4.2642569158      -14.1273684666        3.2729130784  W2        317             0.0000000000
       951       317  TIP3      H2              5.2707069158      -14.6383584666        2.2640430784  W2        317             0.0000000000
       952       318  TIP3      OH2             6.8930169158      -12.9704884666       -8.4795869216  W2        318             0.0000000000
       953       318  TIP3      H1              7.2463269158      -13.3505084666       -7.6752369216  W2        318             0.0000000000
       954       318  TIP3      H2              5.9443669158      -13.0640084666       -8.3926569216  W2        318             0.0000000000
       955       319  TIP3      OH2             7.3485469158       -9.3475884666        4.9159930784  W2        319             0.0000000000
       956       319  TIP3      H1              6.7468669158       -9.9032984666        4.4206230784  W2        319             0.0000000000
       957       319  TIP3      H2              7.6299169158       -8.6806084666        4.2897330784  W2        319             0.0000000000
       958       320  TIP3      OH2            11.3964569158       -8.4912384666       -8.2785669216  W2        320             0.0000000000
       959       320  TIP3      H1             12.1402469158       -7.9051884666       -8.4184069216  W2        320             0.0000000000
       960       320  TIP3      H2             10.7022669158       -7.9226584666       -7.9453269216  W2        320             0.0000000000
       961       321  TIP3      OH2            -4.5288630842      -22.1148184666        4.3232530784  W2        321             0.0000000000
       962       321  TIP3      H1             -5.4216330842      -21.7762784666        4.2556530784  W2        321             0.0000000000
       963       321  TIP3      H2             -4.6275830842      -22.9702084666        4.7413330784  W2        321             0.0000000000
       964       322  TIP3      OH2             7.7589469158      -14.2982884666       -6.2527969216  W2        322             0.0000000000
       965       322  TIP3      H1              7.4817069158      -15.0263584666       -5.6966869216  W2        322             0.0000000000
       966       322  TIP3      H2              8.6862469158      -14.1790884666       -6.0475369216  W2        322             0.0000000000
       967       323  TIP3      OH2            -4.8776630842      -10.3103784666        2.7581930784  W2        323             0.0000000000
       968       323  TIP3      H1             -4.6606330842      -11.2421384666        2.7271630784  W2        323             0.0000000000
       969       323  TIP3      H2             -4.6313130842      -10.0358784666        3.6414730784  W2        323             0.0000000000
       970       324  TIP3      OH2             0.9837969158      -11.8588784666      -10.0325869216  W2        324             0.0000000000
       971       324  TIP3      H1              1.2227769158      -12.6070684666      -10.5796969216  W2        324             0.0000000000
       972       324  TIP3      H2              0.7149269158      -12.2467084666       -9.1998069216  W2        324             0.0000000000
       973       325  TIP3      OH2            -0.0791430842      -12.2884984666       -7.5763269216  W2        325             0.0000000000
       974       325  TIP3      H1              0.0676569158      -12.8085184666       -6.7862369216  W2        325             0.0000000000
       975       325  TIP3      H2             -0.0819730842      -11.3817384666       -7.2697369216  W2        325             0.0000000000
       976       326  TIP3      OH2            -3.6260330842      -15.0361684666       -7.0657869216  W2        326             0.0000000000
       977       326  TIP3      H1             -4.3121030842      -14.6839184666       -6.4988169216  W2        326             0.0000000000
       978       326  TIP3      H2             -3.1032430842      -14.2732084666       -7.3123569216  W2        326             0.0000000000
       979       327  TIP3      OH2             4.2054769158      -22.3737884666        3.2131130784  W2        327             0.0000000000
       980       327  TIP3      H1              4.9042669158      -22.2999184666        3.8630830784  W2        327             0.0000000000
       981       327  TIP3      H2              3.8246169158      -23.2382884666        3.3674030784  W2        327             0.0000000000
       982       328  TIP3      OH2             4.9899669158      -22.7216184666       -5.6896569216  W2        328             0.0000000000
       983       328  TIP3      H1              5.2097969158      -22.2500784666       -6.4931169216  W2        328             0.0000000000
       984       328  TIP3      H2              5.5483669158      -22.3273584666       -5.0195969216  W2        328             0.0000000000
       985       329  TIP3      OH2             2.6585769158      -10.5911384666       -6.8269069216  W2        329             0.0000000000
       986       329  TIP3      H1              1.8421869158      -10.0941684666       -6.7744769216  W2        329             0.0000000000
       987       329  TIP3      H2              3.1882069158      -10.1157884666       -7.4670269216  W2        329             0.0000000000
       988       330  TIP3      OH2             2.1899569158      -20.9937384666       -4.8548169216  W2        330             0.0000000000
       989       330  TIP3      H1              3.0022169158      -20.4894184666       -4.8086469216  W2        330             0.0000000000
       990       330  TIP3      H2              1.9452569158      -21.1387684666       -3.9408569216  W2        330             0.0000000000
       991       331  TIP3      OH2             2.7255969158      -20.0074684666        4.3298430784  W2        331             0.0000000000
       992       331  TIP3      H1              2.8446269158      -19.4339284666        5.0868830784  W2        331             0.0000000000
       993       331  TIP3      H2              3.3810569158      -20.6955284666        4.4446230784  W2        331             0.0000000000
       994       332  TIP3      OH2             3.0736269158      -23.9124384666       -3.9167069216  W2        332             0.0000000000
       995       332  TIP3      H1              2.7269769158      -23.2953784666       -3.2722769216  W2        332             0.0000000000
       996       332  TIP3      H2              3.7323169158      -23.4118684666       -4.3981569216  W2        332             0.0000000000
       997       333  TIP3      OH2            -0.0031130842       -9.5474184666       -6.8452169216  W2        333             0.0000000000
       998       333  TIP3      H1              0.1577569158       -8.7476684666       -7.3459569216  W2        333             0.0000000000
       999       333  TIP3      H2             -0.2003330842       -9.2408184666       -5.9601569216  W2        333             0.0000000000
      1000       334  TIP3      OH2            -1.2686730842      -22.8494984666       -7.2294569216  W2        334             0.0000000000
      1001       334  TIP3      H1             -1.3521930842      -21.9611884666       -6.8828169216  W2        334             0.0000000000
      1002       334  TIP3      H2             -0.3786430842      -23.1148284666       -6.9977769216  W2        334             0.0000000000
      1003       335  TIP3      OH2             8.9301769158      -22.1004384666        5.1648130784  W2        335             0.0000000000
      1004       335  TIP3      H1              8.0137569158      -21.8382684666        5.0771830784  W2        335             0.0000000000
      1005       335  TIP3      H2              9.2656769158      -22.1035384666        4.2683430784  W2        335             0.0000000000
      1006       336  TIP3      OH2             7.5322769158      -18.3503384666       -0.7394569216  W2        336             0.0000000000
      1007       336  TIP3      H1              6.7347169158      -18.7653184666       -1.0679569216  W2        336             0.0000000000
      1008       336  TIP3      H2              7.9773869158      -19.0409684666       -0.2484069216  W2        336             0.0000000000
      1009       337  TIP3      OH2            -3.0101430842      -12.4222784666       -8.1690069216  W2        337             0.0000000000
      1010       337  TIP3      H1             -2.4179930842      -11.7227984666       -7.8927669216  W2        337             0.0000000000
      1011       337  TIP3      H2             -2.5508430842      -12.8553284666       -8.8885469216  W2        337             0.0000000000
      1012       338  TIP3      OH2            -4.6942230842      -19.7579784666       -9.0530669216  W2        338             0.0000000000
      1013       338  TIP3      H1             -4.7389630842      -18.8186684666       -8.8743669216  W2        338             0.0000000000
      1014       338  TIP3      H2             -5.5819030842      -19.9934884666       -9.3228569216  W2        338             0.0000000000
      1015       339  TIP3      OH2             8.6187369158       -9.0940884666        0.8828930784  W2        339             0.0000000000
      1016       339  TIP3      H1              8.4631669158       -8.4156484666        0.2258230784  W2        339             0.0000000000
      1017       339  TIP3      H2              9.5513769158       -9.0221584666        1.0859530784  W2        339             0.0000000000
      1018       340  TIP3      OH2            -3.8860230842      -24.9763184666       -0.3799669216  W2        340             0.0000000000
      1019       340  TIP3      H1             -4.1150430842      -24.9170684666       -1.3074669216  W2        340             0.0000000000
      1020       340  TIP3      H2             -4.3286830842      -25.7677684666       -0.0735569216  W2        340             0.0000000000
      1021       341  TIP3      OH2            -4.9556930842      -11.0356084666       -4.2193869216  W2        341             0.0000000000
      1022       341  TIP3      H1             -5.7878330842      -10.5633384666       -4.1922469216  W2        341             0.0000000000
      1023       341  TIP3      H2             -4.4098630842      -10.5258484666       -4.8180769216  W2        341             0.0000000000
      1024       342  TIP3      OH2            -5.6673230842       -8.4232384666        7.1104130784  W2        342             0.0000000000
      1025       342  TIP3      H1             -5.1271030842       -8.6398384666        7.8703330784  W2        342             0.0000000000
      1026       342  TIP3      H2             -6.1485230842       -9.2286384666        6.9206630784  W2        342             0.0000000000
      1027       343  TIP3      OH2            -1.0699830842       -9.5037984666        8.7308330784  W2        343             0.0000000000
      1028       343  TIP3      H1             -0.3022630842       -9.9627184666        9.0717530784  W2        343             0.0000000000
      1029       343  TIP3      H2             -1.0913630842       -9.7298184666        7.8009530784  W2        343             0.0000000000
      1030       344  TIP3      OH2             3.0219769158       -9.9957384666       -9.8939869216  W2        344             0.0000000000
      1031       344  TIP3      H1              2.3780769158      -10.6268784666       -9.5726169216  W2        344             0.0000000000
      1032       344  TIP3      H2              3.7838069158      -10.5269384666      -10.1256369216  W2        344             0.0000000000
      1033       345  TIP3      OH2             5.5068869158      -11.1236884666        7.4599830784  W2        345             0.0000000000
      1034       345  TIP3      H1              5.1558369158      -11.9803884666        7.7030230784  W2        345             0.0000000000
      1035       345  TIP3      H2              6.2332069158      -10.9810184666        8.0668830784  W2        345             0.0000000000
      1036       346  TIP3      OH2             7.6262669158      -10.1787484666       -9.6601869216  W2        346             0.0000000000
      1037       346  TIP3      H1              7.9093069158      -10.9732284666       -9.2074969216  W2        346             0.0000000000
      1038       346  TIP3      H2              8.3660569158       -9.9456484666      -10.2210769216  W2        346             0.0000000000
      1039       347  TIP3      OH2            -5.7603730842      -14.6128284666        8.0648430784  W2        347             0.0000000000
      1040       347  TIP3      H1             -5.6163230842      -15.5147584666        7.7785130784  W2        347             0.0000000000
      1041       347  TIP3      H2             -6.5326330842      -14.3266184666        7.5770730784  W2        347             0.0000000000
      1042       348  TIP3      OH2            -1.4190030842      -14.2692584666       -9.8026969216  W2        348             0.0000000000
      1043       348  TIP3      H1             -1.3545930842      -15.0632984666       -9.2720569216  W2        348             0.0000000000
      1044       348  TIP3      H2             -0.7660830842      -14.3879784666      -10.4924969216  W2        348             0.0000000000
      1045       349  TIP3      OH2             0.8952369158      -14.6430184666        7.4974830784  W2        349             0.0000000000
      1046       349  TIP3      H1              0.5666169158      -14.3722084666        6.6402230784  W2        349             0.0000000000
      1047       349  TIP3      H2              1.0470569158      -15.5840384666        7.4099830784  W2        349             0.0000000000
      1048       350  TIP3      OH2             3.9333369158      -13.2220884666      -10.0668969216  W2        350             0.0000000000
      1049       350  TIP3      H1              3.6647469158      -13.0418784666       -9.1660069216  W2        350             0.0000000000
      1050       350  TIP3      H2              3.7268969158      -14.1474684666      -10.1983169216  W2        350             0.0000000000
      1051       351  TIP3      OH2             6.6297569158      -14.7272884666        4.8807130784  W2        351             0.0000000000
      1052       351  TIP3      H1              7.3752369158      -14.1389184666        4.7611130784  W2        351             0.0000000000
      1053       351  TIP3      H2              5.8724369158      -14.1453184666        4.9440230784  W2        351             0.0000000000
      1054       352  TIP3      OH2            -4.9277230842      -17.4124984666        7.4847730784  W2        352             0.0000000000
      1055       352  TIP3      H1             -4.5196030842      -18.2698384666        7.3638330784  W2        352             0.0000000000
      1056       352  TIP3      H2             -5.1879630842      -17.3983684666        8.4058030784  W2        352             0.0000000000
      1057       353  TIP3      OH2            -0.2696230842      -16.2966384666       -7.4968969216  W2        353             0.0000000000
      1058       353  TIP3      H1             -0.7294230842      -16.7808084666       -6.8110469216  W2        353             0.0000000000
      1059       353  TIP3      H2             -0.0147530842      -16.9650984666       -8.1328469216  W2        353             0.0000000000
      1060       354  TIP3      OH2            -0.9806930842      -18.4039284666        4.8590630784  W2        354             0.0000000000
      1061       354  TIP3      H1             -1.5990830842      -17.7292684666        5.1395330784  W2        354             0.0000000000
      1062       354  TIP3      H2             -0.6365730842      -18.0825384666        4.0256830784  W2        354             0.0000000000
      1063       355  TIP3      OH2             0.8014169158      -18.0534584666       -9.2345769216  W2        355             0.0000000000
      1064       355  TIP3      H1              0.6209169158      -18.2083384666      -10.1617469216  W2        355             0.0000000000
      1065       355  TIP3      H2              1.7514669158      -17.9455884666       -9.1897869216  W2        355             0.0000000000
      1066       356  TIP3      OH2             4.0391269158      -15.9323984666        8.1365430784  W2        356             0.0000000000
      1067       356  TIP3      H1              4.9922469158      -15.8484884666        8.1091430784  W2        356             0.0000000000
      1068       356  TIP3      H2              3.8785869158      -16.6442184666        8.7560330784  W2        356             0.0000000000
      1069       357  TIP3      OH2            10.1912469158      -15.6990384666       -9.7887669216  W2        357             0.0000000000
      1070       357  TIP3      H1              9.9177269158      -16.1234884666      -10.6019369216  W2        357             0.0000000000
      1071       357  TIP3      H2             10.2306569158      -14.7675884666      -10.0057269216  W2        357             0.0000000000
      1072       358  TIP3      OH2            -0.6413230842      -21.0488484666        5.9413730784  W2        358             0.0000000000
      1073       358  TIP3      H1             -0.4912330842      -21.7777184666        5.3393430784  W2        358             0.0000000000
      1074       358  TIP3      H2             -0.6390830842      -20.2716784666        5.3825930784  W2        358             0.0000000000
      1075       359  TIP3      OH2            -0.2287530842      -22.6792684666        3.4341130784  W2        359             0.0000000000
      1076       359  TIP3      H1              0.3069969158      -22.2275984666        2.7820430784  W2        359             0.0000000000
      1077       359  TIP3      H2             -1.0807930842      -22.7872884666        3.0115230784  W2        359             0.0000000000
      1078       360  TIP3      OH2             1.3530869158      -17.2396484666        3.6736330784  W2        360             0.0000000000
      1079       360  TIP3      H1              2.1035669158      -17.3958984666        3.1004130784  W2        360             0.0000000000
      1080       360  TIP3      H2              1.0139169158      -16.3879884666        3.3981830784  W2        360             0.0000000000
      1081       361  TIP3      OH2             5.7687069158      -19.4244684666        8.7021630784  W2        361             0.0000000000
      1082       361  TIP3      H1              5.9608369158      -20.3555284666        8.5906130784  W2        361             0.0000000000
      1083       361  TIP3      H2              6.6263369158      -18.9995184666        8.6917030784  W2        361             0.0000000000
      1084       362  TIP3      OH2             7.0854269158      -16.6359484666        6.7794330784  W2        362             0.0000000000
      1085       362  TIP3      H1              6.8039269158      -15.9264884666        6.2018130784  W2        362             0.0000000000
      1086       362  TIP3      H2              8.0278569158      -16.7086484666        6.6285530784  W2        362             0.0000000000
      1087       363  TIP3      OH2            -2.1626930842      -19.8504984666        7.8529330784  W2        363             0.0000000000
      1088       363  TIP3      H1             -2.9297930842      -20.3830184666        7.6426930784  W2        363             0.0000000000
      1089       363  TIP3      H2             -1.4837930842      -20.1604584666        7.2535630784  W2        363             0.0000000000
      1090       364  TIP3      OH2             0.5767969158      -25.2226984666        3.8654730784  W2        364             0.0000000000
      1091       364  TIP3      H1              0.4787569158      -24.2763784666        3.7600930784  W2        364             0.0000000000
      1092       364  TIP3      H2             -0.1655830842      -25.5953184666        3.3898230784  W2        364             0.0000000000
      1093       365  TIP3      OH2             1.8408469158      -20.9011584666        7.4293130784  W2        365             0.0000000000
      1094       365  TIP3      H1              1.6053869158      -21.1204884666        8.3308030784  W2        365             0.0000000000
      1095       365  TIP3      H2              1.0575369158      -21.1080384666        6.9195630784  W2        365             0.0000000000
      1096       366  TIP3      OH2             4.5565069158      -21.7738084666        6.5046630784  W2        366             0.0000000000
      1097       366  TIP3      H1              3.6090469158      -21.7418384666        6.6369930784  W2        366             0.0000000000
      1098       366  TIP3      H2              4.8691769158      -22.3990984666        7.1584830784  W2        366             0.0000000000
      1099       367  TIP3      OH2             6.1906569158      -23.1396984666        8.5098530784  W2        367             0.0000000000
      1100       367  TIP3      H1              6.0938369158      -24.0919684666        8.5040430784  W2        367             0.0000000000
      1101       367  TIP3      H2              5.8689669158      -22.8710184666        9.3704030784  W2        367             0.0000000000
      1102       368  TIP3      OH2            -3.9824130842      -21.9301184666        7.5574030784  W2        368             0.0000000000
      1103       368  TIP3      H1             -3.7706730842      -22.6365084666        6.9471530784  W2        368             0.0000000000
      1104       368  TIP3      H2             -4.0936630842      -22.3675184666        8.4015230784  W2        368             0.0000000000
      1105       369  TIP3      OH2             0.7986069158      -25.9289584666        6.5367530784  W2        369             0.0000000000
      1106       369  TIP3      H1              1.5104469158      -26.5687384666        6.5226630784  W2        369             0.0000000000
      1107       369  TIP3      H2              0.6976469158      -25.6621284666        5.6230630784  W2        369             0.0000000000
      1108       370  TIP3      OH2             1.1523569158      -24.2461184666        8.5903830784  W2        370             0.0000000000
      1109       370  TIP3      H1              1.0205769158      -24.7217384666        7.7702330784  W2        370             0.0000000000
      1110       370  TIP3      H2              0.5530969158      -23.5017584666        8.5350930784  W2        370             0.0000000000
      1111       371  TIP3      OH2             0.6985869158       -7.3630884666       -8.2332169216  W2        371             0.0000000000
      1112       371  TIP3      H1              1.6316569158       -7.2052184666       -8.0893769216  W2        371             0.0000000000
      1113       371  TIP3      H2              0.4344669158       -6.6877884666       -8.8580669216  W2        371             0.0000000000
      1114       372  TIP3      OH2            -5.7329230842      -12.7267084666       -8.7504069216  W2        372             0.0000000000
      1115       372  TIP3      H1             -4.8190030842      -12.6478184666       -8.4770169216  W2        372             0.0000000000
      1116       372  TIP3      H2             -5.7256130842      -13.4137484666       -9.4168469216  W2        372             0.0000000000
      1117       373  TIP3      OH2            -7.0838630842       -7.3338584666       -3.6730169216  W2        373             0.0000000000
      1118       373  TIP3      H1             -7.7311530842       -7.7956884666       -4.2058969216  W2        373             0.0000000000
      1119       373  TIP3      H2             -6.7294030842       -8.0055284666       -3.0903969216  W2        373             0.0000000000
      1120       374  TIP3      OH2            -6.2139430842       -9.2531584666       -1.8683969216  W2        374             0.0000000000
      1121       374  TIP3      H1             -6.5482630842      -10.1334284666       -1.6963769216  W2        374             0.0000000000
      1122       374  TIP3      H2             -5.9917030842       -8.9076584666       -1.0038369216  W2        374             0.0000000000
      1123       375  TIP3      OH2            11.3345369158       -8.4435184666        1.1120830784  W2        375             0.0000000000
      1124       375  TIP3      H1             11.3132069158       -8.2586784666        2.0510230784  W2        375             0.0000000000
      1125       375  TIP3      H2             12.0251569158       -7.8751184666        0.7712230784  W2        375             0.0000000000
      1126       376  TIP3      OH2            10.8978269158       -8.8764084666        4.0339930784  W2        376             0.0000000000
      1127       376  TIP3      H1             10.4106969158       -9.6119984666        3.6627330784  W2        376             0.0000000000
      1128       376  TIP3      H2             11.4470969158       -9.2700184666        4.7119330784  W2        376             0.0000000000
      1129       377  TIP3      OH2             9.3485569158      -13.0865984666        8.6720230784  W2        377             0.0000000000
      1130       377  TIP3      H1              8.4826669158      -13.1916284666        9.0662530784  W2        377             0.0000000000
      1131       377  TIP3      H2              9.7251469158      -12.3282684666        9.1184930784  W2        377             0.0000000000
      1132       378  TIP3      OH2            10.6495269158      -14.8302284666       -5.8137269216  W2        378             0.0000000000
      1133       378  TIP3      H1             11.4996669158      -14.4091384666       -5.6865669216  W2        378             0.0000000000
      1134       378  TIP3      H2             10.6550369158      -15.5702184666       -5.2065869216  W2        378             0.0000000000
      1135       379  TIP3      OH2            11.0440869158      -16.7764884666       -3.9901569216  W2        379             0.0000000000
      1136       379  TIP3      H1             10.3175469158      -17.2562284666       -3.5923969216  W2        379             0.0000000000
      1137       379  TIP3      H2             11.6254169158      -16.5710184666       -3.2579969216  W2        379             0.0000000000
      1138       380  TIP3      OH2            10.8032069158      -13.9917384666        0.9576030784  W2        380             0.0000000000
      1139       380  TIP3      H1             11.6366269158      -14.3697384666        0.6769630784  W2        380             0.0000000000
      1140       380  TIP3      H2             10.9152369158      -13.0486184666        0.8385130784  W2        380             0.0000000000
      1141       381  TIP3      OH2             9.2894369158      -11.1139884666        3.2644430784  W2        381             0.0000000000
      1142       381  TIP3      H1              8.6419669158      -10.7888384666        3.8899630784  W2        381             0.0000000000
      1143       381  TIP3      H2              8.7718369158      -11.5542184666        2.5902730784  W2        381             0.0000000000
      1144       382  TIP3      OH2            11.3123969158      -16.8756384666       -7.5990269216  W2        382             0.0000000000
      1145       382  TIP3      H1             10.7905069158      -16.5192284666       -8.3179369216  W2        382             0.0000000000
      1146       382  TIP3      H2             11.2793169158      -16.2008584666       -6.9209369216  W2        382             0.0000000000
      1147       383  TIP3      OH2             9.6612969158      -19.6360784666       -9.0483169216  W2        383             0.0000000000
      1148       383  TIP3      H1              9.7577369158      -18.9693784666       -9.7283469216  W2        383             0.0000000000
      1149       383  TIP3      H2              9.5212569158      -20.4514484666       -9.5297669216  W2        383             0.0000000000
      1150       384  TIP3      OH2             8.8307669158      -18.2558384666       -3.4272869216  W2        384             0.0000000000
      1151       384  TIP3      H1              8.6806469158      -19.2009784666       -3.4475069216  W2        384             0.0000000000
      1152       384  TIP3      H2              8.4772169158      -17.9746984666       -2.5833769216  W2        384             0.0000000000
      1153       385  TIP3      OH2            -6.1339930842      -16.1776184666        0.5830930784  W2        385             0.0000000000
      1154       385  TIP3      H1             -5.9497030842      -16.2594484666       -0.3526169216  W2        385             0.0000000000
      1155       385  TIP3      H2             -5.2847030842      -16.3019184666        1.0067330784  W2        385             0.0000000000
      1156       386  TIP3      OH2             9.6870569158      -16.2855084666        6.2115430784  W2        386             0.0000000000
      1157       386  TIP3      H1             10.2697869158      -17.0202784666        6.4032630784  W2        386             0.0000000000
      1158       386  TIP3      H2             10.2509869158      -15.5134784666        6.2581230784  W2        386             0.0000000000
      1159       387  TIP3      OH2            11.1837669158      -18.3829284666        6.8960830784  W2        387             0.0000000000
      1160       387  TIP3      H1             10.3204369158      -18.7617184666        6.7305530784  W2        387             0.0000000000
      1161       387  TIP3      H2             11.7881369158      -19.1214484666        6.8216630784  W2        387             0.0000000000
      1162       388  TIP3      OH2             8.9086769158      -22.2280984666       -9.9307669216  W2        388             0.0000000000
      1163       388  TIP3      H1              9.5192569158      -22.5994184666       -9.2939469216  W2        388             0.0000000000
      1164       388  TIP3      H2              8.0718269158      -22.6494084666       -9.7347669216  W2        388             0.0000000000
      1165       389  TIP3      OH2             8.5412469158      -20.6732584666       -4.9647769216  W2        389             0.0000000000
      1166       389  TIP3      H1              8.8209569158      -21.5802184666       -4.8406069216  W2        389             0.0000000000
      1167       389  TIP3      H2              9.3004169158      -20.2391084666       -5.3538569216  W2        389             0.0000000000
      1168       390  TIP3      OH2             9.1530769158      -20.0915184666        0.4711130784  W2        390             0.0000000000
      1169       390  TIP3      H1             10.0858769158      -19.8795284666        0.4367130784  W2        390             0.0000000000
      1170       390  TIP3      H2              8.9178269158      -19.9903084666        1.3934130784  W2        390             0.0000000000
      1171       391  TIP3      OH2             9.1822669158      -19.3549884666        3.2470530784  W2        391             0.0000000000
      1172       391  TIP3      H1              8.3393969158      -19.0869484666        3.6130330784  W2        391             0.0000000000
      1173       391  TIP3      H2              9.6246969158      -18.5327984666        3.0361630784  W2        391             0.0000000000
      1174       392  TIP3      OH2            -6.5365130842      -20.9071184666        6.7239730784  W2        392             0.0000000000
      1175       392  TIP3      H1             -5.6170230842      -21.0292884666        6.9602830784  W2        392             0.0000000000
      1176       392  TIP3      H2             -6.9860630842      -21.6571484666        7.1133230784  W2        392             0.0000000000
      1177       393  TIP3      OH2            11.4654269158      -25.3749684666        8.6005530784  W2        393             0.0000000000
      1178       393  TIP3      H1             11.8151269158      -26.0286184666        7.9950230784  W2        393             0.0000000000
      1179       393  TIP3      H2             11.6123769158      -24.5375584666        8.1608130784  W2        393             0.0000000000
      1180       394  TIP3      OH2             9.1547269158      -23.4103284666       -4.9165769216  W2        394             0.0000000000
      1181       394  TIP3      H1              9.3372269158      -23.8591784666       -4.0910769216  W2        394             0.0000000000
      1182       394  TIP3      H2              8.5550169158      -23.9948884666       -5.3801169216  W2        394             0.0000000000
      1183       395  TIP3      OH2            -5.3152630842      -22.5949584666       -0.3847369216  W2        395             0.0000000000
      1184       395  TIP3      H1             -4.8701030842      -23.3867084666       -0.0827669216  W2        395             0.0000000000
      1185       395  TIP3      H2             -4.8489630842      -21.8784384666        0.0458230784  W2        395             0.0000000000
      1186       396  TIP3      OH2            -7.0112330842      -19.5956584666        0.6842830784  W2        396             0.0000000000
      1187       396  TIP3      H1             -6.5192530842      -19.8166084666       -0.1065169216  W2        396             0.0000000000
      1188       396  TIP3      H2             -6.6491430842      -18.7553184666        0.9652330784  W2        396             0.0000000000
      1189       397  TIP3      OH2            10.9851469158      -23.2655084666        6.9496830784  W2        397             0.0000000000
      1190       397  TIP3      H1             10.0677169158      -22.9947984666        6.9140330784  W2        397             0.0000000000
      1191       397  TIP3      H2             11.1080869158      -23.8006684666        6.1656530784  W2        397             0.0000000000
      1192       398  TIP3      OH2            11.0213469158      -23.3425184666       -8.3885469216  W2        398             0.0000000000
      1193       398  TIP3      H1             11.4336069158      -24.0639484666       -8.8637469216  W2        398             0.0000000000
      1194       398  TIP3      H2             11.7029969158      -22.6730584666       -8.3301169216  W2        398             0.0000000000
      1195       399  TIP3      OH2            -6.6975830842      -23.3377484666       -5.2614769216  W2        399             0.0000000000
      1196       399  TIP3      H1             -7.6227430842      -23.1290884666       -5.3909269216  W2        399             0.0000000000
      1197       399  TIP3      H2             -6.2435930842      -22.8536684666       -5.9512469216  W2        399             0.0000000000
      1198       400  TIP3      OH2             8.0731369158       -8.3535784666       -3.3157369216  W2        400             0.0000000000
      1199       400  TIP3      H1              8.7254269158       -8.7013684666       -3.9238269216  W2        400             0.0000000000
      1200       400  TIP3      H2              8.5835169158       -7.8652584666       -2.6697669216  W2        400             0.0000000000
      1201       401  TIP3      OH2            -6.7340430842      -24.5998484666        3.0827730784  W2        401             0.0000000000
      1202       401  TIP3      H1             -7.3989930842      -24.8458184666        3.7258630784  W2        401             0.0000000000
      1203       401  TIP3      H2             -7.1769130842      -23.9778084666        2.5055730784  W2        401             0.0000000000
      1204       402  TIP3      OH2            -4.5421130842      -11.4244384666        7.2273530784  W2        402             0.0000000000
      1205       402  TIP3      H1             -5.3628630842      -11.2497884666        6.7668230784  W2        402             0.0000000000
      1206       402  TIP3      H2             -4.7943330842      -11.4979684666        8.1477930784  W2        402             0.0000000000
      1207       403  TIP3      OH2            -1.5878230842      -10.4503184666        3.4857530784  W2        403             0.0000000000
      1208       403  TIP3      H1             -2.0127130842       -9.6404684666        3.2032130784  W2        403             0.0000000000
      1209       403  TIP3      H2             -0.6835430842      -10.3649084666        3.1837330784  W2        403             0.0000000000
      1210       404  TIP3      OH2             2.7233169158       -9.0513184666        6.4451230784  W2        404             0.0000000000
      1211       404  TIP3      H1              2.9080669158       -9.3847084666        7.3231530784  W2        404             0.0000000000
      1212       404  TIP3      H2              3.5697669158       -8.7414584666        6.1230430784  W2        404             0.0000000000
      1213       405  TIP3      OH2             5.0683569158       -7.7654284666        5.6892630784  W2        405             0.0000000000
      1214       405  TIP3      H1              5.7452469158       -8.3981984666        5.4491830784  W2        405             0.0000000000
      1215       405  TIP3      H2              5.3902369158       -7.3643784666        6.4965930784  W2        405             0.0000000000
      1216       406  TIP3      OH2             9.9857369158      -25.1758784666        4.7687630784  W2        406             0.0000000000
      1217       406  TIP3      H1              9.1730869158      -24.8508484666        4.3812330784  W2        406             0.0000000000
      1218       406  TIP3      H2             10.2185869158      -25.9360284666        4.2356730784  W2        406             0.0000000000
      1219       407  TIP3      OH2            -4.1861530842       -7.1939284666        3.5332830784  W2        407             0.0000000000
      1220       407  TIP3      H1             -4.9065130842       -6.7538284666        3.0820530784  W2        407             0.0000000000
      1221       407  TIP3      H2             -4.5517530842       -7.4444584666        4.3816830784  W2        407             0.0000000000
      1222       408  TIP3      OH2            -1.7188930842       -7.5935384666        2.5630030784  W2        408             0.0000000000
      1223       408  TIP3      H1             -2.5836730842       -7.5216884666        2.9670130784  W2        408             0.0000000000
      1224       408  TIP3      H2             -1.7739930842       -7.0468084666        1.7792530784  W2        408             0.0000000000
      1225       409  TIP3      OH2             2.9916669158       -7.7056484666        1.7386030784  W2        409             0.0000000000
      1226       409  TIP3      H1              2.5350669158       -7.1766784666        1.0844430784  W2        409             0.0000000000
      1227       409  TIP3      H2              3.1544669158       -7.1025084666        2.4638330784  W2        409             0.0000000000
      1228       410  TIP3      OH2             5.3192969158       -8.8276884666        2.6836330784  W2        410             0.0000000000
      1229       410  TIP3      H1              4.4146669158       -8.6626684666        2.4178430784  W2        410             0.0000000000
      1230       410  TIP3      H2              5.7481569158       -7.9744684666        2.6179730784  W2        410             0.0000000000
      1231       411  TIP3      OH2             7.9234869158       -7.2577784666        2.9784130784  W2        411             0.0000000000
      1232       411  TIP3      H1              7.7416869158       -6.3418884666        2.7679030784  W2        411             0.0000000000
      1233       411  TIP3      H2              8.1002669158       -7.6680684666        2.1318730784  W2        411             0.0000000000
      1234       412  TIP3      OH2            -4.7713430842       -8.5706784666        0.4434630784  W2        412             0.0000000000
      1235       412  TIP3      H1             -4.7897430842       -8.9961684666        1.3006930784  W2        412             0.0000000000
      1236       412  TIP3      H2             -3.9665530842       -8.8891784666        0.0346830784  W2        412             0.0000000000
      1237       413  TIP3      OH2            -2.6300330842       -9.8608084666       -0.9015469216  W2        413             0.0000000000
      1238       413  TIP3      H1             -2.8489630842      -10.7770684666       -0.7319469216  W2        413             0.0000000000
      1239       413  TIP3      H2             -1.8058130842       -9.7207684666       -0.4354069216  W2        413             0.0000000000
      1240       414  TIP3      OH2            -0.0927830842       -9.3908784666       -0.0527469216  W2        414             0.0000000000
      1241       414  TIP3      H1              0.1197869158      -10.2789784666       -0.3396569216  W2        414             0.0000000000
      1242       414  TIP3      H2             -0.0282730842       -9.4251084666        0.9016530784  W2        414             0.0000000000
      1243       415  TIP3      OH2             3.4155869158      -23.7268184666       -0.9084169216  W2        415             0.0000000000
      1244       415  TIP3      H1              2.7412669158      -24.3562584666       -0.6528369216  W2        415             0.0000000000
      1245       415  TIP3      H2              3.9795069158      -24.2109284666       -1.5116269216  W2        415             0.0000000000
      1246       416  TIP3      OH2             8.5583069158      -25.6194184666       -0.7957069216  W2        416             0.0000000000
      1247       416  TIP3      H1              9.1620669158      -25.0718784666       -1.2976069216  W2        416             0.0000000000
      1248       416  TIP3      H2              7.6885069158      -25.3003784666       -1.0362969216  W2        416             0.0000000000
      1249       417  TIP3      OH2            10.2853469158      -24.4805484666       -2.4626169216  W2        417             0.0000000000
      1250       417  TIP3      H1             10.8970969158      -24.9949784666       -2.9892569216  W2        417             0.0000000000
      1251       417  TIP3      H2             10.6676869158      -23.6033384666       -2.4391769216  W2        417             0.0000000000
      1252       418  TIP3      OH2            -4.2576630842      -25.0927884666       -3.0864269216  W2        418             0.0000000000
      1253       418  TIP3      H1             -5.0346830842      -25.3272984666       -3.5938369216  W2        418             0.0000000000
      1254       418  TIP3      H2             -3.7273030842      -25.8895784666       -3.0776269216  W2        418             0.0000000000
      1255       419  TIP3      OH2            -5.4213230842      -25.2949784666       -7.2828169216  W2        419             0.0000000000
      1256       419  TIP3      H1             -4.9822530842      -24.6839284666       -7.8744669216  W2        419             0.0000000000
      1257       419  TIP3      H2             -6.0550830842      -24.7565684666       -6.8088169216  W2        419             0.0000000000
      1258       420  TIP3      OH2             0.3215969158      -25.1660784666       -3.2731169216  W2        420             0.0000000000
      1259       420  TIP3      H1              1.1959369158      -24.7776484666       -3.3026869216  W2        420             0.0000000000
      1260       420  TIP3      H2              0.1856769158      -25.3812984666       -2.3503969216  W2        420             0.0000000000
      1261       421  TIP3      OH2             5.8784369158      -25.1360984666       -1.6239469216  W2        421             0.0000000000
      1262       421  TIP3      H1              5.9545969158      -25.0409384666       -2.5733469216  W2        421             0.0000000000
      1263       421  TIP3      H2              5.6033569158      -26.0438084666       -1.4950369216  W2        421             0.0000000000
      1264       422  TIP3      OH2             7.2316969158      -25.1103184666       -5.9314469216  W2        422             0.0000000000
      1265       422  TIP3      H1              6.5288069158      -24.4953984666       -6.1413069216  W2        422             0.0000000000
      1266       422  TIP3      H2              6.7868369158      -25.9476484666       -5.8003569216  W2        422             0.0000000000
      1267       423  TIP3      OH2            -5.5203730842       -9.3467584666       -6.3853069216  W2        423             0.0000000000
      1268       423  TIP3      H1             -6.2053830842       -9.3848684666       -7.0527969216  W2        423             0.0000000000
      1269       423  TIP3      H2             -5.5166530842       -8.4339984666       -6.0970969216  W2        423             0.0000000000
      1270       424  TIP3      OH2            -3.5604130842      -23.3788284666       -8.8404069216  W2        424             0.0000000000
      1271       424  TIP3      H1             -3.0690730842      -24.0085884666       -9.3678569216  W2        424             0.0000000000
      1272       424  TIP3      H2             -2.9367830842      -23.0828884666       -8.1772869216  W2        424             0.0000000000
      1273       425  TIP3      OH2             1.4655969158      -23.0856784666       -6.3833569216  W2        425             0.0000000000
      1274       425  TIP3      H1              1.6437269158      -23.7323584666       -5.7004969216  W2        425             0.0000000000
      1275       425  TIP3      H2              1.4122169158      -22.2519084666       -5.9162469216  W2        425             0.0000000000
      1276       426  TIP3      OH2             3.3439769158       -8.1372684666       -7.9876869216  W2        426             0.0000000000
      1277       426  TIP3      H1              4.2099969158       -7.7705284666       -8.1658669216  W2        426             0.0000000000
      1278       426  TIP3      H2              3.0972569158       -8.5764684666       -8.8016069216  W2        426             0.0000000000
      1279       427  TIP3      OH2            10.0529369158       -8.5742384666       -5.3085769216  W2        427             0.0000000000
      1280       427  TIP3      H1              9.8586469158       -9.3220284666       -5.8736169216  W2        427             0.0000000000
      1281       427  TIP3      H2             10.0139469158       -7.8162284666       -5.8917869216  W2        427             0.0000000000
      1282       428  TIP3      OH2            -4.2998630842      -24.5785984666        6.4311930784  W2        428             0.0000000000
      1283       428  TIP3      H1             -4.6660430842      -25.3443384666        6.8736630784  W2        428             0.0000000000
      1284       428  TIP3      H2             -3.3870130842      -24.5495784666        6.7177030784  W2        428             0.0000000000
      1285       429  TIP3      OH2            -2.3267830842      -25.2281584666        7.9669030784  W2        429             0.0000000000
      1286       429  TIP3      H1             -1.4284230842      -25.5021384666        7.7822430784  W2        429             0.0000000000
      1287       429  TIP3      H2             -2.7134730842      -25.9705584666        8.4311630784  W2        429             0.0000000000
      1288       430  TIP3      OH2            -3.7022530842       -8.4266784666       -9.3600969216  W2        430             0.0000000000
      1289       430  TIP3      H1             -3.9697930842       -8.1403884666       -8.4867869216  W2        430             0.0000000000
      1290       430  TIP3      H2             -2.9309930842       -8.9727584666       -9.2078469216  W2        430             0.0000000000
      1291       431  TIP3      OH2             6.0944469158      -25.8956284666        8.1491830784  W2        431             0.0000000000
      1292       431  TIP3      H1              6.1711669158      -26.3215584666        9.0029530784  W2        431             0.0000000000
      1293       431  TIP3      H2              6.9881069158      -25.8821584666        7.8065330784  W2        431             0.0000000000
      1294       432  TIP3      OH2             9.2705569158       -9.8229984666        6.8416030784  W2        432             0.0000000000
      1295       432  TIP3      H1              8.4887469158      -10.0091984666        6.3216630784  W2        432             0.0000000000
      1296       432  TIP3      H2              9.1985469158       -8.8935684666        7.0588530784  W2        432             0.0000000000
      1297       433  TIP3      OH2            23.6765969158      -15.9365584666       -3.1276769216  W2        433             0.0000000000
      1298       433  TIP3      H1             23.7657069158      -14.9927384666       -3.2599669216  W2        433             0.0000000000
      1299       433  TIP3      H2             23.0383569158      -16.2119184666       -3.7857369216  W2        433             0.0000000000
      1300       434  TIP3      OH2            22.6097269158      -16.6814884666        0.2911430784  W2        434             0.0000000000
      1301       434  TIP3      H1             22.5714769158      -17.3278584666        0.9961030784  W2        434             0.0000000000
      1302       434  TIP3      H2             22.2873769158      -17.1480484666       -0.4799869216  W2        434             0.0000000000
      1303       435  TIP3      OH2            14.9782269158      -17.0672784666        1.8841330784  W2        435             0.0000000000
      1304       435  TIP3      H1             15.0194369158      -17.6929484666        2.6073730784  W2        435             0.0000000000
      1305       435  TIP3      H2             15.6809969158      -16.4434184666        2.0661730784  W2        435             0.0000000000
      1306       436  TIP3      OH2            15.9015369158      -12.6173884666        0.4190430784  W2        436             0.0000000000
      1307       436  TIP3      H1             15.5320569158      -13.4193384666        0.0494730784  W2        436             0.0000000000
      1308       436  TIP3      H2             16.8426469158      -12.7858984666        0.4653830784  W2        436             0.0000000000
      1309       437  TIP3      OH2            12.5115869158      -18.9571284666       -4.1880769216  W2        437             0.0000000000
      1310       437  TIP3      H1             12.0639269158      -18.1112584666       -4.2064269216  W2        437             0.0000000000
      1311       437  TIP3      H2             11.9507069158      -19.5367084666       -4.7035669216  W2        437             0.0000000000
      1312       438  TIP3      OH2            13.2221969158      -16.7951684666       -2.0622769216  W2        438             0.0000000000
      1313       438  TIP3      H1             13.4355469158      -17.5650084666       -1.5349769216  W2        438             0.0000000000
      1314       438  TIP3      H2             13.9599569158      -16.7054984666       -2.6655169216  W2        438             0.0000000000
      1315       439  TIP3      OH2            23.4272969158       -8.6382784666       -1.1953069216  W2        439             0.0000000000
      1316       439  TIP3      H1             24.0469369158       -9.3148084666       -1.4683869216  W2        439             0.0000000000
      1317       439  TIP3      H2             23.2190369158       -8.8561984666       -0.2868169216  W2        439             0.0000000000
      1318       440  TIP3      OH2            20.9991669158      -14.2493484666        0.6972430784  W2        440             0.0000000000
      1319       440  TIP3      H1             21.3029569158      -14.9352084666        0.1026530784  W2        440             0.0000000000
      1320       440  TIP3      H2             21.7205669158      -14.1304784666        1.3150430784  W2        440             0.0000000000
      1321       441  TIP3      OH2            24.1398669158      -19.8551084666        1.0247230784  W2        441             0.0000000000
      1322       441  TIP3      H1             24.2824569158      -20.8014084666        1.0448830784  W2        441             0.0000000000
      1323       441  TIP3      H2             24.0337669158      -19.6481284666        0.0962130784  W2        441             0.0000000000
      1324       442  TIP3      OH2            17.2946969158      -21.7534684666       -1.7027969216  W2        442             0.0000000000
      1325       442  TIP3      H1             17.3378069158      -20.8936184666       -2.1211669216  W2        442             0.0000000000
      1326       442  TIP3      H2             16.8371069158      -22.3059984666       -2.3364769216  W2        442             0.0000000000
      1327       443  TIP3      OH2            25.0169669158      -21.6229084666       -3.3019669216  W2        443             0.0000000000
      1328       443  TIP3      H1             25.6633969158      -21.9515884666       -2.6772069216  W2        443             0.0000000000
      1329       443  TIP3      H2             25.5269069158      -21.1050084666       -3.9248269216  W2        443             0.0000000000
      1330       444  TIP3      OH2            13.9148469158      -19.3568884666       -0.9406569216  W2        444             0.0000000000
      1331       444  TIP3      H1             14.5685069158      -19.9067184666       -0.5086469216  W2        444             0.0000000000
      1332       444  TIP3      H2             13.9387769158      -19.6309884666       -1.8574569216  W2        444             0.0000000000
      1333       445  TIP3      OH2            19.0712969158      -17.8067584666       -1.7255069216  W2        445             0.0000000000
      1334       445  TIP3      H1             19.6873969158      -18.3332184666       -1.2161069216  W2        445             0.0000000000
      1335       445  TIP3      H2             18.4851769158      -18.4468884666       -2.1291469216  W2        445             0.0000000000
      1336       446  TIP3      OH2            16.1048869158      -22.8356284666        2.3712830784  W2        446             0.0000000000
      1337       446  TIP3      H1             15.8860569158      -22.3055684666        1.6048830784  W2        446             0.0000000000
      1338       446  TIP3      H2             15.4369769158      -22.6090784666        3.0184230784  W2        446             0.0000000000
      1339       447  TIP3      OH2            23.4738669158      -13.3355184666       -4.0848069216  W2        447             0.0000000000
      1340       447  TIP3      H1             23.1783769158      -13.6582884666       -4.9361169216  W2        447             0.0000000000
      1341       447  TIP3      H2             23.1496469158      -12.4358484666       -4.0435469216  W2        447             0.0000000000
      1342       448  TIP3      OH2            18.6740269158      -15.1600584666        2.6586530784  W2        448             0.0000000000
      1343       448  TIP3      H1             17.9339369158      -14.5619084666        2.7621730784  W2        448             0.0000000000
      1344       448  TIP3      H2             19.3879769158      -14.6060984666        2.3430130784  W2        448             0.0000000000
      1345       449  TIP3      OH2            15.6986169158      -20.9434484666        0.3235030784  W2        449             0.0000000000
      1346       449  TIP3      H1             16.3122469158      -20.3106884666        0.6967430784  W2        449             0.0000000000
      1347       449  TIP3      H2             16.2106869158      -21.4159484666       -0.3328069216  W2        449             0.0000000000
      1348       450  TIP3      OH2            17.0814569158      -13.1957584666        3.4458030784  W2        450             0.0000000000
      1349       450  TIP3      H1             17.0762169158      -12.3164084666        3.0677330784  W2        450             0.0000000000
      1350       450  TIP3      H2             16.2278669158      -13.2793484666        3.8707930784  W2        450             0.0000000000
      1351       451  TIP3      OH2            13.2025469158      -13.5249684666       -5.7722669216  W2        451             0.0000000000
      1352       451  TIP3      H1             12.9306369158      -13.2958684666       -6.6609769216  W2        451             0.0000000000
      1353       451  TIP3      H2             13.2481169158      -12.6870884666       -5.3117369216  W2        451             0.0000000000
      1354       452  TIP3      OH2            20.1313569158      -25.5301184666       -0.1762269216  W2        452             0.0000000000
      1355       452  TIP3      H1             20.0137769158      -26.4785184666       -0.2303969216  W2        452             0.0000000000
      1356       452  TIP3      H2             19.2763669158      -25.1975084666        0.0968830784  W2        452             0.0000000000
      1357       453  TIP3      OH2            25.0796369158      -10.1220284666       -2.4342569216  W2        453             0.0000000000
      1358       453  TIP3      H1             25.5048669158      -10.8292384666       -2.9192969216  W2        453             0.0000000000
      1359       453  TIP3      H2             25.3966369158       -9.3207584666       -2.8510369216  W2        453             0.0000000000
      1360       454  TIP3      OH2            22.3978469158      -16.6925584666       -5.6756469216  W2        454             0.0000000000
      1361       454  TIP3      H1             21.6863969158      -16.1575884666       -6.0275969216  W2        454             0.0000000000
      1362       454  TIP3      H2             23.0888069158      -16.6373484666       -6.3357569216  W2        454             0.0000000000
      1363       455  TIP3      OH2            22.4517669158      -18.2351284666       -8.6371469216  W2        455             0.0000000000
      1364       455  TIP3      H1             23.1527569158      -18.2124384666       -7.9857469216  W2        455             0.0000000000
      1365       455  TIP3      H2             22.7540569158      -18.8631584666       -9.2932169216  W2        455             0.0000000000
      1366       456  TIP3      OH2            25.8036169158      -16.4832284666       -4.7240569216  W2        456             0.0000000000
      1367       456  TIP3      H1             25.0717169158      -16.2548584666       -4.1509969216  W2        456             0.0000000000
      1368       456  TIP3      H2             26.2508369158      -17.1969584666       -4.2693069216  W2        456             0.0000000000
      1369       457  TIP3      OH2            25.7009669158      -18.3089684666        4.3436430784  W2        457             0.0000000000
      1370       457  TIP3      H1             25.7808769158      -17.5455284666        4.9154930784  W2        457             0.0000000000
      1371       457  TIP3      H2             25.0997369158      -18.0297284666        3.6531530784  W2        457             0.0000000000
      1372       458  TIP3      OH2            17.4489869158      -15.8526084666       -2.8415569216  W2        458             0.0000000000
      1373       458  TIP3      H1             17.1185069158      -16.2232684666       -3.6598569216  W2        458             0.0000000000
      1374       458  TIP3      H2             18.0373969158      -16.5232084666       -2.4947269216  W2        458             0.0000000000
      1375       459  TIP3      OH2            18.8157369158      -12.4245484666       -0.1603369216  W2        459             0.0000000000
      1376       459  TIP3      H1             18.7208669158      -13.0032384666       -0.9168769216  W2        459             0.0000000000
      1377       459  TIP3      H2             19.5450969158      -12.7959784666        0.3359430784  W2        459             0.0000000000
      1378       460  TIP3      OH2            17.8155369158      -17.0840484666        0.7919430784  W2        460             0.0000000000
      1379       460  TIP3      H1             18.3807869158      -16.9626284666        0.0290630784  W2        460             0.0000000000
      1380       460  TIP3      H2             18.1344269158      -16.4465484666        1.4307930784  W2        460             0.0000000000
      1381       461  TIP3      OH2            24.1247569158      -11.5808584666        1.5259930784  W2        461             0.0000000000
      1382       461  TIP3      H1             23.8844169158      -10.9185484666        2.1739130784  W2        461             0.0000000000
      1383       461  TIP3      H2             23.9265769158      -12.4153384666        1.9509530784  W2        461             0.0000000000
      1384       462  TIP3      OH2            18.6956069158      -12.6847784666        5.5091330784  W2        462             0.0000000000
      1385       462  TIP3      H1             18.3843569158      -11.9024584666        5.9644530784  W2        462             0.0000000000
      1386       462  TIP3      H2             18.0456269158      -12.8378684666        4.8233330784  W2        462             0.0000000000
      1387       463  TIP3      OH2            24.6745669158      -17.3209384666       -7.0389369216  W2        463             0.0000000000
      1388       463  TIP3      H1             25.2541169158      -17.1709084666       -6.2920469216  W2        463             0.0000000000
      1389       463  TIP3      H2             25.0885669158      -16.8501984666       -7.7622969216  W2        463             0.0000000000
      1390       464  TIP3      OH2            15.6155969158      -16.4866684666        4.7377030784  W2        464             0.0000000000
      1391       464  TIP3      H1             15.6859169158      -15.8359884666        5.4362030784  W2        464             0.0000000000
      1392       464  TIP3      H2             14.7248169158      -16.3839184666        4.4027930784  W2        464             0.0000000000
      1393       465  TIP3      OH2            22.4010569158      -10.5840884666       -3.6036269216  W2        465             0.0000000000
      1394       465  TIP3      H1             22.8748169158      -10.2884584666       -2.8262069216  W2        465             0.0000000000
      1395       465  TIP3      H2             21.8379869158       -9.8459284666       -3.8366669216  W2        465             0.0000000000
      1396       466  TIP3      OH2            16.9351969158      -10.6132784666        6.2725130784  W2        466             0.0000000000
      1397       466  TIP3      H1             16.9427269158      -10.7493084666        5.3250630784  W2        466             0.0000000000
      1398       466  TIP3      H2             16.0192369158      -10.7304684666        6.5245130784  W2        466             0.0000000000
      1399       467  TIP3      OH2            16.4392569158      -16.7831784666       -5.2522769216  W2        467             0.0000000000
      1400       467  TIP3      H1             16.1473869158      -16.0150084666       -5.7431469216  W2        467             0.0000000000
      1401       467  TIP3      H2             15.7647769158      -17.4425584666       -5.4151369216  W2        467             0.0000000000
      1402       468  TIP3      OH2            12.5322669158      -14.4202584666        3.5627030784  W2        468             0.0000000000
      1403       468  TIP3      H1             12.0311069158      -14.4483184666        2.7476730784  W2        468             0.0000000000
      1404       468  TIP3      H2             12.5376369158      -15.3259384666        3.8724330784  W2        468             0.0000000000
      1405       469  TIP3      OH2            12.2825369158      -11.6398784666        0.4467230784  W2        469             0.0000000000
      1406       469  TIP3      H1             13.2285969158      -11.7841784666        0.4276730784  W2        469             0.0000000000
      1407       469  TIP3      H2             12.1701669158      -10.8555984666        0.9838430784  W2        469             0.0000000000
      1408       470  TIP3      OH2            21.4587869158      -11.3999884666        5.0052330784  W2        470             0.0000000000
      1409       470  TIP3      H1             21.5462469158      -10.5735284666        5.4801430784  W2        470             0.0000000000
      1410       470  TIP3      H2             20.5952969158      -11.7296084666        5.2541630784  W2        470             0.0000000000
      1411       471  TIP3      OH2            21.8733669158       -7.6276184666       -5.1887069216  W2        471             0.0000000000
      1412       471  TIP3      H1             21.7979669158       -7.7488984666       -6.1351869216  W2        471             0.0000000000
      1413       471  TIP3      H2             21.9062369158       -6.6783484666       -5.0702469216  W2        471             0.0000000000
      1414       472  TIP3      OH2            15.5267469158       -8.8389184666       -3.4078069216  W2        472             0.0000000000
      1415       472  TIP3      H1             15.6787869158       -9.1868784666       -2.5291569216  W2        472             0.0000000000
      1416       472  TIP3      H2             14.6757869158       -9.1951884666       -3.6630869216  W2        472             0.0000000000
      1417       473  TIP3      OH2            24.9749669158       -8.4735984666       -8.1864669216  W2        473             0.0000000000
      1418       473  TIP3      H1             25.3498069158       -9.2179884666       -8.6572069216  W2        473             0.0000000000
      1419       473  TIP3      H2             24.9793369158       -8.7435384666       -7.2681369216  W2        473             0.0000000000
      1420       474  TIP3      OH2            24.6437769158       -8.5478884666       -5.4372469216  W2        474             0.0000000000
      1421       474  TIP3      H1             23.7087569158       -8.4476984666       -5.2585469216  W2        474             0.0000000000
      1422       474  TIP3      H2             24.9239669158       -9.2572884666       -4.8589269216  W2        474             0.0000000000
      1423       475  TIP3      OH2            14.7813169158      -13.0967184666        4.6059830784  W2        475             0.0000000000
      1424       475  TIP3      H1             14.9974469158      -13.4581584666        5.4655630784  W2        475             0.0000000000
      1425       475  TIP3      H2             13.9257869158      -13.4713384666        4.3963330784  W2        475             0.0000000000
      1426       476  TIP3      OH2            17.4001169158      -24.6266684666        0.6014030784  W2        476             0.0000000000
      1427       476  TIP3      H1             16.5384869158      -24.7138484666        0.1936930784  W2        476             0.0000000000
      1428       476  TIP3      H2             17.3776869158      -23.7706584666        1.0291630784  W2        476             0.0000000000
      1429       477  TIP3      OH2            22.0628969158      -24.9046284666        3.9761030784  W2        477             0.0000000000
      1430       477  TIP3      H1             22.4832069158      -25.3199184666        4.7291630784  W2        477             0.0000000000
      1431       477  TIP3      H2             21.1298569158      -25.0832984666        4.0933030784  W2        477             0.0000000000
      1432       478  TIP3      OH2            25.3893869158      -21.1491084666        4.8295530784  W2        478             0.0000000000
      1433       478  TIP3      H1             24.8753369158      -21.2748884666        5.6271530784  W2        478             0.0000000000
      1434       478  TIP3      H2             25.2338569158      -20.2367984666        4.5851730784  W2        478             0.0000000000
      1435       479  TIP3      OH2            21.7246269158      -22.4122884666       -8.7388169216  W2        479             0.0000000000
      1436       479  TIP3      H1             21.4711069158      -22.3931284666       -7.8160069216  W2        479             0.0000000000
      1437       479  TIP3      H2             21.4678369158      -23.2837484666       -9.0401969216  W2        479             0.0000000000
      1438       480  TIP3      OH2            17.4911269158      -19.6612184666        1.6964230784  W2        480             0.0000000000
      1439       480  TIP3      H1             16.8493369158      -19.7014884666        2.4054330784  W2        480             0.0000000000
      1440       480  TIP3      H2             17.5283269158      -18.7347484666        1.4587230784  W2        480             0.0000000000
      1441       481  TIP3      OH2            17.4880369158      -19.4402084666       -3.3915769216  W2        481             0.0000000000
      1442       481  TIP3      H1             16.5953269158      -19.7805984666       -3.4501969216  W2        481             0.0000000000
      1443       481  TIP3      H2             17.9386969158      -19.8171184666       -4.1472569216  W2        481             0.0000000000
      1444       482  TIP3      OH2            23.0235869158      -19.0241784666       -4.5744969216  W2        482             0.0000000000
      1445       482  TIP3      H1             22.6146169158      -18.2093184666       -4.8660169216  W2        482             0.0000000000
      1446       482  TIP3      H2             23.7442069158      -19.1641684666       -5.1887869216  W2        482             0.0000000000
      1447       483  TIP3      OH2            22.1257469158      -18.8485384666        6.9135730784  W2        483             0.0000000000
      1448       483  TIP3      H1             21.5631269158      -19.5533784666        7.2343530784  W2        483             0.0000000000
      1449       483  TIP3      H2             22.9520869158      -18.9693484666        7.3813330784  W2        483             0.0000000000
      1450       484  TIP3      OH2            24.0283569158      -19.5781384666       -1.7605269216  W2        484             0.0000000000
      1451       484  TIP3      H1             23.8328069158      -18.9724584666       -2.4754669216  W2        484             0.0000000000
      1452       484  TIP3      H2             24.2096169158      -20.4116184666       -2.1948969216  W2        484             0.0000000000
      1453       485  TIP3      OH2            15.2411769158      -19.3408684666        3.5636230784  W2        485             0.0000000000
      1454       485  TIP3      H1             15.2031169158      -18.9407084666        4.4323330784  W2        485             0.0000000000
      1455       485  TIP3      H2             14.7502869158      -20.1576284666        3.6539130784  W2        485             0.0000000000
      1456       486  TIP3      OH2            18.6069169158      -21.9666384666       -9.6377769216  W2        486             0.0000000000
      1457       486  TIP3      H1             18.1759869158      -22.4116284666       -8.9080369216  W2        486             0.0000000000
      1458       486  TIP3      H2             17.8887869158      -21.5950084666      -10.1500269216  W2        486             0.0000000000
      1459       487  TIP3      OH2            11.8492569158      -22.2246884666       -2.5859069216  W2        487             0.0000000000
      1460       487  TIP3      H1             12.4800269158      -22.2534784666       -1.8665169216  W2        487             0.0000000000
      1461       487  TIP3      H2             12.2986869158      -22.6498184666       -3.3163169216  W2        487             0.0000000000
      1462       488  TIP3      OH2            13.1234669158      -21.4784884666       -7.1618669216  W2        488             0.0000000000
      1463       488  TIP3      H1             13.5976369158      -20.8874984666       -7.7467769216  W2        488             0.0000000000
      1464       488  TIP3      H2             12.4061069158      -20.9481984666       -6.8148569216  W2        488             0.0000000000
      1465       489  TIP3      OH2            23.2922769158      -17.9400084666        2.9107130784  W2        489             0.0000000000
      1466       489  TIP3      H1             23.6157569158      -18.5710384666        2.2677630784  W2        489             0.0000000000
      1467       489  TIP3      H2             22.8522069158      -18.4747884666        3.5714530784  W2        489             0.0000000000
      1468       490  TIP3      OH2            20.0695669158      -22.0124584666       -2.3051669216  W2        490             0.0000000000
      1469       490  TIP3      H1             19.1586769158      -21.9557784666       -2.0165669216  W2        490             0.0000000000
      1470       490  TIP3      H2             20.5748569158      -22.0729084666       -1.4944469216  W2        490             0.0000000000
      1471       491  TIP3      OH2            14.8979069158      -20.3838284666       -3.4784069216  W2        491             0.0000000000
      1472       491  TIP3      H1             14.0087069158      -20.2842784666       -3.8184469216  W2        491             0.0000000000
      1473       491  TIP3      H2             15.1943969158      -21.2255284666       -3.8246169216  W2        491             0.0000000000
      1474       492  TIP3      OH2            18.5510869158      -20.3835684666       -5.8219469216  W2        492             0.0000000000
      1475       492  TIP3      H1             19.4826369158      -20.2545684666       -5.6436369216  W2        492             0.0000000000
      1476       492  TIP3      H2             18.3361169158      -19.7141384666       -6.4714769216  W2        492             0.0000000000
      1477       493  TIP3      OH2            24.4747569158      -22.7778284666        0.9590130784  W2        493             0.0000000000
      1478       493  TIP3      H1             23.7979169158      -22.6465184666        1.6229830784  W2        493             0.0000000000
      1479       493  TIP3      H2             23.9892469158      -22.9328784666        0.1487830784  W2        493             0.0000000000
      1480       494  TIP3      OH2            17.2251069158      -19.1893484666       -8.2553369216  W2        494             0.0000000000
      1481       494  TIP3      H1             16.6826169158      -19.5689684666       -8.9465769216  W2        494             0.0000000000
      1482       494  TIP3      H2             18.0585969158      -18.9948784666       -8.6839269216  W2        494             0.0000000000
      1483       495  TIP3      OH2            15.3602469158      -14.6321584666        6.8438230784  W2        495             0.0000000000
      1484       495  TIP3      H1             16.0924869158      -14.3775684666        7.4052730784  W2        495             0.0000000000
      1485       495  TIP3      H2             14.5801169158      -14.4276184666        7.3593630784  W2        495             0.0000000000
      1486       496  TIP3      OH2            21.3895369158      -19.2251584666       -0.4182069216  W2        496             0.0000000000
      1487       496  TIP3      H1             21.9538769158      -19.7714984666       -0.9652469216  W2        496             0.0000000000
      1488       496  TIP3      H2             21.2418769158      -19.7469684666        0.3705530784  W2        496             0.0000000000
      1489       497  TIP3      OH2            16.3915069158      -23.0885484666       -3.9997269216  W2        497             0.0000000000
      1490       497  TIP3      H1             16.0744569158      -23.9910184666       -4.0351869216  W2        497             0.0000000000
      1491       497  TIP3      H2             17.1729169158      -23.0868084666       -4.5525669216  W2        497             0.0000000000
      1492       498  TIP3      OH2            20.0161269158      -20.8365484666        1.9958330784  W2        498             0.0000000000
      1493       498  TIP3      H1             19.1806569158      -20.3825984666        2.1060730784  W2        498             0.0000000000
      1494       498  TIP3      H2             20.5401869158      -20.5606984666        2.7478230784  W2        498             0.0000000000
      1495       499  TIP3      OH2            20.5603869158      -14.6237784666       -6.3195269216  W2        499             0.0000000000
      1496       499  TIP3      H1             19.8154869158      -15.1312484666       -6.6417369216  W2        499             0.0000000000
      1497       499  TIP3      H2             20.4261069158      -14.5749784666       -5.3730469216  W2        499             0.0000000000
      1498       500  TIP3      OH2            24.4580669158      -21.8097884666       -8.1202669216  W2        500             0.0000000000
      1499       500  TIP3      H1             23.5194869158      -21.6982284666       -8.2713869216  W2        500             0.0000000000
      1500       500  TIP3      H2             24.7552769158      -20.9530984666       -7.8136969216  W2        500             0.0000000000
      1501       501  TIP3      OH2            22.0795969158      -14.4394484666        4.9173830784  W2        501             0.0000000000
      1502       501  TIP3      H1             21.7342069158      -14.8212084666        5.7243430784  W2        501             0.0000000000
      1503       501  TIP3      H2             21.8796069158      -13.5060884666        4.9886730784  W2        501             0.0000000000
      1504       502  TIP3      OH2            25.1764169158      -19.9425184666       -6.4595269216  W2        502             0.0000000000
      1505       502  TIP3      H1             26.0683169158      -20.0800184666       -6.1404069216  W2        502             0.0000000000
      1506       502  TIP3      H2             25.2327769158      -19.1519084666       -6.9961769216  W2        502             0.0000000000
      1507       503  TIP3      OH2            15.6852169158      -15.3287784666       -0.5497369216  W2        503             0.0000000000
      1508       503  TIP3      H1             16.4299369158      -15.3312084666       -1.1510869216  W2        503             0.0000000000
      1509       503  TIP3      H2             15.7628769158      -16.1523984666       -0.0682269216  W2        503             0.0000000000
      1510       504  TIP3      OH2            22.6857969158      -13.1653484666       -7.2940669216  W2        504             0.0000000000
      1511       504  TIP3      H1             22.3906369158      -12.3385584666       -6.9125869216  W2        504             0.0000000000
      1512       504  TIP3      H2             21.9827969158      -13.7846584666       -7.0979269216  W2        504             0.0000000000
      1513       505  TIP3      OH2            12.6931869158      -16.8680884666        4.7651130784  W2        505             0.0000000000
      1514       505  TIP3      H1             12.9160469158      -17.2861284666        5.5968630784  W2        505             0.0000000000
      1515       505  TIP3      H2             12.0911969158      -17.4805884666        4.3423930784  W2        505             0.0000000000
      1516       506  TIP3      OH2            19.7096769158      -17.3510984666        6.9780830784  W2        506             0.0000000000
      1517       506  TIP3      H1             19.4137569158      -17.5167984666        6.0829930784  W2        506             0.0000000000
      1518       506  TIP3      H2             20.6411969158      -17.5710684666        6.9674730784  W2        506             0.0000000000
      1519       507  TIP3      OH2            24.3299569158      -11.9778984666        4.8678830784  W2        507             0.0000000000
      1520       507  TIP3      H1             23.4293869158      -11.7946384666        4.6002730784  W2        507             0.0000000000
      1521       507  TIP3      H2             24.3640669158      -11.7189684666        5.7887630784  W2        507             0.0000000000
      1522       508  TIP3      OH2            25.5168469158      -16.1391184666        0.7215430784  W2        508             0.0000000000
      1523       508  TIP3      H1             24.5885369158      -16.3709284666        0.6944730784  W2        508             0.0000000000
      1524       508  TIP3      H2             25.9679569158      -16.9161384666        0.3914230784  W2        508             0.0000000000
      1525       509  TIP3      OH2            18.0601569158      -11.8109584666       -3.1455869216  W2        509             0.0000000000
      1526       509  TIP3      H1             18.5873769158      -11.0375184666       -3.3457069216  W2        509             0.0000000000
      1527       509  TIP3      H2             17.1800069158      -11.5860384666       -3.4471869216  W2        509             0.0000000000
      1528       510  TIP3      OH2            13.8149269158      -16.9485484666       -8.5583469216  W2        510             0.0000000000
      1529       510  TIP3      H1             14.4309169158      -16.3218284666       -8.1788669216  W2        510             0.0000000000
      1530       510  TIP3      H2             12.9531869158      -16.6325684666       -8.2866969216  W2        510             0.0000000000
      1531       511  TIP3      OH2            19.4873869158      -14.1479684666       -3.5691569216  W2        511             0.0000000000
      1532       511  TIP3      H1             19.2463869158      -13.2225284666       -3.5276269216  W2        511             0.0000000000
      1533       511  TIP3      H2             18.7467469158      -14.6068384666       -3.1727669216  W2        511             0.0000000000
      1534       512  TIP3      OH2            20.0020469158       -9.9986084666        2.7459530784  W2        512             0.0000000000
      1535       512  TIP3      H1             20.3645169158       -9.1440484666        2.5123930784  W2        512             0.0000000000
      1536       512  TIP3      H2             20.5335669158      -10.2904484666        3.4865830784  W2        512             0.0000000000
      1537       513  TIP3      OH2            18.1704669158       -9.1262084666       -4.0239369216  W2        513             0.0000000000
      1538       513  TIP3      H1             17.2205169158       -9.0204684666       -3.9726069216  W2        513             0.0000000000
      1539       513  TIP3      H2             18.5222769158       -8.3054684666       -3.6791869216  W2        513             0.0000000000
      1540       514  TIP3      OH2            23.5461269158      -13.8995384666        2.4465130784  W2        514             0.0000000000
      1541       514  TIP3      H1             23.1202569158      -14.1273684666        3.2729130784  W2        514             0.0000000000
      1542       514  TIP3      H2             24.1267069158      -14.6383584666        2.2640430784  W2        514             0.0000000000
      1543       515  TIP3      OH2            25.7490169158      -12.9704884666       -8.4795869216  W2        515             0.0000000000
      1544       515  TIP3      H1             26.1023269158      -13.3505084666       -7.6752369216  W2        515             0.0000000000
      1545       515  TIP3      H2             24.8003669158      -13.0640084666       -8.3926569216  W2        515             0.0000000000
      1546       516  TIP3      OH2            14.3271369158      -22.1148184666        4.3232530784  W2        516             0.0000000000
      1547       516  TIP3      H1             13.4343669158      -21.7762784666        4.2556530784  W2        516             0.0000000000
      1548       516  TIP3      H2             14.2284169158      -22.9702084666        4.7413330784  W2        516             0.0000000000
      1549       517  TIP3      OH2            13.9783369158      -10.3103784666        2.7581930784  W2        517             0.0000000000
      1550       517  TIP3      H1             14.1953669158      -11.2421384666        2.7271630784  W2        517             0.0000000000
      1551       517  TIP3      H2             14.2246869158      -10.0358784666        3.6414730784  W2        517             0.0000000000
      1552       518  TIP3      OH2            19.8397969158      -11.8588784666      -10.0325869216  W2        518             0.0000000000
      1553       518  TIP3      H1             20.0787769158      -12.6070684666      -10.5796969216  W2        518             0.0000000000
      1554       518  TIP3      H2             19.5709269158      -12.2467084666       -9.1998069216  W2        518             0.0000000000
      1555       519  TIP3      OH2            18.7768569158      -12.2884984666       -7.5763269216  W2        519             0.0000000000
      1556       519  TIP3      H1             18.9236569158      -12.8085184666       -6.7862369216  W2        519             0.0000000000
      1557       519  TIP3      H2             18.7740269158      -11.3817384666       -7.2697369216  W2        519             0.0000000000
      1558       520  TIP3      OH2            15.2299669158      -15.0361684666       -7.0657869216  W2        520             0.0000000000
      1559       520  TIP3      H1             14.5438969158      -14.6839184666       -6.4988169216  W2        520             0.0000000000
      1560       520  TIP3      H2             15.7527569158      -14.2732084666       -7.3123569216  W2        520             0.0000000000
      1561       521  TIP3      OH2            23.0614769158      -22.3737884666        3.2131130784  W2        521             0.0000000000
      1562       521  TIP3      H1             23.7602669158      -22.2999184666        3.8630830784  W2        521             0.0000000000
      1563       521  TIP3      H2             22.6806169158      -23.2382884666        3.3674030784  W2        521             0.0000000000
      1564       522  TIP3      OH2            23.8459669158      -22.7216184666       -5.6896569216  W2        522             0.0000000000
      1565       522  TIP3      H1             24.0657969158      -22.2500784666       -6.4931169216  W2        522             0.0000000000
      1566       522  TIP3      H2             24.4043669158      -22.3273584666       -5.0195969216  W2        522             0.0000000000
      1567       523  TIP3      OH2            21.5145769158      -10.5911384666       -6.8269069216  W2        523             0.0000000000
      1568       523  TIP3      H1             20.6981869158      -10.0941684666       -6.7744769216  W2        523             0.0000000000
      1569       523  TIP3      H2             22.0442069158      -10.1157884666       -7.4670269216  W2        523             0.0000000000
      1570       524  TIP3      OH2            21.0459569158      -20.9937384666       -4.8548169216  W2        524             0.0000000000
      1571       524  TIP3      H1             21.8582169158      -20.4894184666       -4.8086469216  W2        524             0.0000000000
      1572       524  TIP3      H2             20.8012569158      -21.1387684666       -3.9408569216  W2        524             0.0000000000
      1573       525  TIP3      OH2            21.5815969158      -20.0074684666        4.3298430784  W2        525             0.0000000000
      1574       525  TIP3      H1             21.7006269158      -19.4339284666        5.0868830784  W2        525             0.0000000000
      1575       525  TIP3      H2             22.2370569158      -20.6955284666        4.4446230784  W2        525             0.0000000000
      1576       526  TIP3      OH2            21.9296269158      -23.9124384666       -3.9167069216  W2        526             0.0000000000
      1577       526  TIP3      H1             21.5829769158      -23.2953784666       -3.2722769216  W2        526             0.0000000000
      1578       526  TIP3      H2             22.5883169158      -23.4118684666       -4.3981569216  W2        526             0.0000000000
      1579       527  TIP3      OH2            18.8528869158       -9.5474184666       -6.8452169216  W2        527             0.0000000000
      1580       527  TIP3      H1             19.0137569158       -8.7476684666       -7.3459569216  W2        527             0.0000000000
      1581       527  TIP3      H2             18.6556669158       -9.2408184666       -5.9601569216  W2        527             0.0000000000
      1582       528  TIP3      OH2            17.5873269158      -22.8494984666       -7.2294569216  W2        528             0.0000000000
      1583       528  TIP3      H1             17.5038069158      -21.9611884666       -6.8828169216  W2        528             0.0000000000
      1584       528  TIP3      H2             18.4773569158      -23.1148284666       -6.9977769216  W2        528             0.0000000000
      1585       529  TIP3      OH2            15.8458569158      -12.4222784666       -8.1690069216  W2        529             0.0000000000
      1586       529  TIP3      H1             16.4380069158      -11.7227984666       -7.8927669216  W2        529             0.0000000000
      1587       529  TIP3      H2             16.3051569158      -12.8553284666       -8.8885469216  W2        529             0.0000000000
      1588       530  TIP3      OH2            14.1617769158      -19.7579784666       -9.0530669216  W2        530             0.0000000000
      1589       530  TIP3      H1             14.1170369158      -18.8186684666       -8.8743669216  W2        530             0.0000000000
      1590       530  TIP3      H2             13.2740969158      -19.9934884666       -9.3228569216  W2        530             0.0000000000
      1591       531  TIP3      OH2            14.9699769158      -24.9763184666       -0.3799669216  W2        531             0.0000000000
      1592       531  TIP3      H1             14.7409569158      -24.9170684666       -1.3074669216  W2        531             0.0000000000
      1593       531  TIP3      H2             14.5273169158      -25.7677684666       -0.0735569216  W2        531             0.0000000000
      1594       532  TIP3      OH2            13.9003069158      -11.0356084666       -4.2193869216  W2        532             0.0000000000
      1595       532  TIP3      H1             13.0681669158      -10.5633384666       -4.1922469216  W2        532             0.0000000000
      1596       532  TIP3      H2             14.4461369158      -10.5258484666       -4.8180769216  W2        532             0.0000000000
      1597       533  TIP3      OH2            13.1886769158       -8.4232384666        7.1104130784  W2        533             0.0000000000
      1598       533  TIP3      H1             13.7288969158       -8.6398384666        7.8703330784  W2        533             0.0000000000
      1599       533  TIP3      H2             12.7074769158       -9.2286384666        6.9206630784  W2        533             0.0000000000
      1600       534  TIP3      OH2            17.7860169158       -9.5037984666        8.7308330784  W2        534             0.0000000000
      1601       534  TIP3      H1             18.5537369158       -9.9627184666        9.0717530784  W2        534             0.0000000000
      1602       534  TIP3      H2             17.7646369158       -9.7298184666        7.8009530784  W2        534             0.0000000000
      1603       535  TIP3      OH2            21.8779769158       -9.9957384666       -9.8939869216  W2        535             0.0000000000
      1604       535  TIP3      H1             21.2340769158      -10.6268784666       -9.5726169216  W2        535             0.0000000000
      1605       535  TIP3      H2             22.6398069158      -10.5269384666      -10.1256369216  W2        535             0.0000000000
      1606       536  TIP3      OH2            24.3628869158      -11.1236884666        7.4599830784  W2        536             0.0000000000
      1607       536  TIP3      H1             24.0118369158      -11.9803884666        7.7030230784  W2        536             0.0000000000
      1608       536  TIP3      H2             25.0892069158      -10.9810184666        8.0668830784  W2        536             0.0000000000
      1609       537  TIP3      OH2            13.0956269158      -14.6128284666        8.0648430784  W2        537             0.0000000000
      1610       537  TIP3      H1             13.2396769158      -15.5147584666        7.7785130784  W2        537             0.0000000000
      1611       537  TIP3      H2             12.3233669158      -14.3266184666        7.5770730784  W2        537             0.0000000000
      1612       538  TIP3      OH2            17.4369969158      -14.2692584666       -9.8026969216  W2        538             0.0000000000
      1613       538  TIP3      H1             17.5014069158      -15.0632984666       -9.2720569216  W2        538             0.0000000000
      1614       538  TIP3      H2             18.0899169158      -14.3879784666      -10.4924969216  W2        538             0.0000000000
      1615       539  TIP3      OH2            19.7512369158      -14.6430184666        7.4974830784  W2        539             0.0000000000
      1616       539  TIP3      H1             19.4226169158      -14.3722084666        6.6402230784  W2        539             0.0000000000
      1617       539  TIP3      H2             19.9030569158      -15.5840384666        7.4099830784  W2        539             0.0000000000
      1618       540  TIP3      OH2            22.7893369158      -13.2220884666      -10.0668969216  W2        540             0.0000000000
      1619       540  TIP3      H1             22.5207469158      -13.0418784666       -9.1660069216  W2        540             0.0000000000
      1620       540  TIP3      H2             22.5828969158      -14.1474684666      -10.1983169216  W2        540             0.0000000000
      1621       541  TIP3      OH2            25.4857569158      -14.7272884666        4.8807130784  W2        541             0.0000000000
      1622       541  TIP3      H1             26.2312369158      -14.1389184666        4.7611130784  W2        541             0.0000000000
      1623       541  TIP3      H2             24.7284369158      -14.1453184666        4.9440230784  W2        541             0.0000000000
      1624       542  TIP3      OH2            13.9282769158      -17.4124984666        7.4847730784  W2        542             0.0000000000
      1625       542  TIP3      H1             14.3363969158      -18.2698384666        7.3638330784  W2        542             0.0000000000
      1626       542  TIP3      H2             13.6680369158      -17.3983684666        8.4058030784  W2        542             0.0000000000
      1627       543  TIP3      OH2            18.5863769158      -16.2966384666       -7.4968969216  W2        543             0.0000000000
      1628       543  TIP3      H1             18.1265769158      -16.7808084666       -6.8110469216  W2        543             0.0000000000
      1629       543  TIP3      H2             18.8412469158      -16.9650984666       -8.1328469216  W2        543             0.0000000000
      1630       544  TIP3      OH2            17.8753069158      -18.4039284666        4.8590630784  W2        544             0.0000000000
      1631       544  TIP3      H1             17.2569169158      -17.7292684666        5.1395330784  W2        544             0.0000000000
      1632       544  TIP3      H2             18.2194269158      -18.0825384666        4.0256830784  W2        544             0.0000000000
      1633       545  TIP3      OH2            19.6574169158      -18.0534584666       -9.2345769216  W2        545             0.0000000000
      1634       545  TIP3      H1             19.4769169158      -18.2083384666      -10.1617469216  W2        545             0.0000000000
      1635       545  TIP3      H2             20.6074669158      -17.9455884666       -9.1897869216  W2        545             0.0000000000
      1636       546  TIP3      OH2            22.8951269158      -15.9323984666        8.1365430784  W2        546             0.0000000000
      1637       546  TIP3      H1             23.8482469158      -15.8484884666        8.1091430784  W2        546             0.0000000000
      1638       546  TIP3      H2             22.7345869158      -16.6442184666        8.7560330784  W2        546             0.0000000000
      1639       547  TIP3      OH2            18.2146769158      -21.0488484666        5.9413730784  W2        547             0.0000000000
      1640       547  TIP3      H1             18.3647669158      -21.7777184666        5.3393430784  W2        547             0.0000000000
      1641       547  TIP3      H2             18.2169169158      -20.2716784666        5.3825930784  W2        547             0.0000000000
      1642       548  TIP3      OH2            18.6272469158      -22.6792684666        3.4341130784  W2        548             0.0000000000
      1643       548  TIP3      H1             19.1629969158      -22.2275984666        2.7820430784  W2        548             0.0000000000
      1644       548  TIP3      H2             17.7752069158      -22.7872884666        3.0115230784  W2        548             0.0000000000
      1645       549  TIP3      OH2            20.2090869158      -17.2396484666        3.6736330784  W2        549             0.0000000000
      1646       549  TIP3      H1             20.9595669158      -17.3958984666        3.1004130784  W2        549             0.0000000000
      1647       549  TIP3      H2             19.8699169158      -16.3879884666        3.3981830784  W2        549             0.0000000000
      1648       550  TIP3      OH2            24.6247069158      -19.4244684666        8.7021630784  W2        550             0.0000000000
      1649       550  TIP3      H1             24.8168369158      -20.3555284666        8.5906130784  W2        550             0.0000000000
      1650       550  TIP3      H2             25.4823369158      -18.9995184666        8.6917030784  W2        550             0.0000000000
      1651       551  TIP3      OH2            16.6933069158      -19.8504984666        7.8529330784  W2        551             0.0000000000
      1652       551  TIP3      H1             15.9262069158      -20.3830184666        7.6426930784  W2        551             0.0000000000
      1653       551  TIP3      H2             17.3722069158      -20.1604584666        7.2535630784  W2        551             0.0000000000
      1654       552  TIP3      OH2            19.4327969158      -25.2226984666        3.8654730784  W2        552             0.0000000000
      1655       552  TIP3      H1             19.3347569158      -24.2763784666        3.7600930784  W2        552             0.0000000000
      1656       552  TIP3      H2             18.6904169158      -25.5953184666        3.3898230784  W2        552             0.0000000000
      1657       553  TIP3      OH2            20.6968469158      -20.9011584666        7.4293130784  W2        553             0.0000000000
      1658       553  TIP3      H1             20.4613869158      -21.1204884666        8.3308030784  W2        553             0.0000000000
      1659       553  TIP3      H2             19.9135369158      -21.1080384666        6.9195630784  W2        553             0.0000000000
      1660       554  TIP3      OH2            23.4125069158      -21.7738084666        6.5046630784  W2        554             0.0000000000
      1661       554  TIP3      H1             22.4650469158      -21.7418384666        6.6369930784  W2        554             0.0000000000
      1662       554  TIP3      H2             23.7251769158      -22.3990984666        7.1584830784  W2        554             0.0000000000
      1663       555  TIP3      OH2            25.0466569158      -23.1396984666        8.5098530784  W2        555             0.0000000000
      1664       555  TIP3      H1             24.9498369158      -24.0919684666        8.5040430784  W2        555             0.0000000000
      1665       555  TIP3      H2             24.7249669158      -22.8710184666        9.3704030784  W2        555             0.0000000000
      1666       556  TIP3      OH2            14.8735869158      -21.9301184666        7.5574030784  W2        556             0.0000000000
      1667       556  TIP3      H1             15.0853269158      -22.6365084666        6.9471530784  W2        556             0.0000000000
      1668       556  TIP3      H2             14.7623369158      -22.3675184666        8.4015230784  W2        556             0.0000000000
      1669       557  TIP3      OH2            19.6546069158      -25.9289584666        6.5367530784  W2        557             0.0000000000
      1670       557  TIP3      H1             20.3664469158      -26.5687384666        6.5226630784  W2        557             0.0000000000
      1671       557  TIP3      H2             19.5536469158      -25.6621284666        5.6230630784  W2        557             0.0000000000
      1672       558  TIP3      OH2            20.0083569158      -24.2461184666        8.5903830784  W2        558             0.0000000000
      1673       558  TIP3      H1             19.8765769158      -24.7217384666        7.7702330784  W2        558             0.0000000000
      1674       558  TIP3      H2             19.4090969158      -23.5017584666        8.5350930784  W2        558             0.0000000000
      1675       559  TIP3      OH2            19.5545869158       -7.3630884666       -8.2332169216  W2        559             0.0000000000
      1676       559  TIP3      H1             20.4876569158       -7.2052184666       -8.0893769216  W2        559             0.0000000000
      1677       559  TIP3      H2             19.2904669158       -6.6877884666       -8.8580669216  W2        559             0.0000000000
      1678       560  TIP3      OH2            13.1230769158      -12.7267084666       -8.7504069216  W2        560             0.0000000000
      1679       560  TIP3      H1             14.0369969158      -12.6478184666       -8.4770169216  W2        560             0.0000000000
      1680       560  TIP3      H2             13.1303869158      -13.4137484666       -9.4168469216  W2        560             0.0000000000
      1681       561  TIP3      OH2            11.7721369158       -7.3338584666       -3.6730169216  W2        561             0.0000000000
      1682       561  TIP3      H1             11.1248469158       -7.7956884666       -4.2058969216  W2        561             0.0000000000
      1683       561  TIP3      H2             12.1265969158       -8.0055284666       -3.0903969216  W2        561             0.0000000000
      1684       562  TIP3      OH2            12.6420569158       -9.2531584666       -1.8683969216  W2        562             0.0000000000
      1685       562  TIP3      H1             12.3077369158      -10.1334284666       -1.6963769216  W2        562             0.0000000000
      1686       562  TIP3      H2             12.8642969158       -8.9076584666       -1.0038369216  W2        562             0.0000000000
      1687       563  TIP3      OH2            12.7220069158      -16.1776184666        0.5830930784  W2        563             0.0000000000
      1688       563  TIP3      H1             12.9062969158      -16.2594484666       -0.3526169216  W2        563             0.0000000000
      1689       563  TIP3      H2             13.5712969158      -16.3019184666        1.0067330784  W2        563             0.0000000000
      1690       564  TIP3      OH2            12.3194869158      -20.9071184666        6.7239730784  W2        564             0.0000000000
      1691       564  TIP3      H1             13.2389769158      -21.0292884666        6.9602830784  W2        564             0.0000000000
      1692       564  TIP3      H2             11.8699369158      -21.6571484666        7.1133230784  W2        564             0.0000000000
      1693       565  TIP3      OH2            13.5407369158      -22.5949584666       -0.3847369216  W2        565             0.0000000000
      1694       565  TIP3      H1             13.9858969158      -23.3867084666       -0.0827669216  W2        565             0.0000000000
      1695       565  TIP3      H2             14.0070369158      -21.8784384666        0.0458230784  W2        565             0.0000000000
      1696       566  TIP3      OH2            11.8447669158      -19.5956584666        0.6842830784  W2        566             0.0000000000
      1697       566  TIP3      H1             12.3367469158      -19.8166084666       -0.1065169216  W2        566             0.0000000000
      1698       566  TIP3      H2             12.2068569158      -18.7553184666        0.9652330784  W2        566             0.0000000000
      1699       567  TIP3      OH2            12.1584169158      -23.3377484666       -5.2614769216  W2        567             0.0000000000
      1700       567  TIP3      H1             11.2332569158      -23.1290884666       -5.3909269216  W2        567             0.0000000000
      1701       567  TIP3      H2             12.6124069158      -22.8536684666       -5.9512469216  W2        567             0.0000000000
      1702       568  TIP3      OH2            12.1219569158      -24.5998484666        3.0827730784  W2        568             0.0000000000
      1703       568  TIP3      H1             11.4570069158      -24.8458184666        3.7258630784  W2        568             0.0000000000
      1704       568  TIP3      H2             11.6790869158      -23.9778084666        2.5055730784  W2        568             0.0000000000
      1705       569  TIP3      OH2            14.3138869158      -11.4244384666        7.2273530784  W2        569             0.0000000000
      1706       569  TIP3      H1             13.4931369158      -11.2497884666        6.7668230784  W2        569             0.0000000000
      1707       569  TIP3      H2             14.0616669158      -11.4979684666        8.1477930784  W2        569             0.0000000000
      1708       570  TIP3      OH2            17.2681769158      -10.4503184666        3.4857530784  W2        570             0.0000000000
      1709       570  TIP3      H1             16.8432869158       -9.6404684666        3.2032130784  W2        570             0.0000000000
      1710       570  TIP3      H2             18.1724569158      -10.3649084666        3.1837330784  W2        570             0.0000000000
      1711       571  TIP3      OH2            21.5793169158       -9.0513184666        6.4451230784  W2        571             0.0000000000
      1712       571  TIP3      H1             21.7640669158       -9.3847084666        7.3231530784  W2        571             0.0000000000
      1713       571  TIP3      H2             22.4257669158       -8.7414584666        6.1230430784  W2        571             0.0000000000
      1714       572  TIP3      OH2            23.9243569158       -7.7654284666        5.6892630784  W2        572             0.0000000000
      1715       572  TIP3      H1             24.6012469158       -8.3981984666        5.4491830784  W2        572             0.0000000000
      1716       572  TIP3      H2             24.2462369158       -7.3643784666        6.4965930784  W2        572             0.0000000000
      1717       573  TIP3      OH2            14.6698469158       -7.1939284666        3.5332830784  W2        573             0.0000000000
      1718       573  TIP3      H1             13.9494869158       -6.7538284666        3.0820530784  W2        573             0.0000000000
      1719       573  TIP3      H2             14.3042469158       -7.4444584666        4.3816830784  W2        573             0.0000000000
      1720       574  TIP3      OH2            17.1371069158       -7.5935384666        2.5630030784  W2        574             0.0000000000
      1721       574  TIP3      H1             16.2723269158       -7.5216884666        2.9670130784  W2        574             0.0000000000
      1722       574  TIP3      H2             17.0820069158       -7.0468084666        1.7792530784  W2        574             0.0000000000
      1723       575  TIP3      OH2            21.8476669158       -7.7056484666        1.7386030784  W2        575             0.0000000000
      1724       575  TIP3      H1             21.3910669158       -7.1766784666        1.0844430784  W2        575             0.0000000000
      1725       575  TIP3      H2             22.0104669158       -7.1025084666        2.4638330784  W2        575             0.0000000000
      1726       576  TIP3      OH2            24.1752969158       -8.8276884666        2.6836330784  W2        576             0.0000000000
      1727       576  TIP3      H1             23.2706669158       -8.6626684666        2.4178430784  W2        576             0.0000000000
      1728       576  TIP3      H2             24.6041569158       -7.9744684666        2.6179730784  W2        576             0.0000000000
      1729       577  TIP3      OH2            14.0846569158       -8.5706784666        0.4434630784  W2        577             0.0000000000
      1730       577  TIP3      H1             14.0662569158       -8.9961684666        1.3006930784  W2        577             0.0000000000
      1731       577  TIP3      H2             14.8894469158       -8.8891784666        0.0346830784  W2        577             0.0000000000
      1732       578  TIP3      OH2            16.2259669158       -9.8608084666       -0.9015469216  W2        578             0.0000000000
      1733       578  TIP3      H1             16.0070369158      -10.7770684666       -0.7319469216  W2        578             0.0000000000
      1734       578  TIP3      H2             17.0501869158       -9.7207684666       -0.4354069216  W2        578             0.0000000000
      1735       579  TIP3      OH2            18.7632169158       -9.3908784666       -0.0527469216  W2        579             0.0000000000
      1736       579  TIP3      H1             18.9757869158      -10.2789784666       -0.3396569216  W2        579             0.0000000000
      1737       579  TIP3      H2             18.8277269158       -9.4251084666        0.9016530784  W2        579             0.0000000000
      1738       580  TIP3      OH2            22.2715869158      -23.7268184666       -0.9084169216  W2        580             0.0000000000
      1739       580  TIP3      H1             21.5972669158      -24.3562584666       -0.6528369216  W2        580             0.0000000000
      1740       580  TIP3      H2             22.8355069158      -24.2109284666       -1.5116269216  W2        580             0.0000000000
      1741       581  TIP3      OH2            14.5983369158      -25.0927884666       -3.0864269216  W2        581             0.0000000000
      1742       581  TIP3      H1             13.8213169158      -25.3272984666       -3.5938369216  W2        581             0.0000000000
      1743       581  TIP3      H2             15.1286969158      -25.8895784666       -3.0776269216  W2        581             0.0000000000
      1744       582  TIP3      OH2            13.4346769158      -25.2949784666       -7.2828169216  W2        582             0.0000000000
      1745       582  TIP3      H1             13.8737469158      -24.6839284666       -7.8744669216  W2        582             0.0000000000
      1746       582  TIP3      H2             12.8009169158      -24.7565684666       -6.8088169216  W2        582             0.0000000000
      1747       583  TIP3      OH2            19.1775969158      -25.1660784666       -3.2731169216  W2        583             0.0000000000
      1748       583  TIP3      H1             20.0519369158      -24.7776484666       -3.3026869216  W2        583             0.0000000000
      1749       583  TIP3      H2             19.0416769158      -25.3812984666       -2.3503969216  W2        583             0.0000000000
      1750       584  TIP3      OH2            24.7344369158      -25.1360984666       -1.6239469216  W2        584             0.0000000000
      1751       584  TIP3      H1             24.8105969158      -25.0409384666       -2.5733469216  W2        584             0.0000000000
      1752       584  TIP3      H2             24.4593569158      -26.0438084666       -1.4950369216  W2        584             0.0000000000
      1753       585  TIP3      OH2            13.3356269158       -9.3467584666       -6.3853069216  W2        585             0.0000000000
      1754       585  TIP3      H1             12.6506169158       -9.3848684666       -7.0527969216  W2        585             0.0000000000
      1755       585  TIP3      H2             13.3393469158       -8.4339984666       -6.0970969216  W2        585             0.0000000000
      1756       586  TIP3      OH2            15.2955869158      -23.3788284666       -8.8404069216  W2        586             0.0000000000
      1757       586  TIP3      H1             15.7869269158      -24.0085884666       -9.3678569216  W2        586             0.0000000000
      1758       586  TIP3      H2             15.9192169158      -23.0828884666       -8.1772869216  W2        586             0.0000000000
      1759       587  TIP3      OH2            20.3215969158      -23.0856784666       -6.3833569216  W2        587             0.0000000000
      1760       587  TIP3      H1             20.4997269158      -23.7323584666       -5.7004969216  W2        587             0.0000000000
      1761       587  TIP3      H2             20.2682169158      -22.2519084666       -5.9162469216  W2        587             0.0000000000
      1762       588  TIP3      OH2            22.1999769158       -8.1372684666       -7.9876869216  W2        588             0.0000000000
      1763       588  TIP3      H1             23.0659969158       -7.7705284666       -8.1658669216  W2        588             0.0000000000
      1764       588  TIP3      H2             21.9532569158       -8.5764684666       -8.8016069216  W2        588             0.0000000000
      1765       589  TIP3      OH2            14.5561369158      -24.5785984666        6.4311930784  W2        589             0.0000000000
      1766       589  TIP3      H1             14.1899569158      -25.3443384666        6.8736630784  W2        589             0.0000000000
      1767       589  TIP3      H2             15.4689869158      -24.5495784666        6.7177030784  W2        589             0.0000000000
      1768       590  TIP3      OH2            16.5292169158      -25.2281584666        7.9669030784  W2        590             0.0000000000
      1769       590  TIP3      H1             17.4275769158      -25.5021384666        7.7822430784  W2        590             0.0000000000
      1770       590  TIP3      H2             16.1425269158      -25.9705584666        8.4311630784  W2        590             0.0000000000
      1771       591  TIP3      OH2            15.1537469158       -8.4266784666       -9.3600969216  W2        591             0.0000000000
      1772       591  TIP3      H1             14.8862069158       -8.1403884666       -8.4867869216  W2        591             0.0000000000
      1773       591  TIP3      H2             15.9250069158       -8.9727584666       -9.2078469216  W2        591             0.0000000000
      1774       592  TIP3      OH2            24.9504469158      -25.8956284666        8.1491830784  W2        592             0.0000000000
      1775       592  TIP3      H1             25.0271669158      -26.3215584666        9.0029530784  W2        592             0.0000000000
      1776       592  TIP3      H2             25.8441069158      -25.8821584666        7.8065330784  W2        592             0.0000000000
      1777       593  TIP3      OH2           -14.0354030842        2.9194415334       -3.1276769216  W2        593             0.0000000000
      1778       593  TIP3      H1            -13.9462930842        3.8632615334       -3.2599669216  W2        593             0.0000000000
      1779       593  TIP3      H2            -14.6736430842        2.6440815334       -3.7857369216  W2        593             0.0000000000
      1780       594  TIP3      OH2           -15.1022730842        2.1745115334        0.2911430784  W2        594             0.0000000000
      1781       594  TIP3      H1            -15.1405230842        1.5281415334        0.9961030784  W2        594             0.0000000000
      1782       594  TIP3      H2            -15.4246230842        1.7079515334       -0.4799869216  W2        594             0.0000000000
      1783       595  TIP3      OH2           -22.7337730842        1.7887215334        1.8841330784  W2        595             0.0000000000
      1784       595  TIP3      H1            -22.6925630842        1.1630515334        2.6073730784  W2        595             0.0000000000
      1785       595  TIP3      H2            -22.0310030842        2.4125815334        2.0661730784  W2        595             0.0000000000
      1786       596  TIP3      OH2           -11.3962530842        5.1135515334       -1.4073469216  W2        596             0.0000000000
      1787       596  TIP3      H1            -11.8369830842        4.3931515334       -0.9567869216  W2        596             0.0000000000
      1788       596  TIP3      H2            -11.4092830842        5.8342715334       -0.7775769216  W2        596             0.0000000000
      1789       597  TIP3      OH2           -21.8104630842        6.2386115334        0.4190430784  W2        597             0.0000000000
      1790       597  TIP3      H1            -22.1799430842        5.4366615334        0.0494730784  W2        597             0.0000000000
      1791       597  TIP3      H2            -20.8693530842        6.0701015334        0.4653830784  W2        597             0.0000000000
      1792       598  TIP3      OH2           -25.2004130842       -0.1011284666       -4.1880769216  W2        598             0.0000000000
      1793       598  TIP3      H1            -25.6480730842        0.7447415334       -4.2064269216  W2        598             0.0000000000
      1794       598  TIP3      H2            -25.7612930842       -0.6807084666       -4.7035669216  W2        598             0.0000000000
      1795       599  TIP3      OH2           -24.4898030842        2.0608315334       -2.0622769216  W2        599             0.0000000000
      1796       599  TIP3      H1            -24.2764530842        1.2909915334       -1.5349769216  W2        599             0.0000000000
      1797       599  TIP3      H2            -23.7520430842        2.1505015334       -2.6655169216  W2        599             0.0000000000
      1798       600  TIP3      OH2           -14.2847030842       10.2177215334       -1.1953069216  W2        600             0.0000000000
      1799       600  TIP3      H1            -13.6650630842        9.5411915334       -1.4683869216  W2        600             0.0000000000
      1800       600  TIP3      H2            -14.4929630842        9.9998015334       -0.2868169216  W2        600             0.0000000000
      1801       601  TIP3      OH2           -16.7128330842        4.6066515334        0.6972430784  W2        601             0.0000000000
      1802       601  TIP3      H1            -16.4090430842        3.9207915334        0.1026530784  W2        601             0.0000000000
      1803       601  TIP3      H2            -15.9914330842        4.7255215334        1.3150430784  W2        601             0.0000000000
      1804       602  TIP3      OH2            -8.0498530842       -3.7918184666        1.5578630784  W2        602             0.0000000000
      1805       602  TIP3      H1             -8.0006330842       -3.1816984666        2.2937730784  W2        602             0.0000000000
      1806       602  TIP3      H2             -7.6243430842       -3.3307284666        0.8349730784  W2        602             0.0000000000
      1807       603  TIP3      OH2           -13.5721330842       -0.9991084666        1.0247230784  W2        603             0.0000000000
      1808       603  TIP3      H1            -13.4295430842       -1.9454084666        1.0448830784  W2        603             0.0000000000
      1809       603  TIP3      H2            -13.6782330842       -0.7921284666        0.0962130784  W2        603             0.0000000000
      1810       604  TIP3      OH2           -20.4173030842       -2.8974684666       -1.7027969216  W2        604             0.0000000000
      1811       604  TIP3      H1            -20.3741930842       -2.0376184666       -2.1211669216  W2        604             0.0000000000
      1812       604  TIP3      H2            -20.8748930842       -3.4499984666       -2.3364769216  W2        604             0.0000000000
      1813       605  TIP3      OH2           -12.6950330842       -2.7669084666       -3.3019669216  W2        605             0.0000000000
      1814       605  TIP3      H1            -12.0486030842       -3.0955884666       -2.6772069216  W2        605             0.0000000000
      1815       605  TIP3      H2            -12.1850930842       -2.2490084666       -3.9248269216  W2        605             0.0000000000
      1816       606  TIP3      OH2           -23.7971530842       -0.5008884666       -0.9406569216  W2        606             0.0000000000
      1817       606  TIP3      H1            -23.1434930842       -1.0507184666       -0.5086469216  W2        606             0.0000000000
      1818       606  TIP3      H2            -23.7732230842       -0.7749884666       -1.8574569216  W2        606             0.0000000000
      1819       607  TIP3      OH2           -18.6407030842        1.0492415334       -1.7255069216  W2        607             0.0000000000
      1820       607  TIP3      H1            -18.0246030842        0.5227815334       -1.2161069216  W2        607             0.0000000000
      1821       607  TIP3      H2            -19.2268230842        0.4091115334       -2.1291469216  W2        607             0.0000000000
      1822       608  TIP3      OH2            -7.6583930842       -2.3138984666        3.7938430784  W2        608             0.0000000000
      1823       608  TIP3      H1             -8.3469330842       -1.6558284666        3.6985030784  W2        608             0.0000000000
      1824       608  TIP3      H2             -7.6429330842       -2.5111084666        4.7303830784  W2        608             0.0000000000
      1825       609  TIP3      OH2           -21.6071130842       -3.9796284666        2.3712830784  W2        609             0.0000000000
      1826       609  TIP3      H1            -21.8259430842       -3.4495684666        1.6048830784  W2        609             0.0000000000
      1827       609  TIP3      H2            -22.2750230842       -3.7530784666        3.0184230784  W2        609             0.0000000000
      1828       610  TIP3      OH2           -14.2381330842        5.5204815334       -4.0848069216  W2        610             0.0000000000
      1829       610  TIP3      H1            -14.5336230842        5.1977115334       -4.9361169216  W2        610             0.0000000000
      1830       610  TIP3      H2            -14.5623530842        6.4201515334       -4.0435469216  W2        610             0.0000000000
      1831       611  TIP3      OH2           -19.0379730842        3.6959415334        2.6586530784  W2        611             0.0000000000
      1832       611  TIP3      H1            -19.7780630842        4.2940915334        2.7621730784  W2        611             0.0000000000
      1833       611  TIP3      H2            -18.3240230842        4.2499015334        2.3430130784  W2        611             0.0000000000
      1834       612  TIP3      OH2           -10.9311930842       -3.4759784666       -1.3213769216  W2        612             0.0000000000
      1835       612  TIP3      H1            -11.1463930842       -4.2416384666       -0.7887769216  W2        612             0.0000000000
      1836       612  TIP3      H2            -10.2754530842       -3.0035184666       -0.8085269216  W2        612             0.0000000000
      1837       613  TIP3      OH2           -22.0133830842       -2.0874484666        0.3235030784  W2        613             0.0000000000
      1838       613  TIP3      H1            -21.3997530842       -1.4546884666        0.6967430784  W2        613             0.0000000000
      1839       613  TIP3      H2            -21.5013130842       -2.5599484666       -0.3328069216  W2        613             0.0000000000
      1840       614  TIP3      OH2           -20.6305430842        5.6602415334        3.4458030784  W2        614             0.0000000000
      1841       614  TIP3      H1            -20.6357830842        6.5395915334        3.0677330784  W2        614             0.0000000000
      1842       614  TIP3      H2            -21.4841330842        5.5766515334        3.8707930784  W2        614             0.0000000000
      1843       615  TIP3      OH2           -24.5094530842        5.3310315334       -5.7722669216  W2        615             0.0000000000
      1844       615  TIP3      H1            -24.7813630842        5.5601315334       -6.6609769216  W2        615             0.0000000000
      1845       615  TIP3      H2            -24.4638830842        6.1689115334       -5.3117369216  W2        615             0.0000000000
      1846       616  TIP3      OH2           -10.8844830842        6.9526215334        0.9405830784  W2        616             0.0000000000
      1847       616  TIP3      H1            -11.8261130842        7.0110115334        1.1022730784  W2        616             0.0000000000
      1848       616  TIP3      H2            -10.6078730842        7.8586715334        0.8035530784  W2        616             0.0000000000
      1849       617  TIP3      OH2           -10.5837830842       -4.7608484666        2.3579730784  W2        617             0.0000000000
      1850       617  TIP3      H1            -11.3198630842       -4.1501384666        2.3201030784  W2        617             0.0000000000
      1851       617  TIP3      H2             -9.9003830842       -4.3459484666        1.8316130784  W2        617             0.0000000000
      1852       618  TIP3      OH2           -17.5806430842       -6.6741184666       -0.1762269216  W2        618             0.0000000000
      1853       618  TIP3      H1            -17.6982230842       -7.6225184666       -0.2303969216  W2        618             0.0000000000
      1854       618  TIP3      H2            -18.4356330842       -6.3415084666        0.0968830784  W2        618             0.0000000000
      1855       619  TIP3      OH2           -12.6323630842        8.7339715334       -2.4342569216  W2        619             0.0000000000
      1856       619  TIP3      H1            -12.2071330842        8.0267615334       -2.9192969216  W2        619             0.0000000000
      1857       619  TIP3      H2            -12.3153630842        9.5352415334       -2.8510369216  W2        619             0.0000000000
      1858       620  TIP3      OH2           -11.4727130842        6.6348215334       -3.9255969216  W2        620             0.0000000000
      1859       620  TIP3      H1            -11.7302330842        5.9448315334       -4.5370069216  W2        620             0.0000000000
      1860       620  TIP3      H2            -11.4016330842        6.1919415334       -3.0800069216  W2        620             0.0000000000
      1861       621  TIP3      OH2            -9.7866930842        5.2014915334        4.5517530784  W2        621             0.0000000000
      1862       621  TIP3      H1             -9.6470630842        4.6097415334        3.8124530784  W2        621             0.0000000000
      1863       621  TIP3      H2             -9.6194130842        6.0740815334        4.1956330784  W2        621             0.0000000000
      1864       622  TIP3      OH2           -15.3141530842        2.1634415334       -5.6756469216  W2        622             0.0000000000
      1865       622  TIP3      H1            -16.0256030842        2.6984115334       -6.0275969216  W2        622             0.0000000000
      1866       622  TIP3      H2            -14.6231930842        2.2186515334       -6.3357569216  W2        622             0.0000000000
      1867       623  TIP3      OH2           -15.2602330842        0.6208715334       -8.6371469216  W2        623             0.0000000000
      1868       623  TIP3      H1            -14.5592430842        0.6435615334       -7.9857469216  W2        623             0.0000000000
      1869       623  TIP3      H2            -14.9579430842       -0.0071584666       -9.2932169216  W2        623             0.0000000000
      1870       624  TIP3      OH2            -7.9447630842        1.5412915334        2.6177930784  W2        624             0.0000000000
      1871       624  TIP3      H1             -8.5973530842        2.2358515334        2.7068830784  W2        624             0.0000000000
      1872       624  TIP3      H2             -7.4797330842        1.7513815334        1.8079530784  W2        624             0.0000000000
      1873       625  TIP3      OH2           -11.9083830842        2.3727715334       -4.7240569216  W2        625             0.0000000000
      1874       625  TIP3      H1            -12.6402830842        2.6011415334       -4.1509969216  W2        625             0.0000000000
      1875       625  TIP3      H2            -11.4611630842        1.6590415334       -4.2693069216  W2        625             0.0000000000
      1876       626  TIP3      OH2           -12.0110330842        0.5470315334        4.3436430784  W2        626             0.0000000000
      1877       626  TIP3      H1            -11.9311230842        1.3104715334        4.9154930784  W2        626             0.0000000000
      1878       626  TIP3      H2            -12.6122630842        0.8262715334        3.6531530784  W2        626             0.0000000000
      1879       627  TIP3      OH2           -20.2630130842        3.0033915334       -2.8415569216  W2        627             0.0000000000
      1880       627  TIP3      H1            -20.5934930842        2.6327315334       -3.6598569216  W2        627             0.0000000000
      1881       627  TIP3      H2            -19.6746030842        2.3327915334       -2.4947269216  W2        627             0.0000000000
      1882       628  TIP3      OH2           -18.8962630842        6.4314515334       -0.1603369216  W2        628             0.0000000000
      1883       628  TIP3      H1            -18.9911330842        5.8527615334       -0.9168769216  W2        628             0.0000000000
      1884       628  TIP3      H2            -18.1669030842        6.0600215334        0.3359430784  W2        628             0.0000000000
      1885       629  TIP3      OH2           -19.8964630842        1.7719515334        0.7919430784  W2        629             0.0000000000
      1886       629  TIP3      H1            -19.3312130842        1.8933715334        0.0290630784  W2        629             0.0000000000
      1887       629  TIP3      H2            -19.5775730842        2.4094515334        1.4307930784  W2        629             0.0000000000
      1888       630  TIP3      OH2           -13.5872430842        7.2751415334        1.5259930784  W2        630             0.0000000000
      1889       630  TIP3      H1            -13.8275830842        7.9374515334        2.1739130784  W2        630             0.0000000000
      1890       630  TIP3      H2            -13.7854230842        6.4406615334        1.9509530784  W2        630             0.0000000000
      1891       631  TIP3      OH2           -19.0163930842        6.1712215334        5.5091330784  W2        631             0.0000000000
      1892       631  TIP3      H1            -19.3276430842        6.9535415334        5.9644530784  W2        631             0.0000000000
      1893       631  TIP3      H2            -19.6663730842        6.0181315334        4.8233330784  W2        631             0.0000000000
      1894       632  TIP3      OH2           -13.0374330842        1.5350615334       -7.0389369216  W2        632             0.0000000000
      1895       632  TIP3      H1            -12.4578830842        1.6850915334       -6.2920469216  W2        632             0.0000000000
      1896       632  TIP3      H2            -12.6234330842        2.0058015334       -7.7622969216  W2        632             0.0000000000
      1897       633  TIP3      OH2           -22.0964030842        2.3693315334        4.7377030784  W2        633             0.0000000000
      1898       633  TIP3      H1            -22.0260830842        3.0200115334        5.4362030784  W2        633             0.0000000000
      1899       633  TIP3      H2            -22.9871830842        2.4720815334        4.4027930784  W2        633             0.0000000000
      1900       634  TIP3      OH2           -15.3109430842        8.2719115334       -3.6036269216  W2        634             0.0000000000
      1901       634  TIP3      H1            -14.8371830842        8.5675415334       -2.8262069216  W2        634             0.0000000000
      1902       634  TIP3      H2            -15.8740130842        9.0100715334       -3.8366669216  W2        634             0.0000000000
      1903       635  TIP3      OH2           -20.7768030842        8.2427215334        6.2725130784  W2        635             0.0000000000
      1904       635  TIP3      H1            -20.7692730842        8.1066915334        5.3250630784  W2        635             0.0000000000
      1905       635  TIP3      H2            -21.6927630842        8.1255315334        6.5245130784  W2        635             0.0000000000
      1906       636  TIP3      OH2            -9.3385930842       -6.7148984666       -7.2259669216  W2        636             0.0000000000
      1907       636  TIP3      H1            -10.2385230842       -6.5759984666       -6.9309069216  W2        636             0.0000000000
      1908       636  TIP3      H2             -9.0867530842       -5.8834384666       -7.6277969216  W2        636             0.0000000000
      1909       637  TIP3      OH2           -21.2727430842        2.0728215334       -5.2522769216  W2        637             0.0000000000
      1910       637  TIP3      H1            -21.5646130842        2.8409915334       -5.7431469216  W2        637             0.0000000000
      1911       637  TIP3      H2            -21.9472230842        1.4134415334       -5.4151369216  W2        637             0.0000000000
      1912       638  TIP3      OH2            -8.1494530842        7.6513415334       -8.8495769216  W2        638             0.0000000000
      1913       638  TIP3      H1             -8.0761030842        8.5903615334       -8.6790469216  W2        638             0.0000000000
      1914       638  TIP3      H2             -7.2439430842        7.3462015334       -8.9058469216  W2        638             0.0000000000
      1915       639  TIP3      OH2           -25.1797330842        4.4357415334        3.5627030784  W2        639             0.0000000000
      1916       639  TIP3      H1            -25.6808930842        4.4076815334        2.7476730784  W2        639             0.0000000000
      1917       639  TIP3      H2            -25.1743630842        3.5300615334        3.8724330784  W2        639             0.0000000000
      1918       640  TIP3      OH2           -25.4294630842        7.2161215334        0.4467230784  W2        640             0.0000000000
      1919       640  TIP3      H1            -24.4834030842        7.0718215334        0.4276730784  W2        640             0.0000000000
      1920       640  TIP3      H2            -25.5418330842        8.0004015334        0.9838430784  W2        640             0.0000000000
      1921       641  TIP3      OH2            -7.2316130842        7.8820915334        6.1290930784  W2        641             0.0000000000
      1922       641  TIP3      H1             -7.2809330842        6.9269015334        6.0918530784  W2        641             0.0000000000
      1923       641  TIP3      H2             -8.0583830842        8.1496215334        6.5304730784  W2        641             0.0000000000
      1924       642  TIP3      OH2           -16.2532130842        7.4560115334        5.0052330784  W2        642             0.0000000000
      1925       642  TIP3      H1            -16.1657530842        8.2824715334        5.4801430784  W2        642             0.0000000000
      1926       642  TIP3      H2            -17.1167030842        7.1263915334        5.2541630784  W2        642             0.0000000000
      1927       643  TIP3      OH2           -15.8386330842       11.2283815334       -5.1887069216  W2        643             0.0000000000
      1928       643  TIP3      H1            -15.9140330842       11.1071015334       -6.1351869216  W2        643             0.0000000000
      1929       643  TIP3      H2            -15.8057630842       12.1776515334       -5.0702469216  W2        643             0.0000000000
      1930       644  TIP3      OH2           -22.1852530842       10.0170815334       -3.4078069216  W2        644             0.0000000000
      1931       644  TIP3      H1            -22.0332130842        9.6691215334       -2.5291569216  W2        644             0.0000000000
      1932       644  TIP3      H2            -23.0362130842        9.6608115334       -3.6630869216  W2        644             0.0000000000
      1933       645  TIP3      OH2           -12.7370330842       10.3824015334       -8.1864669216  W2        645             0.0000000000
      1934       645  TIP3      H1            -12.3621930842        9.6380115334       -8.6572069216  W2        645             0.0000000000
      1935       645  TIP3      H2            -12.7326630842       10.1124615334       -7.2681369216  W2        645             0.0000000000
      1936       646  TIP3      OH2           -13.0682230842       10.3081115334       -5.4372469216  W2        646             0.0000000000
      1937       646  TIP3      H1            -14.0032430842       10.4083015334       -5.2585469216  W2        646             0.0000000000
      1938       646  TIP3      H2            -12.7880330842        9.5987115334       -4.8589269216  W2        646             0.0000000000
      1939       647  TIP3      OH2           -10.0796330842       -0.6246584666        6.6093130784  W2        647             0.0000000000
      1940       647  TIP3      H1            -10.4869530842       -0.1440984666        5.8886430784  W2        647             0.0000000000
      1941       647  TIP3      H2            -10.0390630842       -1.5300584666        6.3013930784  W2        647             0.0000000000
      1942       648  TIP3      OH2           -22.9306830842        5.7592815334        4.6059830784  W2        648             0.0000000000
      1943       648  TIP3      H1            -22.7145530842        5.3978415334        5.4655630784  W2        648             0.0000000000
      1944       648  TIP3      H2            -23.7862130842        5.3846615334        4.3963330784  W2        648             0.0000000000
      1945       649  TIP3      OH2           -20.3118830842       -5.7706684666        0.6014030784  W2        649             0.0000000000
      1946       649  TIP3      H1            -21.1735130842       -5.8578484666        0.1936930784  W2        649             0.0000000000
      1947       649  TIP3      H2            -20.3343130842       -4.9146584666        1.0291630784  W2        649             0.0000000000
      1948       650  TIP3      OH2           -15.6491030842       -6.0486284666        3.9761030784  W2        650             0.0000000000
      1949       650  TIP3      H1            -15.2287930842       -6.4639184666        4.7291630784  W2        650             0.0000000000
      1950       650  TIP3      H2            -16.5821430842       -6.2272984666        4.0933030784  W2        650             0.0000000000
      1951       651  TIP3      OH2           -12.3226130842       -2.2931084666        4.8295530784  W2        651             0.0000000000
      1952       651  TIP3      H1            -12.8366630842       -2.4188884666        5.6271530784  W2        651             0.0000000000
      1953       651  TIP3      H2            -12.4781430842       -1.3807984666        4.5851730784  W2        651             0.0000000000
      1954       652  TIP3      OH2           -11.5601230842        2.5678915334       -9.4091469216  W2        652             0.0000000000
      1955       652  TIP3      H1            -11.5180430842        2.3452815334      -10.3391469216  W2        652             0.0000000000
      1956       652  TIP3      H2            -10.7109130842        2.9666015334       -9.2191569216  W2        652             0.0000000000
      1957       653  TIP3      OH2           -15.9873730842       -3.5562884666       -8.7388169216  W2        653             0.0000000000
      1958       653  TIP3      H1            -16.2408930842       -3.5371284666       -7.8160069216  W2        653             0.0000000000
      1959       653  TIP3      H2            -16.2441630842       -4.4277484666       -9.0401969216  W2        653             0.0000000000
      1960       654  TIP3      OH2           -20.2208730842       -0.8052184666        1.6964230784  W2        654             0.0000000000
      1961       654  TIP3      H1            -20.8626630842       -0.8454884666        2.4054330784  W2        654             0.0000000000
      1962       654  TIP3      H2            -20.1836730842        0.1212515334        1.4587230784  W2        654             0.0000000000
      1963       655  TIP3      OH2           -20.2239630842       -0.5842084666       -3.3915769216  W2        655             0.0000000000
      1964       655  TIP3      H1            -21.1166730842       -0.9245984666       -3.4501969216  W2        655             0.0000000000
      1965       655  TIP3      H2            -19.7733030842       -0.9611184666       -4.1472569216  W2        655             0.0000000000
      1966       656  TIP3      OH2           -14.6884130842       -0.1681784666       -4.5744969216  W2        656             0.0000000000
      1967       656  TIP3      H1            -15.0973830842        0.6466815334       -4.8660169216  W2        656             0.0000000000
      1968       656  TIP3      H2            -13.9677930842       -0.3081684666       -5.1887869216  W2        656             0.0000000000
      1969       657  TIP3      OH2           -15.5862530842        0.0074615334        6.9135730784  W2        657             0.0000000000
      1970       657  TIP3      H1            -16.1488730842       -0.6973784666        7.2343530784  W2        657             0.0000000000
      1971       657  TIP3      H2            -14.7599130842       -0.1133484666        7.3813330784  W2        657             0.0000000000
      1972       658  TIP3      OH2           -13.6836430842       -0.7221384666       -1.7605269216  W2        658             0.0000000000
      1973       658  TIP3      H1            -13.8791930842       -0.1164584666       -2.4754669216  W2        658             0.0000000000
      1974       658  TIP3      H2            -13.5023830842       -1.5556184666       -2.1948969216  W2        658             0.0000000000
      1975       659  TIP3      OH2           -22.4708230842       -0.4848684666        3.5636230784  W2        659             0.0000000000
      1976       659  TIP3      H1            -22.5088830842       -0.0847084666        4.4323330784  W2        659             0.0000000000
      1977       659  TIP3      H2            -22.9617130842       -1.3016284666        3.6539130784  W2        659             0.0000000000
      1978       660  TIP3      OH2           -19.1050830842       -3.1106384666       -9.6377769216  W2        660             0.0000000000
      1979       660  TIP3      H1            -19.5360130842       -3.5556284666       -8.9080369216  W2        660             0.0000000000
      1980       660  TIP3      H2            -19.8232130842       -2.7390084666      -10.1500269216  W2        660             0.0000000000
      1981       661  TIP3      OH2           -25.8627430842       -3.3686884666       -2.5859069216  W2        661             0.0000000000
      1982       661  TIP3      H1            -25.2319730842       -3.3974784666       -1.8665169216  W2        661             0.0000000000
      1983       661  TIP3      H2            -25.4133130842       -3.7938184666       -3.3163169216  W2        661             0.0000000000
      1984       662  TIP3      OH2           -24.5885330842       -2.6224884666       -7.1618669216  W2        662             0.0000000000
      1985       662  TIP3      H1            -24.1143630842       -2.0314984666       -7.7467769216  W2        662             0.0000000000
      1986       662  TIP3      H2            -25.3058930842       -2.0921984666       -6.8148569216  W2        662             0.0000000000
      1987       663  TIP3      OH2           -14.4197230842        0.9159915334        2.9107130784  W2        663             0.0000000000
      1988       663  TIP3      H1            -14.0962430842        0.2849615334        2.2677630784  W2        663             0.0000000000
      1989       663  TIP3      H2            -14.8597930842        0.3812115334        3.5714530784  W2        663             0.0000000000
      1990       664  TIP3      OH2           -17.6424330842       -3.1564584666       -2.3051669216  W2        664             0.0000000000
      1991       664  TIP3      H1            -18.5533230842       -3.0997784666       -2.0165669216  W2        664             0.0000000000
      1992       664  TIP3      H2            -17.1371430842       -3.2169084666       -1.4944469216  W2        664             0.0000000000
      1993       665  TIP3      OH2           -22.8140930842       -1.5278284666       -3.4784069216  W2        665             0.0000000000
      1994       665  TIP3      H1            -23.7032930842       -1.4282784666       -3.8184469216  W2        665             0.0000000000
      1995       665  TIP3      H2            -22.5176030842       -2.3695284666       -3.8246169216  W2        665             0.0000000000
      1996       666  TIP3      OH2           -19.1609130842       -1.5275684666       -5.8219469216  W2        666             0.0000000000
      1997       666  TIP3      H1            -18.2293630842       -1.3985684666       -5.6436369216  W2        666             0.0000000000
      1998       666  TIP3      H2            -19.3758830842       -0.8581384666       -6.4714769216  W2        666             0.0000000000
      1999       667  TIP3      OH2           -13.2372430842       -3.9218284666        0.9590130784  W2        667             0.0000000000
      2000       667  TIP3      H1            -13.9140830842       -3.7905184666        1.6229830784  W2        667             0.0000000000
      2001       667  TIP3      H2            -13.7227530842       -4.0768784666        0.1487830784  W2        667             0.0000000000
      2002       668  TIP3      OH2           -20.4868930842       -0.3333484666       -8.2553369216  W2        668             0.0000000000
      2003       668  TIP3      H1            -21.0293830842       -0.7129684666       -8.9465769216  W2        668             0.0000000000
      2004       668  TIP3      H2            -19.6534030842       -0.1388784666       -8.6839269216  W2        668             0.0000000000
      2005       669  TIP3      OH2            -9.9497330842       11.7497115334        7.2357730784  W2        669             0.0000000000
      2006       669  TIP3      H1             -9.7498630842       12.1739015334        6.4013030784  W2        669             0.0000000000
      2007       669  TIP3      H2             -9.2943630842       12.0935315334        7.8428130784  W2        669             0.0000000000
      2008       670  TIP3      OH2           -22.3517530842        4.2238415334        6.8438230784  W2        670             0.0000000000
      2009       670  TIP3      H1            -21.6195130842        4.4784315334        7.4052730784  W2        670             0.0000000000
      2010       670  TIP3      H2            -23.1318830842        4.4283815334        7.3593630784  W2        670             0.0000000000
      2011       671  TIP3      OH2           -16.3224630842       -0.3691584666       -0.4182069216  W2        671             0.0000000000
      2012       671  TIP3      H1            -15.7581230842       -0.9154984666       -0.9652469216  W2        671             0.0000000000
      2013       671  TIP3      H2            -16.4701230842       -0.8909684666        0.3705530784  W2        671             0.0000000000
      2014       672  TIP3      OH2           -21.3204930842       -4.2325484666       -3.9997269216  W2        672             0.0000000000
      2015       672  TIP3      H1            -21.6375430842       -5.1350184666       -4.0351869216  W2        672             0.0000000000
      2016       672  TIP3      H2            -20.5390830842       -4.2308084666       -4.5525669216  W2        672             0.0000000000
      2017       673  TIP3      OH2           -17.6958730842       -1.9805484666        1.9958330784  W2        673             0.0000000000
      2018       673  TIP3      H1            -18.5313430842       -1.5265984666        2.1060730784  W2        673             0.0000000000
      2019       673  TIP3      H2            -17.1718130842       -1.7046984666        2.7478230784  W2        673             0.0000000000
      2020       674  TIP3      OH2           -17.1516130842        4.2322215334       -6.3195269216  W2        674             0.0000000000
      2021       674  TIP3      H1            -17.8965130842        3.7247515334       -6.6417369216  W2        674             0.0000000000
      2022       674  TIP3      H2            -17.2858930842        4.2810215334       -5.3730469216  W2        674             0.0000000000
      2023       675  TIP3      OH2           -10.0017230842        3.3650415334        2.4672330784  W2        675             0.0000000000
      2024       675  TIP3      H1             -9.3598430842        3.8216715334        1.9234530784  W2        675             0.0000000000
      2025       675  TIP3      H2            -10.8320330842        3.4782815334        2.0046430784  W2        675             0.0000000000
      2026       676  TIP3      OH2           -13.2539330842       -2.9537884666       -8.1202669216  W2        676             0.0000000000
      2027       676  TIP3      H1            -14.1925130842       -2.8422284666       -8.2713869216  W2        676             0.0000000000
      2028       676  TIP3      H2            -12.9567230842       -2.0970984666       -7.8136969216  W2        676             0.0000000000
      2029       677  TIP3      OH2           -15.6324030842        4.4165515334        4.9173830784  W2        677             0.0000000000
      2030       677  TIP3      H1            -15.9777930842        4.0347915334        5.7243430784  W2        677             0.0000000000
      2031       677  TIP3      H2            -15.8323930842        5.3499115334        4.9886730784  W2        677             0.0000000000
      2032       678  TIP3      OH2           -12.5355830842       -1.0865184666       -6.4595269216  W2        678             0.0000000000
      2033       678  TIP3      H1            -11.6436830842       -1.2240184666       -6.1404069216  W2        678             0.0000000000
      2034       678  TIP3      H2            -12.4792230842       -0.2959084666       -6.9961769216  W2        678             0.0000000000
      2035       679  TIP3      OH2           -22.0267830842        3.5272215334       -0.5497369216  W2        679             0.0000000000
      2036       679  TIP3      H1            -21.2820630842        3.5247915334       -1.1510869216  W2        679             0.0000000000
      2037       679  TIP3      H2            -21.9491230842        2.7036015334       -0.0682269216  W2        679             0.0000000000
      2038       680  TIP3      OH2           -15.0262030842        5.6906515334       -7.2940669216  W2        680             0.0000000000
      2039       680  TIP3      H1            -15.3213630842        6.5174415334       -6.9125869216  W2        680             0.0000000000
      2040       680  TIP3      H2            -15.7292030842        5.0713415334       -7.0979269216  W2        680             0.0000000000
      2041       681  TIP3      OH2           -25.0188130842        1.9879115334        4.7651130784  W2        681             0.0000000000
      2042       681  TIP3      H1            -24.7959530842        1.5698715334        5.5968630784  W2        681             0.0000000000
      2043       681  TIP3      H2            -25.6208030842        1.3754115334        4.3423930784  W2        681             0.0000000000
      2044       682  TIP3      OH2           -18.0023230842        1.5049015334        6.9780830784  W2        682             0.0000000000
      2045       682  TIP3      H1            -18.2982430842        1.3392015334        6.0829930784  W2        682             0.0000000000
      2046       682  TIP3      H2            -17.0708030842        1.2849315334        6.9674730784  W2        682             0.0000000000
      2047       683  TIP3      OH2           -13.3820430842        6.8781015334        4.8678830784  W2        683             0.0000000000
      2048       683  TIP3      H1            -14.2826130842        7.0613615334        4.6002730784  W2        683             0.0000000000
      2049       683  TIP3      H2            -13.3479330842        7.1370315334        5.7887630784  W2        683             0.0000000000
      2050       684  TIP3      OH2            -7.6507130842       -0.8771084666       -6.7648569216  W2        684             0.0000000000
      2051       684  TIP3      H1             -8.2050830842       -1.2733084666       -7.4371069216  W2        684             0.0000000000
      2052       684  TIP3      H2             -7.5503530842        0.0334115334       -7.0425269216  W2        684             0.0000000000
      2053       685  TIP3      OH2            -7.6875130842        4.9230615334        6.0722930784  W2        685             0.0000000000
      2054       685  TIP3      H1             -8.5386630842        5.1614415334        5.7049330784  W2        685             0.0000000000
      2055       685  TIP3      H2             -7.0971730842        4.9063815334        5.3190030784  W2        685             0.0000000000
      2056       686  TIP3      OH2            -9.3555430842        7.9089315334       -6.2996469216  W2        686             0.0000000000
      2057       686  TIP3      H1             -9.7284330842        7.0833115334       -5.9905869216  W2        686             0.0000000000
      2058       686  TIP3      H2             -9.0781930842        7.7258715334       -7.1973069216  W2        686             0.0000000000
      2059       687  TIP3      OH2           -12.1951530842        2.7168815334        0.7215430784  W2        687             0.0000000000
      2060       687  TIP3      H1            -13.1234630842        2.4850715334        0.6944730784  W2        687             0.0000000000
      2061       687  TIP3      H2            -11.7440430842        1.9398615334        0.3914230784  W2        687             0.0000000000
      2062       688  TIP3      OH2           -19.6518430842        7.0450415334       -3.1455869216  W2        688             0.0000000000
      2063       688  TIP3      H1            -19.1246230842        7.8184815334       -3.3457069216  W2        688             0.0000000000
      2064       688  TIP3      H2            -20.5319930842        7.2699615334       -3.4471869216  W2        688             0.0000000000
      2065       689  TIP3      OH2           -23.8970730842        1.9074515334       -8.5583469216  W2        689             0.0000000000
      2066       689  TIP3      H1            -23.2810830842        2.5341715334       -8.1788669216  W2        689             0.0000000000
      2067       689  TIP3      H2            -24.7588130842        2.2234315334       -8.2866969216  W2        689             0.0000000000
      2068       690  TIP3      OH2           -18.2246130842        4.7080315334       -3.5691569216  W2        690             0.0000000000
      2069       690  TIP3      H1            -18.4656130842        5.6334715334       -3.5276269216  W2        690             0.0000000000
      2070       690  TIP3      H2            -18.9652530842        4.2491615334       -3.1727669216  W2        690             0.0000000000
      2071       691  TIP3      OH2           -17.7099530842        8.8573915334        2.7459530784  W2        691             0.0000000000
      2072       691  TIP3      H1            -17.3474830842        9.7119515334        2.5123930784  W2        691             0.0000000000
      2073       691  TIP3      H2            -17.1784330842        8.5655515334        3.4865830784  W2        691             0.0000000000
      2074       692  TIP3      OH2           -19.5415330842        9.7297915334       -4.0239369216  W2        692             0.0000000000
      2075       692  TIP3      H1            -20.4914830842        9.8355315334       -3.9726069216  W2        692             0.0000000000
      2076       692  TIP3      H2            -19.1897230842       10.5505315334       -3.6791869216  W2        692             0.0000000000
      2077       693  TIP3      OH2           -14.1658730842        4.9564615334        2.4465130784  W2        693             0.0000000000
      2078       693  TIP3      H1            -14.5917430842        4.7286315334        3.2729130784  W2        693             0.0000000000
      2079       693  TIP3      H2            -13.5852930842        4.2176415334        2.2640430784  W2        693             0.0000000000
      2080       694  TIP3      OH2           -11.9629830842        5.8855115334       -8.4795869216  W2        694             0.0000000000
      2081       694  TIP3      H1            -11.6096730842        5.5054915334       -7.6752369216  W2        694             0.0000000000
      2082       694  TIP3      H2            -12.9116330842        5.7919915334       -8.3926569216  W2        694             0.0000000000
      2083       695  TIP3      OH2           -11.5074530842        9.5084115334        4.9159930784  W2        695             0.0000000000
      2084       695  TIP3      H1            -12.1091330842        8.9527015334        4.4206230784  W2        695             0.0000000000
      2085       695  TIP3      H2            -11.2260830842       10.1753915334        4.2897330784  W2        695             0.0000000000
      2086       696  TIP3      OH2            -7.4595430842       10.3647615334       -8.2785669216  W2        696             0.0000000000
      2087       696  TIP3      H1             -6.7157530842       10.9508115334       -8.4184069216  W2        696             0.0000000000
      2088       696  TIP3      H2             -8.1537330842       10.9333415334       -7.9453269216  W2        696             0.0000000000
      2089       697  TIP3      OH2           -23.3848630842       -3.2588184666        4.3232530784  W2        697             0.0000000000
      2090       697  TIP3      H1            -24.2776330842       -2.9202784666        4.2556530784  W2        697             0.0000000000
      2091       697  TIP3      H2            -23.4835830842       -4.1142084666        4.7413330784  W2        697             0.0000000000
      2092       698  TIP3      OH2           -11.0970530842        4.5577115334       -6.2527969216  W2        698             0.0000000000
      2093       698  TIP3      H1            -11.3742930842        3.8296415334       -5.6966869216  W2        698             0.0000000000
      2094       698  TIP3      H2            -10.1697530842        4.6769115334       -6.0475369216  W2        698             0.0000000000
      2095       699  TIP3      OH2           -23.7336630842        8.5456215334        2.7581930784  W2        699             0.0000000000
      2096       699  TIP3      H1            -23.5166330842        7.6138615334        2.7271630784  W2        699             0.0000000000
      2097       699  TIP3      H2            -23.4873130842        8.8201215334        3.6414730784  W2        699             0.0000000000
      2098       700  TIP3      OH2           -17.8722030842        6.9971215334      -10.0325869216  W2        700             0.0000000000
      2099       700  TIP3      H1            -17.6332230842        6.2489315334      -10.5796969216  W2        700             0.0000000000
      2100       700  TIP3      H2            -18.1410730842        6.6092915334       -9.1998069216  W2        700             0.0000000000
      2101       701  TIP3      OH2           -18.9351430842        6.5675015334       -7.5763269216  W2        701             0.0000000000
      2102       701  TIP3      H1            -18.7883430842        6.0474815334       -6.7862369216  W2        701             0.0000000000
      2103       701  TIP3      H2            -18.9379730842        7.4742615334       -7.2697369216  W2        701             0.0000000000
      2104       702  TIP3      OH2           -22.4820330842        3.8198315334       -7.0657869216  W2        702             0.0000000000
      2105       702  TIP3      H1            -23.1681030842        4.1720815334       -6.4988169216  W2        702             0.0000000000
      2106       702  TIP3      H2            -21.9592430842        4.5827915334       -7.3123569216  W2        702             0.0000000000
      2107       703  TIP3      OH2           -14.6505230842       -3.5177884666        3.2131130784  W2        703             0.0000000000
      2108       703  TIP3      H1            -13.9517330842       -3.4439184666        3.8630830784  W2        703             0.0000000000
      2109       703  TIP3      H2            -15.0313830842       -4.3822884666        3.3674030784  W2        703             0.0000000000
      2110       704  TIP3      OH2           -13.8660330842       -3.8656184666       -5.6896569216  W2        704             0.0000000000
      2111       704  TIP3      H1            -13.6462030842       -3.3940784666       -6.4931169216  W2        704             0.0000000000
      2112       704  TIP3      H2            -13.3076330842       -3.4713584666       -5.0195969216  W2        704             0.0000000000
      2113       705  TIP3      OH2           -16.1974230842        8.2648615334       -6.8269069216  W2        705             0.0000000000
      2114       705  TIP3      H1            -17.0138130842        8.7618315334       -6.7744769216  W2        705             0.0000000000
      2115       705  TIP3      H2            -15.6677930842        8.7402115334       -7.4670269216  W2        705             0.0000000000
      2116       706  TIP3      OH2           -16.6660430842       -2.1377384666       -4.8548169216  W2        706             0.0000000000
      2117       706  TIP3      H1            -15.8537830842       -1.6334184666       -4.8086469216  W2        706             0.0000000000
      2118       706  TIP3      H2            -16.9107430842       -2.2827684666       -3.9408569216  W2        706             0.0000000000
      2119       707  TIP3      OH2           -16.1304030842       -1.1514684666        4.3298430784  W2        707             0.0000000000
      2120       707  TIP3      H1            -16.0113730842       -0.5779284666        5.0868830784  W2        707             0.0000000000
      2121       707  TIP3      H2            -15.4749430842       -1.8395284666        4.4446230784  W2        707             0.0000000000
      2122       708  TIP3      OH2           -15.7823730842       -5.0564384666       -3.9167069216  W2        708             0.0000000000
      2123       708  TIP3      H1            -16.1290230842       -4.4393784666       -3.2722769216  W2        708             0.0000000000
      2124       708  TIP3      H2            -15.1236830842       -4.5558684666       -4.3981569216  W2        708             0.0000000000
      2125       709  TIP3      OH2           -18.8591130842        9.3085815334       -6.8452169216  W2        709             0.0000000000
      2126       709  TIP3      H1            -18.6982430842       10.1083315334       -7.3459569216  W2        709             0.0000000000
      2127       709  TIP3      H2            -19.0563330842        9.6151815334       -5.9601569216  W2        709             0.0000000000
      2128       710  TIP3      OH2           -20.1246730842       -3.9934984666       -7.2294569216  W2        710             0.0000000000
      2129       710  TIP3      H1            -20.2081930842       -3.1051884666       -6.8828169216  W2        710             0.0000000000
      2130       710  TIP3      H2            -19.2346430842       -4.2588284666       -6.9977769216  W2        710             0.0000000000
      2131       711  TIP3      OH2            -9.9258230842       -3.2444384666        5.1648130784  W2        711             0.0000000000
      2132       711  TIP3      H1            -10.8422430842       -2.9822684666        5.0771830784  W2        711             0.0000000000
      2133       711  TIP3      H2             -9.5903230842       -3.2475384666        4.2683430784  W2        711             0.0000000000
      2134       712  TIP3      OH2           -11.3237230842        0.5056615334       -0.7394569216  W2        712             0.0000000000
      2135       712  TIP3      H1            -12.1212830842        0.0906815334       -1.0679569216  W2        712             0.0000000000
      2136       712  TIP3      H2            -10.8786130842       -0.1849684666       -0.2484069216  W2        712             0.0000000000
      2137       713  TIP3      OH2           -21.8661430842        6.4337215334       -8.1690069216  W2        713             0.0000000000
      2138       713  TIP3      H1            -21.2739930842        7.1332015334       -7.8927669216  W2        713             0.0000000000
      2139       713  TIP3      H2            -21.4068430842        6.0006715334       -8.8885469216  W2        713             0.0000000000
      2140       714  TIP3      OH2           -23.5502230842       -0.9019784666       -9.0530669216  W2        714             0.0000000000
      2141       714  TIP3      H1            -23.5949630842        0.0373315334       -8.8743669216  W2        714             0.0000000000
      2142       714  TIP3      H2            -24.4379030842       -1.1374884666       -9.3228569216  W2        714             0.0000000000
      2143       715  TIP3      OH2           -10.2372630842        9.7619115334        0.8828930784  W2        715             0.0000000000
      2144       715  TIP3      H1            -10.3928330842       10.4403515334        0.2258230784  W2        715             0.0000000000
      2145       715  TIP3      H2             -9.3046230842        9.8338415334        1.0859530784  W2        715             0.0000000000
      2146       716  TIP3      OH2           -22.7420230842       -6.1203184666       -0.3799669216  W2        716             0.0000000000
      2147       716  TIP3      H1            -22.9710430842       -6.0610684666       -1.3074669216  W2        716             0.0000000000
      2148       716  TIP3      H2            -23.1846830842       -6.9117684666       -0.0735569216  W2        716             0.0000000000
      2149       717  TIP3      OH2           -23.8116930842        7.8203915334       -4.2193869216  W2        717             0.0000000000
      2150       717  TIP3      H1            -24.6438330842        8.2926615334       -4.1922469216  W2        717             0.0000000000
      2151       717  TIP3      H2            -23.2658630842        8.3301515334       -4.8180769216  W2        717             0.0000000000
      2152       718  TIP3      OH2           -24.5233230842       10.4327615334        7.1104130784  W2        718             0.0000000000
      2153       718  TIP3      H1            -23.9831030842       10.2161615334        7.8703330784  W2        718             0.0000000000
      2154       718  TIP3      H2            -25.0045230842        9.6273615334        6.9206630784  W2        718             0.0000000000
      2155       719  TIP3      OH2           -19.9259830842        9.3522015334        8.7308330784  W2        719             0.0000000000
      2156       719  TIP3      H1            -19.1582630842        8.8932815334        9.0717530784  W2        719             0.0000000000
      2157       719  TIP3      H2            -19.9473630842        9.1261815334        7.8009530784  W2        719             0.0000000000
      2158       720  TIP3      OH2           -15.8340230842        8.8602615334       -9.8939869216  W2        720             0.0000000000
      2159       720  TIP3      H1            -16.4779230842        8.2291215334       -9.5726169216  W2        720             0.0000000000
      2160       720  TIP3      H2            -15.0721930842        8.3290615334      -10.1256369216  W2        720             0.0000000000
      2161       721  TIP3      OH2           -13.3491130842        7.7323115334        7.4599830784  W2        721             0.0000000000
      2162       721  TIP3      H1            -13.7001630842        6.8756115334        7.7030230784  W2        721             0.0000000000
      2163       721  TIP3      H2            -12.6227930842        7.8749815334        8.0668830784  W2        721             0.0000000000
      2164       722  TIP3      OH2           -11.2297330842        8.6772515334       -9.6601869216  W2        722             0.0000000000
      2165       722  TIP3      H1            -10.9466930842        7.8827715334       -9.2074969216  W2        722             0.0000000000
      2166       722  TIP3      H2            -10.4899430842        8.9103515334      -10.2210769216  W2        722             0.0000000000
      2167       723  TIP3      OH2           -24.6163730842        4.2431715334        8.0648430784  W2        723             0.0000000000
      2168       723  TIP3      H1            -24.4723230842        3.3412415334        7.7785130784  W2        723             0.0000000000
      2169       723  TIP3      H2            -25.3886330842        4.5293815334        7.5770730784  W2        723             0.0000000000
      2170       724  TIP3      OH2           -20.2750030842        4.5867415334       -9.8026969216  W2        724             0.0000000000
      2171       724  TIP3      H1            -20.2105930842        3.7927015334       -9.2720569216  W2        724             0.0000000000
      2172       724  TIP3      H2            -19.6220830842        4.4680215334      -10.4924969216  W2        724             0.0000000000
      2173       725  TIP3      OH2           -17.9607630842        4.2129815334        7.4974830784  W2        725             0.0000000000
      2174       725  TIP3      H1            -18.2893830842        4.4837915334        6.6402230784  W2        725             0.0000000000
      2175       725  TIP3      H2            -17.8089430842        3.2719615334        7.4099830784  W2        725             0.0000000000
      2176       726  TIP3      OH2           -14.9226630842        5.6339115334      -10.0668969216  W2        726             0.0000000000
      2177       726  TIP3      H1            -15.1912530842        5.8141215334       -9.1660069216  W2        726             0.0000000000
      2178       726  TIP3      H2            -15.1291030842        4.7085315334      -10.1983169216  W2        726             0.0000000000
      2179       727  TIP3      OH2           -12.2262430842        4.1287115334        4.8807130784  W2        727             0.0000000000
      2180       727  TIP3      H1            -11.4807630842        4.7170815334        4.7611130784  W2        727             0.0000000000
      2181       727  TIP3      H2            -12.9835630842        4.7106815334        4.9440230784  W2        727             0.0000000000
      2182       728  TIP3      OH2           -23.7837230842        1.4435015334        7.4847730784  W2        728             0.0000000000
      2183       728  TIP3      H1            -23.3756030842        0.5861615334        7.3638330784  W2        728             0.0000000000
      2184       728  TIP3      H2            -24.0439630842        1.4576315334        8.4058030784  W2        728             0.0000000000
      2185       729  TIP3      OH2           -19.1256230842        2.5593615334       -7.4968969216  W2        729             0.0000000000
      2186       729  TIP3      H1            -19.5854230842        2.0751915334       -6.8110469216  W2        729             0.0000000000
      2187       729  TIP3      H2            -18.8707530842        1.8909015334       -8.1328469216  W2        729             0.0000000000
      2188       730  TIP3      OH2           -19.8366930842        0.4520715334        4.8590630784  W2        730             0.0000000000
      2189       730  TIP3      H1            -20.4550830842        1.1267315334        5.1395330784  W2        730             0.0000000000
      2190       730  TIP3      H2            -19.4925730842        0.7734615334        4.0256830784  W2        730             0.0000000000
      2191       731  TIP3      OH2           -18.0545830842        0.8025415334       -9.2345769216  W2        731             0.0000000000
      2192       731  TIP3      H1            -18.2350830842        0.6476615334      -10.1617469216  W2        731             0.0000000000
      2193       731  TIP3      H2            -17.1045330842        0.9104115334       -9.1897869216  W2        731             0.0000000000
      2194       732  TIP3      OH2           -14.8168730842        2.9236015334        8.1365430784  W2        732             0.0000000000
      2195       732  TIP3      H1            -13.8637530842        3.0075115334        8.1091430784  W2        732             0.0000000000
      2196       732  TIP3      H2            -14.9774130842        2.2117815334        8.7560330784  W2        732             0.0000000000
      2197       733  TIP3      OH2            -8.6647530842        3.1569615334       -9.7887669216  W2        733             0.0000000000
      2198       733  TIP3      H1             -8.9382730842        2.7325115334      -10.6019369216  W2        733             0.0000000000
      2199       733  TIP3      H2             -8.6253430842        4.0884115334      -10.0057269216  W2        733             0.0000000000
      2200       734  TIP3      OH2           -19.4973230842       -2.1928484666        5.9413730784  W2        734             0.0000000000
      2201       734  TIP3      H1            -19.3472330842       -2.9217184666        5.3393430784  W2        734             0.0000000000
      2202       734  TIP3      H2            -19.4950830842       -1.4156784666        5.3825930784  W2        734             0.0000000000
      2203       735  TIP3      OH2           -19.0847530842       -3.8232684666        3.4341130784  W2        735             0.0000000000
      2204       735  TIP3      H1            -18.5490030842       -3.3715984666        2.7820430784  W2        735             0.0000000000
      2205       735  TIP3      H2            -19.9367930842       -3.9312884666        3.0115230784  W2        735             0.0000000000
      2206       736  TIP3      OH2           -17.5029130842        1.6163515334        3.6736330784  W2        736             0.0000000000
      2207       736  TIP3      H1            -16.7524330842        1.4601015334        3.1004130784  W2        736             0.0000000000
      2208       736  TIP3      H2            -17.8420830842        2.4680115334        3.3981830784  W2        736             0.0000000000
      2209       737  TIP3      OH2           -13.0872930842       -0.5684684666        8.7021630784  W2        737             0.0000000000
      2210       737  TIP3      H1            -12.8951630842       -1.4995284666        8.5906130784  W2        737             0.0000000000
      2211       737  TIP3      H2            -12.2296630842       -0.1435184666        8.6917030784  W2        737             0.0000000000
      2212       738  TIP3      OH2           -11.7705730842        2.2200515334        6.7794330784  W2        738             0.0000000000
      2213       738  TIP3      H1            -12.0520730842        2.9295115334        6.2018130784  W2        738             0.0000000000
      2214       738  TIP3      H2            -10.8281430842        2.1473515334        6.6285530784  W2        738             0.0000000000
      2215       739  TIP3      OH2           -21.0186930842       -0.9944984666        7.8529330784  W2        739             0.0000000000
      2216       739  TIP3      H1            -21.7857930842       -1.5270184666        7.6426930784  W2        739             0.0000000000
      2217       739  TIP3      H2            -20.3397930842       -1.3044584666        7.2535630784  W2        739             0.0000000000
      2218       740  TIP3      OH2           -18.2792030842       -6.3666984666        3.8654730784  W2        740             0.0000000000
      2219       740  TIP3      H1            -18.3772430842       -5.4203784666        3.7600930784  W2        740             0.0000000000
      2220       740  TIP3      H2            -19.0215830842       -6.7393184666        3.3898230784  W2        740             0.0000000000
      2221       741  TIP3      OH2           -17.0151530842       -2.0451584666        7.4293130784  W2        741             0.0000000000
      2222       741  TIP3      H1            -17.2506130842       -2.2644884666        8.3308030784  W2        741             0.0000000000
      2223       741  TIP3      H2            -17.7984630842       -2.2520384666        6.9195630784  W2        741             0.0000000000
      2224       742  TIP3      OH2           -14.2994930842       -2.9178084666        6.5046630784  W2        742             0.0000000000
      2225       742  TIP3      H1            -15.2469530842       -2.8858384666        6.6369930784  W2        742             0.0000000000
      2226       742  TIP3      H2            -13.9868230842       -3.5430984666        7.1584830784  W2        742             0.0000000000
      2227       743  TIP3      OH2           -12.6653430842       -4.2836984666        8.5098530784  W2        743             0.0000000000
      2228       743  TIP3      H1            -12.7621630842       -5.2359684666        8.5040430784  W2        743             0.0000000000
      2229       743  TIP3      H2            -12.9870330842       -4.0150184666        9.3704030784  W2        743             0.0000000000
      2230       744  TIP3      OH2           -22.8384130842       -3.0741184666        7.5574030784  W2        744             0.0000000000
      2231       744  TIP3      H1            -22.6266730842       -3.7805084666        6.9471530784  W2        744             0.0000000000
      2232       744  TIP3      H2            -22.9496630842       -3.5115184666        8.4015230784  W2        744             0.0000000000
      2233       745  TIP3      OH2           -18.0573930842       -7.0729584666        6.5367530784  W2        745             0.0000000000
      2234       745  TIP3      H1            -17.3455530842       -7.7127384666        6.5226630784  W2        745             0.0000000000
      2235       745  TIP3      H2            -18.1583530842       -6.8061284666        5.6230630784  W2        745             0.0000000000
      2236       746  TIP3      OH2           -17.7036430842       -5.3901184666        8.5903830784  W2        746             0.0000000000
      2237       746  TIP3      H1            -17.8354230842       -5.8657384666        7.7702330784  W2        746             0.0000000000
      2238       746  TIP3      H2            -18.3029030842       -4.6457584666        8.5350930784  W2        746             0.0000000000
      2239       747  TIP3      OH2           -18.1574130842       11.4929115334       -8.2332169216  W2        747             0.0000000000
      2240       747  TIP3      H1            -17.2243430842       11.6507815334       -8.0893769216  W2        747             0.0000000000
      2241       747  TIP3      H2            -18.4215330842       12.1682115334       -8.8580669216  W2        747             0.0000000000
      2242       748  TIP3      OH2           -24.5889230842        6.1292915334       -8.7504069216  W2        748             0.0000000000
      2243       748  TIP3      H1            -23.6750030842        6.2081815334       -8.4770169216  W2        748             0.0000000000
      2244       748  TIP3      H2            -24.5816130842        5.4422515334       -9.4168469216  W2        748             0.0000000000
      2245       749  TIP3      OH2           -25.9398630842       11.5221415334       -3.6730169216  W2        749             0.0000000000
      2246       749  TIP3      H1            -26.5871530842       11.0603115334       -4.2058969216  W2        749             0.0000000000
      2247       749  TIP3      H2            -25.5854030842       10.8504715334       -3.0903969216  W2        749             0.0000000000
      2248       750  TIP3      OH2           -25.0699430842        9.6028415334       -1.8683969216  W2        750             0.0000000000
      2249       750  TIP3      H1            -25.4042630842        8.7225715334       -1.6963769216  W2        750             0.0000000000
      2250       750  TIP3      H2            -24.8477030842        9.9483415334       -1.0038369216  W2        750             0.0000000000
      2251       751  TIP3      OH2            -7.5214630842       10.4124815334        1.1120830784  W2        751             0.0000000000
      2252       751  TIP3      H1             -7.5427930842       10.5973215334        2.0510230784  W2        751             0.0000000000
      2253       751  TIP3      H2             -6.8308430842       10.9808815334        0.7712230784  W2        751             0.0000000000
      2254       752  TIP3      OH2            -7.9581730842        9.9795915334        4.0339930784  W2        752             0.0000000000
      2255       752  TIP3      H1             -8.4453030842        9.2440015334        3.6627330784  W2        752             0.0000000000
      2256       752  TIP3      H2             -7.4089030842        9.5859815334        4.7119330784  W2        752             0.0000000000
      2257       753  TIP3      OH2            -9.5074430842        5.7694015334        8.6720230784  W2        753             0.0000000000
      2258       753  TIP3      H1            -10.3733330842        5.6643715334        9.0662530784  W2        753             0.0000000000
      2259       753  TIP3      H2             -9.1308530842        6.5277315334        9.1184930784  W2        753             0.0000000000
      2260       754  TIP3      OH2            -8.2064730842        4.0257715334       -5.8137269216  W2        754             0.0000000000
      2261       754  TIP3      H1             -7.3563330842        4.4468615334       -5.6865669216  W2        754             0.0000000000
      2262       754  TIP3      H2             -8.2009630842        3.2857815334       -5.2065869216  W2        754             0.0000000000
      2263       755  TIP3      OH2            -7.8119130842        2.0795115334       -3.9901569216  W2        755             0.0000000000
      2264       755  TIP3      H1             -8.5384530842        1.5997715334       -3.5923969216  W2        755             0.0000000000
      2265       755  TIP3      H2             -7.2305830842        2.2849815334       -3.2579969216  W2        755             0.0000000000
      2266       756  TIP3      OH2            -8.0527930842        4.8642615334        0.9576030784  W2        756             0.0000000000
      2267       756  TIP3      H1             -7.2193730842        4.4862615334        0.6769630784  W2        756             0.0000000000
      2268       756  TIP3      H2             -7.9407630842        5.8073815334        0.8385130784  W2        756             0.0000000000
      2269       757  TIP3      OH2            -9.5665630842        7.7420115334        3.2644430784  W2        757             0.0000000000
      2270       757  TIP3      H1            -10.2140330842        8.0671615334        3.8899630784  W2        757             0.0000000000
      2271       757  TIP3      H2            -10.0841630842        7.3017815334        2.5902730784  W2        757             0.0000000000
      2272       758  TIP3      OH2            -7.5436030842        1.9803615334       -7.5990269216  W2        758             0.0000000000
      2273       758  TIP3      H1             -8.0654930842        2.3367715334       -8.3179369216  W2        758             0.0000000000
      2274       758  TIP3      H2             -7.5766830842        2.6551415334       -6.9209369216  W2        758             0.0000000000
      2275       759  TIP3      OH2            -9.1947030842       -0.7800784666       -9.0483169216  W2        759             0.0000000000
      2276       759  TIP3      H1             -9.0982630842       -0.1133784666       -9.7283469216  W2        759             0.0000000000
      2277       759  TIP3      H2             -9.3347430842       -1.5954484666       -9.5297669216  W2        759             0.0000000000
      2278       760  TIP3      OH2           -10.0252330842        0.6001615334       -3.4272869216  W2        760             0.0000000000
      2279       760  TIP3      H1            -10.1753530842       -0.3449784666       -3.4475069216  W2        760             0.0000000000
      2280       760  TIP3      H2            -10.3787830842        0.8813015334       -2.5833769216  W2        760             0.0000000000
      2281       761  TIP3      OH2           -24.9899930842        2.6783815334        0.5830930784  W2        761             0.0000000000
      2282       761  TIP3      H1            -24.8057030842        2.5965515334       -0.3526169216  W2        761             0.0000000000
      2283       761  TIP3      H2            -24.1407030842        2.5540815334        1.0067330784  W2        761             0.0000000000
      2284       762  TIP3      OH2            -9.1689430842        2.5704915334        6.2115430784  W2        762             0.0000000000
      2285       762  TIP3      H1             -8.5862130842        1.8357215334        6.4032630784  W2        762             0.0000000000
      2286       762  TIP3      H2             -8.6050130842        3.3425215334        6.2581230784  W2        762             0.0000000000
      2287       763  TIP3      OH2            -7.6722330842        0.4730715334        6.8960830784  W2        763             0.0000000000
      2288       763  TIP3      H1             -8.5355630842        0.0942815334        6.7305530784  W2        763             0.0000000000
      2289       763  TIP3      H2             -7.0678630842       -0.2654484666        6.8216630784  W2        763             0.0000000000
      2290       764  TIP3      OH2            -9.9473230842       -3.3720984666       -9.9307669216  W2        764             0.0000000000
      2291       764  TIP3      H1             -9.3367430842       -3.7434184666       -9.2939469216  W2        764             0.0000000000
      2292       764  TIP3      H2            -10.7841730842       -3.7934084666       -9.7347669216  W2        764             0.0000000000
      2293       765  TIP3      OH2           -10.3147530842       -1.8172584666       -4.9647769216  W2        765             0.0000000000
      2294       765  TIP3      H1            -10.0350430842       -2.7242184666       -4.8406069216  W2        765             0.0000000000
      2295       765  TIP3      H2             -9.5555830842       -1.3831084666       -5.3538569216  W2        765             0.0000000000
      2296       766  TIP3      OH2            -9.7029230842       -1.2355184666        0.4711130784  W2        766             0.0000000000
      2297       766  TIP3      H1             -8.7701230842       -1.0235284666        0.4367130784  W2        766             0.0000000000
      2298       766  TIP3      H2             -9.9381730842       -1.1343084666        1.3934130784  W2        766             0.0000000000
      2299       767  TIP3      OH2            -9.6737330842       -0.4989884666        3.2470530784  W2        767             0.0000000000
      2300       767  TIP3      H1            -10.5166030842       -0.2309484666        3.6130330784  W2        767             0.0000000000
      2301       767  TIP3      H2             -9.2313030842        0.3232015334        3.0361630784  W2        767             0.0000000000
      2302       768  TIP3      OH2           -25.3925130842       -2.0511184666        6.7239730784  W2        768             0.0000000000
      2303       768  TIP3      H1            -24.4730230842       -2.1732884666        6.9602830784  W2        768             0.0000000000
      2304       768  TIP3      H2            -25.8420630842       -2.8011484666        7.1133230784  W2        768             0.0000000000
      2305       769  TIP3      OH2            -7.3905730842       -6.5189684666        8.6005530784  W2        769             0.0000000000
      2306       769  TIP3      H1             -7.0408730842       -7.1726184666        7.9950230784  W2        769             0.0000000000
      2307       769  TIP3      H2             -7.2436230842       -5.6815584666        8.1608130784  W2        769             0.0000000000
      2308       770  TIP3      OH2            -9.7012730842       -4.5543284666       -4.9165769216  W2        770             0.0000000000
      2309       770  TIP3      H1             -9.5187730842       -5.0031784666       -4.0910769216  W2        770             0.0000000000
      2310       770  TIP3      H2            -10.3009830842       -5.1388884666       -5.3801169216  W2        770             0.0000000000
      2311       771  TIP3      OH2           -24.1712630842       -3.7389584666       -0.3847369216  W2        771             0.0000000000
      2312       771  TIP3      H1            -23.7261030842       -4.5307084666       -0.0827669216  W2        771             0.0000000000
      2313       771  TIP3      H2            -23.7049630842       -3.0224384666        0.0458230784  W2        771             0.0000000000
      2314       772  TIP3      OH2           -25.8672330842       -0.7396584666        0.6842830784  W2        772             0.0000000000
      2315       772  TIP3      H1            -25.3752530842       -0.9606084666       -0.1065169216  W2        772             0.0000000000
      2316       772  TIP3      H2            -25.5051430842        0.1006815334        0.9652330784  W2        772             0.0000000000
      2317       773  TIP3      OH2            -7.8708530842       -4.4095084666        6.9496830784  W2        773             0.0000000000
      2318       773  TIP3      H1             -8.7882830842       -4.1387984666        6.9140330784  W2        773             0.0000000000
      2319       773  TIP3      H2             -7.7479130842       -4.9446684666        6.1656530784  W2        773             0.0000000000
      2320       774  TIP3      OH2            -7.8346530842       -4.4865184666       -8.3885469216  W2        774             0.0000000000
      2321       774  TIP3      H1             -7.4223930842       -5.2079484666       -8.8637469216  W2        774             0.0000000000
      2322       774  TIP3      H2             -7.1530030842       -3.8170584666       -8.3301169216  W2        774             0.0000000000
      2323       775  TIP3      OH2           -25.5535830842       -4.4817484666       -5.2614769216  W2        775             0.0000000000
      2324       775  TIP3      H1            -26.4787430842       -4.2730884666       -5.3909269216  W2        775             0.0000000000
      2325       775  TIP3      H2            -25.0995930842       -3.9976684666       -5.9512469216  W2        775             0.0000000000
      2326       776  TIP3      OH2           -10.7828630842       10.5024215334       -3.3157369216  W2        776             0.0000000000
      2327       776  TIP3      H1            -10.1305730842       10.1546315334       -3.9238269216  W2        776             0.0000000000
      2328       776  TIP3      H2            -10.2724830842       10.9907415334       -2.6697669216  W2        776             0.0000000000
      2329       777  TIP3      OH2           -25.5900430842       -5.7438484666        3.0827730784  W2        777             0.0000000000
      2330       777  TIP3      H1            -26.2549930842       -5.9898184666        3.7258630784  W2        777             0.0000000000
      2331       777  TIP3      H2            -26.0329130842       -5.1218084666        2.5055730784  W2        777             0.0000000000
      2332       778  TIP3      OH2           -23.3981130842        7.4315615334        7.2273530784  W2        778             0.0000000000
      2333       778  TIP3      H1            -24.2188630842        7.6062115334        6.7668230784  W2        778             0.0000000000
      2334       778  TIP3      H2            -23.6503330842        7.3580315334        8.1477930784  W2        778             0.0000000000
      2335       779  TIP3      OH2           -20.4438230842        8.4056815334        3.4857530784  W2        779             0.0000000000
      2336       779  TIP3      H1            -20.8687130842        9.2155315334        3.2032130784  W2        779             0.0000000000
      2337       779  TIP3      H2            -19.5395430842        8.4910915334        3.1837330784  W2        779             0.0000000000
      2338       780  TIP3      OH2           -16.1326830842        9.8046815334        6.4451230784  W2        780             0.0000000000
      2339       780  TIP3      H1            -15.9479330842        9.4712915334        7.3231530784  W2        780             0.0000000000
      2340       780  TIP3      H2            -15.2862330842       10.1145415334        6.1230430784  W2        780             0.0000000000
      2341       781  TIP3      OH2           -13.7876430842       11.0905715334        5.6892630784  W2        781             0.0000000000
      2342       781  TIP3      H1            -13.1107530842       10.4578015334        5.4491830784  W2        781             0.0000000000
      2343       781  TIP3      H2            -13.4657630842       11.4916215334        6.4965930784  W2        781             0.0000000000
      2344       782  TIP3      OH2            -8.8702630842       -6.3198784666        4.7687630784  W2        782             0.0000000000
      2345       782  TIP3      H1             -9.6829130842       -5.9948484666        4.3812330784  W2        782             0.0000000000
      2346       782  TIP3      H2             -8.6374130842       -7.0800284666        4.2356730784  W2        782             0.0000000000
      2347       783  TIP3      OH2           -23.0421530842       11.6620715334        3.5332830784  W2        783             0.0000000000
      2348       783  TIP3      H1            -23.7625130842       12.1021715334        3.0820530784  W2        783             0.0000000000
      2349       783  TIP3      H2            -23.4077530842       11.4115415334        4.3816830784  W2        783             0.0000000000
      2350       784  TIP3      OH2           -20.5748930842       11.2624615334        2.5630030784  W2        784             0.0000000000
      2351       784  TIP3      H1            -21.4396730842       11.3343115334        2.9670130784  W2        784             0.0000000000
      2352       784  TIP3      H2            -20.6299930842       11.8091915334        1.7792530784  W2        784             0.0000000000
      2353       785  TIP3      OH2           -15.8643330842       11.1503515334        1.7386030784  W2        785             0.0000000000
      2354       785  TIP3      H1            -16.3209330842       11.6793215334        1.0844430784  W2        785             0.0000000000
      2355       785  TIP3      H2            -15.7015330842       11.7534915334        2.4638330784  W2        785             0.0000000000
      2356       786  TIP3      OH2           -13.5367030842       10.0283115334        2.6836330784  W2        786             0.0000000000
      2357       786  TIP3      H1            -14.4413330842       10.1933315334        2.4178430784  W2        786             0.0000000000
      2358       786  TIP3      H2            -13.1078430842       10.8815315334        2.6179730784  W2        786             0.0000000000
      2359       787  TIP3      OH2           -10.9325130842       11.5982215334        2.9784130784  W2        787             0.0000000000
      2360       787  TIP3      H1            -11.1143130842       12.5141115334        2.7679030784  W2        787             0.0000000000
      2361       787  TIP3      H2            -10.7557330842       11.1879315334        2.1318730784  W2        787             0.0000000000
      2362       788  TIP3      OH2           -23.6273430842       10.2853215334        0.4434630784  W2        788             0.0000000000
      2363       788  TIP3      H1            -23.6457430842        9.8598315334        1.3006930784  W2        788             0.0000000000
      2364       788  TIP3      H2            -22.8225530842        9.9668215334        0.0346830784  W2        788             0.0000000000
      2365       789  TIP3      OH2           -21.4860330842        8.9951915334       -0.9015469216  W2        789             0.0000000000
      2366       789  TIP3      H1            -21.7049630842        8.0789315334       -0.7319469216  W2        789             0.0000000000
      2367       789  TIP3      H2            -20.6618130842        9.1352315334       -0.4354069216  W2        789             0.0000000000
      2368       790  TIP3      OH2           -18.9487830842        9.4651215334       -0.0527469216  W2        790             0.0000000000
      2369       790  TIP3      H1            -18.7362130842        8.5770215334       -0.3396569216  W2        790             0.0000000000
      2370       790  TIP3      H2            -18.8842730842        9.4308915334        0.9016530784  W2        790             0.0000000000
      2371       791  TIP3      OH2           -15.4404130842       -4.8708184666       -0.9084169216  W2        791             0.0000000000
      2372       791  TIP3      H1            -16.1147330842       -5.5002584666       -0.6528369216  W2        791             0.0000000000
      2373       791  TIP3      H2            -14.8764930842       -5.3549284666       -1.5116269216  W2        791             0.0000000000
      2374       792  TIP3      OH2           -10.2976930842       -6.7634184666       -0.7957069216  W2        792             0.0000000000
      2375       792  TIP3      H1             -9.6939330842       -6.2158784666       -1.2976069216  W2        792             0.0000000000
      2376       792  TIP3      H2            -11.1674930842       -6.4443784666       -1.0362969216  W2        792             0.0000000000
      2377       793  TIP3      OH2            -8.5706530842       -5.6245484666       -2.4626169216  W2        793             0.0000000000
      2378       793  TIP3      H1             -7.9589030842       -6.1389784666       -2.9892569216  W2        793             0.0000000000
      2379       793  TIP3      H2             -8.1883130842       -4.7473384666       -2.4391769216  W2        793             0.0000000000
      2380       794  TIP3      OH2           -23.1136630842       -6.2367884666       -3.0864269216  W2        794             0.0000000000
      2381       794  TIP3      H1            -23.8906830842       -6.4712984666       -3.5938369216  W2        794             0.0000000000
      2382       794  TIP3      H2            -22.5833030842       -7.0335784666       -3.0776269216  W2        794             0.0000000000
      2383       795  TIP3      OH2           -24.2773230842       -6.4389784666       -7.2828169216  W2        795             0.0000000000
      2384       795  TIP3      H1            -23.8382530842       -5.8279284666       -7.8744669216  W2        795             0.0000000000
      2385       795  TIP3      H2            -24.9110830842       -5.9005684666       -6.8088169216  W2        795             0.0000000000
      2386       796  TIP3      OH2           -18.5344030842       -6.3100784666       -3.2731169216  W2        796             0.0000000000
      2387       796  TIP3      H1            -17.6600630842       -5.9216484666       -3.3026869216  W2        796             0.0000000000
      2388       796  TIP3      H2            -18.6703230842       -6.5252984666       -2.3503969216  W2        796             0.0000000000
      2389       797  TIP3      OH2           -12.9775630842       -6.2800984666       -1.6239469216  W2        797             0.0000000000
      2390       797  TIP3      H1            -12.9014030842       -6.1849384666       -2.5733469216  W2        797             0.0000000000
      2391       797  TIP3      H2            -13.2526430842       -7.1878084666       -1.4950369216  W2        797             0.0000000000
      2392       798  TIP3      OH2           -11.6243030842       -6.2543184666       -5.9314469216  W2        798             0.0000000000
      2393       798  TIP3      H1            -12.3271930842       -5.6393984666       -6.1413069216  W2        798             0.0000000000
      2394       798  TIP3      H2            -12.0691630842       -7.0916484666       -5.8003569216  W2        798             0.0000000000
      2395       799  TIP3      OH2           -24.3763730842        9.5092415334       -6.3853069216  W2        799             0.0000000000
      2396       799  TIP3      H1            -25.0613830842        9.4711315334       -7.0527969216  W2        799             0.0000000000
      2397       799  TIP3      H2            -24.3726530842       10.4220015334       -6.0970969216  W2        799             0.0000000000
      2398       800  TIP3      OH2           -22.4164130842       -4.5228284666       -8.8404069216  W2        800             0.0000000000
      2399       800  TIP3      H1            -21.9250730842       -5.1525884666       -9.3678569216  W2        800             0.0000000000
      2400       800  TIP3      H2            -21.7927830842       -4.2268884666       -8.1772869216  W2        800             0.0000000000
      2401       801  TIP3      OH2           -17.3904030842       -4.2296784666       -6.3833569216  W2        801             0.0000000000
      2402       801  TIP3      H1            -17.2122730842       -4.8763584666       -5.7004969216  W2        801             0.0000000000
      2403       801  TIP3      H2            -17.4437830842       -3.3959084666       -5.9162469216  W2        801             0.0000000000
      2404       802  TIP3      OH2           -15.5120230842       10.7187315334       -7.9876869216  W2        802             0.0000000000
      2405       802  TIP3      H1            -14.6460030842       11.0854715334       -8.1658669216  W2        802             0.0000000000
      2406       802  TIP3      H2            -15.7587430842       10.2795315334       -8.8016069216  W2        802             0.0000000000
      2407       803  TIP3      OH2            -8.8030630842       10.2817615334       -5.3085769216  W2        803             0.0000000000
      2408       803  TIP3      H1             -8.9973530842        9.5339715334       -5.8736169216  W2        803             0.0000000000
      2409       803  TIP3      H2             -8.8420530842       11.0397715334       -5.8917869216  W2        803             0.0000000000
      2410       804  TIP3      OH2           -23.1558630842       -5.7225984666        6.4311930784  W2        804             0.0000000000
      2411       804  TIP3      H1            -23.5220430842       -6.4883384666        6.8736630784  W2        804             0.0000000000
      2412       804  TIP3      H2            -22.2430130842       -5.6935784666        6.7177030784  W2        804             0.0000000000
      2413       805  TIP3      OH2           -21.1827830842       -6.3721584666        7.9669030784  W2        805             0.0000000000
      2414       805  TIP3      H1            -20.2844230842       -6.6461384666        7.7822430784  W2        805             0.0000000000
      2415       805  TIP3      H2            -21.5694730842       -7.1145584666        8.4311630784  W2        805             0.0000000000
      2416       806  TIP3      OH2           -22.5582530842       10.4293215334       -9.3600969216  W2        806             0.0000000000
      2417       806  TIP3      H1            -22.8257930842       10.7156115334       -8.4867869216  W2        806             0.0000000000
      2418       806  TIP3      H2            -21.7869930842        9.8832415334       -9.2078469216  W2        806             0.0000000000
      2419       807  TIP3      OH2           -12.7615530842       -7.0396284666        8.1491830784  W2        807             0.0000000000
      2420       807  TIP3      H1            -12.6848330842       -7.4655584666        9.0029530784  W2        807             0.0000000000
      2421       807  TIP3      H2            -11.8678930842       -7.0261584666        7.8065330784  W2        807             0.0000000000
      2422       808  TIP3      OH2            -9.5854430842        9.0330015334        6.8416030784  W2        808             0.0000000000
      2423       808  TIP3      H1            -10.3672530842        8.8468015334        6.3216630784  W2        808             0.0000000000
      2424       808  TIP3      H2             -9.6574530842        9.9624315334        7.0588530784  W2        808             0.0000000000
      2425       809  TIP3      OH2             4.8205969158        2.9194415334       -3.1276769216  W2        809             0.0000000000
      2426       809  TIP3      H1              4.9097069158        3.8632615334       -3.2599669216  W2        809             0.0000000000
      2427       809  TIP3      H2              4.1823569158        2.6440815334       -3.7857369216  W2        809             0.0000000000
      2428       810  TIP3      OH2             3.7537269158        2.1745115334        0.2911430784  W2        810             0.0000000000
      2429       810  TIP3      H1              3.7154769158        1.5281415334        0.9961030784  W2        810             0.0000000000
      2430       810  TIP3      H2              3.4313769158        1.7079515334       -0.4799869216  W2        810             0.0000000000
      2431       811  TIP3      OH2            -3.8777730842        1.7887215334        1.8841330784  W2        811             0.0000000000
      2432       811  TIP3      H1             -3.8365630842        1.1630515334        2.6073730784  W2        811             0.0000000000
      2433       811  TIP3      H2             -3.1750030842        2.4125815334        2.0661730784  W2        811             0.0000000000
      2434       812  TIP3      OH2             7.4597469158        5.1135515334       -1.4073469216  W2        812             0.0000000000
      2435       812  TIP3      H1              7.0190169158        4.3931515334       -0.9567869216  W2        812             0.0000000000
      2436       812  TIP3      H2              7.4467169158        5.8342715334       -0.7775769216  W2        812             0.0000000000
      2437       813  TIP3      OH2            -2.9544630842        6.2386115334        0.4190430784  W2        813             0.0000000000
      2438       813  TIP3      H1             -3.3239430842        5.4366615334        0.0494730784  W2        813             0.0000000000
      2439       813  TIP3      H2             -2.0133530842        6.0701015334        0.4653830784  W2        813             0.0000000000
      2440       814  TIP3      OH2            -6.3444130842       -0.1011284666       -4.1880769216  W2        814             0.0000000000
      2441       814  TIP3      H1             -6.7920730842        0.7447415334       -4.2064269216  W2        814             0.0000000000
      2442       814  TIP3      H2             -6.9052930842       -0.6807084666       -4.7035669216  W2        814             0.0000000000
      2443       815  TIP3      OH2            -5.6338030842        2.0608315334       -2.0622769216  W2        815             0.0000000000
      2444       815  TIP3      H1             -5.4204530842        1.2909915334       -1.5349769216  W2        815             0.0000000000
      2445       815  TIP3      H2             -4.8960430842        2.1505015334       -2.6655169216  W2        815             0.0000000000
      2446       816  TIP3      OH2             4.5712969158       10.2177215334       -1.1953069216  W2        816             0.0000000000
      2447       816  TIP3      H1              5.1909369158        9.5411915334       -1.4683869216  W2        816             0.0000000000
      2448       816  TIP3      H2              4.3630369158        9.9998015334       -0.2868169216  W2        816             0.0000000000
      2449       817  TIP3      OH2             2.1431669158        4.6066515334        0.6972430784  W2        817             0.0000000000
      2450       817  TIP3      H1              2.4469569158        3.9207915334        0.1026530784  W2        817             0.0000000000
      2451       817  TIP3      H2              2.8645669158        4.7255215334        1.3150430784  W2        817             0.0000000000
      2452       818  TIP3      OH2            10.8061469158       -3.7918184666        1.5578630784  W2        818             0.0000000000
      2453       818  TIP3      H1             10.8553669158       -3.1816984666        2.2937730784  W2        818             0.0000000000
      2454       818  TIP3      H2             11.2316569158       -3.3307284666        0.8349730784  W2        818             0.0000000000
      2455       819  TIP3      OH2             5.2838669158       -0.9991084666        1.0247230784  W2        819             0.0000000000
      2456       819  TIP3      H1              5.4264569158       -1.9454084666        1.0448830784  W2        819             0.0000000000
      2457       819  TIP3      H2              5.1777669158       -0.7921284666        0.0962130784  W2        819             0.0000000000
      2458       820  TIP3      OH2            -1.5613030842       -2.8974684666       -1.7027969216  W2        820             0.0000000000
      2459       820  TIP3      H1             -1.5181930842       -2.0376184666       -2.1211669216  W2        820             0.0000000000
      2460       820  TIP3      H2             -2.0188930842       -3.4499984666       -2.3364769216  W2        820             0.0000000000
      2461       821  TIP3      OH2             6.1609669158       -2.7669084666       -3.3019669216  W2        821             0.0000000000
      2462       821  TIP3      H1              6.8073969158       -3.0955884666       -2.6772069216  W2        821             0.0000000000
      2463       821  TIP3      H2              6.6709069158       -2.2490084666       -3.9248269216  W2        821             0.0000000000
      2464       822  TIP3      OH2            -4.9411530842       -0.5008884666       -0.9406569216  W2        822             0.0000000000
      2465       822  TIP3      H1             -4.2874930842       -1.0507184666       -0.5086469216  W2        822             0.0000000000
      2466       822  TIP3      H2             -4.9172230842       -0.7749884666       -1.8574569216  W2        822             0.0000000000
      2467       823  TIP3      OH2             0.2152969158        1.0492415334       -1.7255069216  W2        823             0.0000000000
      2468       823  TIP3      H1              0.8313969158        0.5227815334       -1.2161069216  W2        823             0.0000000000
      2469       823  TIP3      H2             -0.3708230842        0.4091115334       -2.1291469216  W2        823             0.0000000000
      2470       824  TIP3      OH2            11.1976069158       -2.3138984666        3.7938430784  W2        824             0.0000000000
      2471       824  TIP3      H1             10.5090669158       -1.6558284666        3.6985030784  W2        824             0.0000000000
      2472       824  TIP3      H2             11.2130669158       -2.5111084666        4.7303830784  W2        824             0.0000000000
      2473       825  TIP3      OH2            -2.7511130842       -3.9796284666        2.3712830784  W2        825             0.0000000000
      2474       825  TIP3      H1             -2.9699430842       -3.4495684666        1.6048830784  W2        825             0.0000000000
      2475       825  TIP3      H2             -3.4190230842       -3.7530784666        3.0184230784  W2        825             0.0000000000
      2476       826  TIP3      OH2             4.6178669158        5.5204815334       -4.0848069216  W2        826             0.0000000000
      2477       826  TIP3      H1              4.3223769158        5.1977115334       -4.9361169216  W2        826             0.0000000000
      2478       826  TIP3      H2              4.2936469158        6.4201515334       -4.0435469216  W2        826             0.0000000000
      2479       827  TIP3      OH2            -0.1819730842        3.6959415334        2.6586530784  W2        827             0.0000000000
      2480       827  TIP3      H1             -0.9220630842        4.2940915334        2.7621730784  W2        827             0.0000000000
      2481       827  TIP3      H2              0.5319769158        4.2499015334        2.3430130784  W2        827             0.0000000000
      2482       828  TIP3      OH2             7.9248069158       -3.4759784666       -1.3213769216  W2        828             0.0000000000
      2483       828  TIP3      H1              7.7096069158       -4.2416384666       -0.7887769216  W2        828             0.0000000000
      2484       828  TIP3      H2              8.5805469158       -3.0035184666       -0.8085269216  W2        828             0.0000000000
      2485       829  TIP3      OH2            -3.1573830842       -2.0874484666        0.3235030784  W2        829             0.0000000000
      2486       829  TIP3      H1             -2.5437530842       -1.4546884666        0.6967430784  W2        829             0.0000000000
      2487       829  TIP3      H2             -2.6453130842       -2.5599484666       -0.3328069216  W2        829             0.0000000000
      2488       830  TIP3      OH2            -1.7745430842        5.6602415334        3.4458030784  W2        830             0.0000000000
      2489       830  TIP3      H1             -1.7797830842        6.5395915334        3.0677330784  W2        830             0.0000000000
      2490       830  TIP3      H2             -2.6281330842        5.5766515334        3.8707930784  W2        830             0.0000000000
      2491       831  TIP3      OH2            -5.6534530842        5.3310315334       -5.7722669216  W2        831             0.0000000000
      2492       831  TIP3      H1             -5.9253630842        5.5601315334       -6.6609769216  W2        831             0.0000000000
      2493       831  TIP3      H2             -5.6078830842        6.1689115334       -5.3117369216  W2        831             0.0000000000
      2494       832  TIP3      OH2             7.9715169158        6.9526215334        0.9405830784  W2        832             0.0000000000
      2495       832  TIP3      H1              7.0298869158        7.0110115334        1.1022730784  W2        832             0.0000000000
      2496       832  TIP3      H2              8.2481269158        7.8586715334        0.8035530784  W2        832             0.0000000000
      2497       833  TIP3      OH2             8.2722169158       -4.7608484666        2.3579730784  W2        833             0.0000000000
      2498       833  TIP3      H1              7.5361369158       -4.1501384666        2.3201030784  W2        833             0.0000000000
      2499       833  TIP3      H2              8.9556169158       -4.3459484666        1.8316130784  W2        833             0.0000000000
      2500       834  TIP3      OH2             1.2753569158       -6.6741184666       -0.1762269216  W2        834             0.0000000000
      2501       834  TIP3      H1              1.1577769158       -7.6225184666       -0.2303969216  W2        834             0.0000000000
      2502       834  TIP3      H2              0.4203669158       -6.3415084666        0.0968830784  W2        834             0.0000000000
      2503       835  TIP3      OH2             6.2236369158        8.7339715334       -2.4342569216  W2        835             0.0000000000
      2504       835  TIP3      H1              6.6488669158        8.0267615334       -2.9192969216  W2        835             0.0000000000
      2505       835  TIP3      H2              6.5406369158        9.5352415334       -2.8510369216  W2        835             0.0000000000
      2506       836  TIP3      OH2             7.3832869158        6.6348215334       -3.9255969216  W2        836             0.0000000000
      2507       836  TIP3      H1              7.1257669158        5.9448315334       -4.5370069216  W2        836             0.0000000000
      2508       836  TIP3      H2              7.4543669158        6.1919415334       -3.0800069216  W2        836             0.0000000000
      2509       837  TIP3      OH2             9.0693069158        5.2014915334        4.5517530784  W2        837             0.0000000000
      2510       837  TIP3      H1              9.2089369158        4.6097415334        3.8124530784  W2        837             0.0000000000
      2511       837  TIP3      H2              9.2365869158        6.0740815334        4.1956330784  W2        837             0.0000000000
      2512       838  TIP3      OH2             3.5418469158        2.1634415334       -5.6756469216  W2        838             0.0000000000
      2513       838  TIP3      H1              2.8303969158        2.6984115334       -6.0275969216  W2        838             0.0000000000
      2514       838  TIP3      H2              4.2328069158        2.2186515334       -6.3357569216  W2        838             0.0000000000
      2515       839  TIP3      OH2             3.5957669158        0.6208715334       -8.6371469216  W2        839             0.0000000000
      2516       839  TIP3      H1              4.2967569158        0.6435615334       -7.9857469216  W2        839             0.0000000000
      2517       839  TIP3      H2              3.8980569158       -0.0071584666       -9.2932169216  W2        839             0.0000000000
      2518       840  TIP3      OH2            10.9112369158        1.5412915334        2.6177930784  W2        840             0.0000000000
      2519       840  TIP3      H1             10.2586469158        2.2358515334        2.7068830784  W2        840             0.0000000000
      2520       840  TIP3      H2             11.3762669158        1.7513815334        1.8079530784  W2        840             0.0000000000
      2521       841  TIP3      OH2             6.9476169158        2.3727715334       -4.7240569216  W2        841             0.0000000000
      2522       841  TIP3      H1              6.2157169158        2.6011415334       -4.1509969216  W2        841             0.0000000000
      2523       841  TIP3      H2              7.3948369158        1.6590415334       -4.2693069216  W2        841             0.0000000000
      2524       842  TIP3      OH2             6.8449669158        0.5470315334        4.3436430784  W2        842             0.0000000000
      2525       842  TIP3      H1              6.9248769158        1.3104715334        4.9154930784  W2        842             0.0000000000
      2526       842  TIP3      H2              6.2437369158        0.8262715334        3.6531530784  W2        842             0.0000000000
      2527       843  TIP3      OH2            -1.4070130842        3.0033915334       -2.8415569216  W2        843             0.0000000000
      2528       843  TIP3      H1             -1.7374930842        2.6327315334       -3.6598569216  W2        843             0.0000000000
      2529       843  TIP3      H2             -0.8186030842        2.3327915334       -2.4947269216  W2        843             0.0000000000
      2530       844  TIP3      OH2            -0.0402630842        6.4314515334       -0.1603369216  W2        844             0.0000000000
      2531       844  TIP3      H1             -0.1351330842        5.8527615334       -0.9168769216  W2        844             0.0000000000
      2532       844  TIP3      H2              0.6890969158        6.0600215334        0.3359430784  W2        844             0.0000000000
      2533       845  TIP3      OH2            -1.0404630842        1.7719515334        0.7919430784  W2        845             0.0000000000
      2534       845  TIP3      H1             -0.4752130842        1.8933715334        0.0290630784  W2        845             0.0000000000
      2535       845  TIP3      H2             -0.7215730842        2.4094515334        1.4307930784  W2        845             0.0000000000
      2536       846  TIP3      OH2             5.2687569158        7.2751415334        1.5259930784  W2        846             0.0000000000
      2537       846  TIP3      H1              5.0284169158        7.9374515334        2.1739130784  W2        846             0.0000000000
      2538       846  TIP3      H2              5.0705769158        6.4406615334        1.9509530784  W2        846             0.0000000000
      2539       847  TIP3      OH2            -0.1603930842        6.1712215334        5.5091330784  W2        847             0.0000000000
      2540       847  TIP3      H1             -0.4716430842        6.9535415334        5.9644530784  W2        847             0.0000000000
      2541       847  TIP3      H2             -0.8103730842        6.0181315334        4.8233330784  W2        847             0.0000000000
      2542       848  TIP3      OH2             5.8185669158        1.5350615334       -7.0389369216  W2        848             0.0000000000
      2543       848  TIP3      H1              6.3981169158        1.6850915334       -6.2920469216  W2        848             0.0000000000
      2544       848  TIP3      H2              6.2325669158        2.0058015334       -7.7622969216  W2        848             0.0000000000
      2545       849  TIP3      OH2            -3.2404030842        2.3693315334        4.7377030784  W2        849             0.0000000000
      2546       849  TIP3      H1             -3.1700830842        3.0200115334        5.4362030784  W2        849             0.0000000000
      2547       849  TIP3      H2             -4.1311830842        2.4720815334        4.4027930784  W2        849             0.0000000000
      2548       850  TIP3      OH2             3.5450569158        8.2719115334       -3.6036269216  W2        850             0.0000000000
      2549       850  TIP3      H1              4.0188169158        8.5675415334       -2.8262069216  W2        850             0.0000000000
      2550       850  TIP3      H2              2.9819869158        9.0100715334       -3.8366669216  W2        850             0.0000000000
      2551       851  TIP3      OH2            -1.9208030842        8.2427215334        6.2725130784  W2        851             0.0000000000
      2552       851  TIP3      H1             -1.9132730842        8.1066915334        5.3250630784  W2        851             0.0000000000
      2553       851  TIP3      H2             -2.8367630842        8.1255315334        6.5245130784  W2        851             0.0000000000
      2554       852  TIP3      OH2             9.5174069158       -6.7148984666       -7.2259669216  W2        852             0.0000000000
      2555       852  TIP3      H1              8.6174769158       -6.5759984666       -6.9309069216  W2        852             0.0000000000
      2556       852  TIP3      H2              9.7692469158       -5.8834384666       -7.6277969216  W2        852             0.0000000000
      2557       853  TIP3      OH2            -2.4167430842        2.0728215334       -5.2522769216  W2        853             0.0000000000
      2558       853  TIP3      H1             -2.7086130842        2.8409915334       -5.7431469216  W2        853             0.0000000000
      2559       853  TIP3      H2             -3.0912230842        1.4134415334       -5.4151369216  W2        853             0.0000000000
      2560       854  TIP3      OH2            10.7065469158        7.6513415334       -8.8495769216  W2        854             0.0000000000
      2561       854  TIP3      H1             10.7798969158        8.5903615334       -8.6790469216  W2        854             0.0000000000
      2562       854  TIP3      H2             11.6120569158        7.3462015334       -8.9058469216  W2        854             0.0000000000
      2563       855  TIP3      OH2            -6.3237330842        4.4357415334        3.5627030784  W2        855             0.0000000000
      2564       855  TIP3      H1             -6.8248930842        4.4076815334        2.7476730784  W2        855             0.0000000000
      2565       855  TIP3      H2             -6.3183630842        3.5300615334        3.8724330784  W2        855             0.0000000000
      2566       856  TIP3      OH2            -6.5734630842        7.2161215334        0.4467230784  W2        856             0.0000000000
      2567       856  TIP3      H1             -5.6274030842        7.0718215334        0.4276730784  W2        856             0.0000000000
      2568       856  TIP3      H2             -6.6858330842        8.0004015334        0.9838430784  W2        856             0.0000000000
      2569       857  TIP3      OH2            11.6243869158        7.8820915334        6.1290930784  W2        857             0.0000000000
      2570       857  TIP3      H1             11.5750669158        6.9269015334        6.0918530784  W2        857             0.0000000000
      2571       857  TIP3      H2             10.7976169158        8.1496215334        6.5304730784  W2        857             0.0000000000
      2572       858  TIP3      OH2             2.6027869158        7.4560115334        5.0052330784  W2        858             0.0000000000
      2573       858  TIP3      H1              2.6902469158        8.2824715334        5.4801430784  W2        858             0.0000000000
      2574       858  TIP3      H2              1.7392969158        7.1263915334        5.2541630784  W2        858             0.0000000000
      2575       859  TIP3      OH2             3.0173669158       11.2283815334       -5.1887069216  W2        859             0.0000000000
      2576       859  TIP3      H1              2.9419669158       11.1071015334       -6.1351869216  W2        859             0.0000000000
      2577       859  TIP3      H2              3.0502369158       12.1776515334       -5.0702469216  W2        859             0.0000000000
      2578       860  TIP3      OH2            -3.3292530842       10.0170815334       -3.4078069216  W2        860             0.0000000000
      2579       860  TIP3      H1             -3.1772130842        9.6691215334       -2.5291569216  W2        860             0.0000000000
      2580       860  TIP3      H2             -4.1802130842        9.6608115334       -3.6630869216  W2        860             0.0000000000
      2581       861  TIP3      OH2             6.1189669158       10.3824015334       -8.1864669216  W2        861             0.0000000000
      2582       861  TIP3      H1              6.4938069158        9.6380115334       -8.6572069216  W2        861             0.0000000000
      2583       861  TIP3      H2              6.1233369158       10.1124615334       -7.2681369216  W2        861             0.0000000000
      2584       862  TIP3      OH2             5.7877769158       10.3081115334       -5.4372469216  W2        862             0.0000000000
      2585       862  TIP3      H1              4.8527569158       10.4083015334       -5.2585469216  W2        862             0.0000000000
      2586       862  TIP3      H2              6.0679669158        9.5987115334       -4.8589269216  W2        862             0.0000000000
      2587       863  TIP3      OH2             8.7763669158       -0.6246584666        6.6093130784  W2        863             0.0000000000
      2588       863  TIP3      H1              8.3690469158       -0.1440984666        5.8886430784  W2        863             0.0000000000
      2589       863  TIP3      H2              8.8169369158       -1.5300584666        6.3013930784  W2        863             0.0000000000
      2590       864  TIP3      OH2            -4.0746830842        5.7592815334        4.6059830784  W2        864             0.0000000000
      2591       864  TIP3      H1             -3.8585530842        5.3978415334        5.4655630784  W2        864             0.0000000000
      2592       864  TIP3      H2             -4.9302130842        5.3846615334        4.3963330784  W2        864             0.0000000000
      2593       865  TIP3      OH2            -1.4558830842       -5.7706684666        0.6014030784  W2        865             0.0000000000
      2594       865  TIP3      H1             -2.3175130842       -5.8578484666        0.1936930784  W2        865             0.0000000000
      2595       865  TIP3      H2             -1.4783130842       -4.9146584666        1.0291630784  W2        865             0.0000000000
      2596       866  TIP3      OH2             3.2068969158       -6.0486284666        3.9761030784  W2        866             0.0000000000
      2597       866  TIP3      H1              3.6272069158       -6.4639184666        4.7291630784  W2        866             0.0000000000
      2598       866  TIP3      H2              2.2738569158       -6.2272984666        4.0933030784  W2        866             0.0000000000
      2599       867  TIP3      OH2             6.5333869158       -2.2931084666        4.8295530784  W2        867             0.0000000000
      2600       867  TIP3      H1              6.0193369158       -2.4188884666        5.6271530784  W2        867             0.0000000000
      2601       867  TIP3      H2              6.3778569158       -1.3807984666        4.5851730784  W2        867             0.0000000000
      2602       868  TIP3      OH2             7.2958769158        2.5678915334       -9.4091469216  W2        868             0.0000000000
      2603       868  TIP3      H1              7.3379569158        2.3452815334      -10.3391469216  W2        868             0.0000000000
      2604       868  TIP3      H2              8.1450869158        2.9666015334       -9.2191569216  W2        868             0.0000000000
      2605       869  TIP3      OH2             2.8686269158       -3.5562884666       -8.7388169216  W2        869             0.0000000000
      2606       869  TIP3      H1              2.6151069158       -3.5371284666       -7.8160069216  W2        869             0.0000000000
      2607       869  TIP3      H2              2.6118369158       -4.4277484666       -9.0401969216  W2        869             0.0000000000
      2608       870  TIP3      OH2            -1.3648730842       -0.8052184666        1.6964230784  W2        870             0.0000000000
      2609       870  TIP3      H1             -2.0066630842       -0.8454884666        2.4054330784  W2        870             0.0000000000
      2610       870  TIP3      H2             -1.3276730842        0.1212515334        1.4587230784  W2        870             0.0000000000
      2611       871  TIP3      OH2            -1.3679630842       -0.5842084666       -3.3915769216  W2        871             0.0000000000
      2612       871  TIP3      H1             -2.2606730842       -0.9245984666       -3.4501969216  W2        871             0.0000000000
      2613       871  TIP3      H2             -0.9173030842       -0.9611184666       -4.1472569216  W2        871             0.0000000000
      2614       872  TIP3      OH2             4.1675869158       -0.1681784666       -4.5744969216  W2        872             0.0000000000
      2615       872  TIP3      H1              3.7586169158        0.6466815334       -4.8660169216  W2        872             0.0000000000
      2616       872  TIP3      H2              4.8882069158       -0.3081684666       -5.1887869216  W2        872             0.0000000000
      2617       873  TIP3      OH2             3.2697469158        0.0074615334        6.9135730784  W2        873             0.0000000000
      2618       873  TIP3      H1              2.7071269158       -0.6973784666        7.2343530784  W2        873             0.0000000000
      2619       873  TIP3      H2              4.0960869158       -0.1133484666        7.3813330784  W2        873             0.0000000000
      2620       874  TIP3      OH2             5.1723569158       -0.7221384666       -1.7605269216  W2        874             0.0000000000
      2621       874  TIP3      H1              4.9768069158       -0.1164584666       -2.4754669216  W2        874             0.0000000000
      2622       874  TIP3      H2              5.3536169158       -1.5556184666       -2.1948969216  W2        874             0.0000000000
      2623       875  TIP3      OH2            -3.6148230842       -0.4848684666        3.5636230784  W2        875             0.0000000000
      2624       875  TIP3      H1             -3.6528830842       -0.0847084666        4.4323330784  W2        875             0.0000000000
      2625       875  TIP3      H2             -4.1057130842       -1.3016284666        3.6539130784  W2        875             0.0000000000
      2626       876  TIP3      OH2            -0.2490830842       -3.1106384666       -9.6377769216  W2        876             0.0000000000
      2627       876  TIP3      H1             -0.6800130842       -3.5556284666       -8.9080369216  W2        876             0.0000000000
      2628       876  TIP3      H2             -0.9672130842       -2.7390084666      -10.1500269216  W2        876             0.0000000000
      2629       877  TIP3      OH2            -7.0067430842       -3.3686884666       -2.5859069216  W2        877             0.0000000000
      2630       877  TIP3      H1             -6.3759730842       -3.3974784666       -1.8665169216  W2        877             0.0000000000
      2631       877  TIP3      H2             -6.5573130842       -3.7938184666       -3.3163169216  W2        877             0.0000000000
      2632       878  TIP3      OH2            -5.7325330842       -2.6224884666       -7.1618669216  W2        878             0.0000000000
      2633       878  TIP3      H1             -5.2583630842       -2.0314984666       -7.7467769216  W2        878             0.0000000000
      2634       878  TIP3      H2             -6.4498930842       -2.0921984666       -6.8148569216  W2        878             0.0000000000
      2635       879  TIP3      OH2             4.4362769158        0.9159915334        2.9107130784  W2        879             0.0000000000
      2636       879  TIP3      H1              4.7597569158        0.2849615334        2.2677630784  W2        879             0.0000000000
      2637       879  TIP3      H2              3.9962069158        0.3812115334        3.5714530784  W2        879             0.0000000000
      2638       880  TIP3      OH2             1.2135669158       -3.1564584666       -2.3051669216  W2        880             0.0000000000
      2639       880  TIP3      H1              0.3026769158       -3.0997784666       -2.0165669216  W2        880             0.0000000000
      2640       880  TIP3      H2              1.7188569158       -3.2169084666       -1.4944469216  W2        880             0.0000000000
      2641       881  TIP3      OH2            -3.9580930842       -1.5278284666       -3.4784069216  W2        881             0.0000000000
      2642       881  TIP3      H1             -4.8472930842       -1.4282784666       -3.8184469216  W2        881             0.0000000000
      2643       881  TIP3      H2             -3.6616030842       -2.3695284666       -3.8246169216  W2        881             0.0000000000
      2644       882  TIP3      OH2            -0.3049130842       -1.5275684666       -5.8219469216  W2        882             0.0000000000
      2645       882  TIP3      H1              0.6266369158       -1.3985684666       -5.6436369216  W2        882             0.0000000000
      2646       882  TIP3      H2             -0.5198830842       -0.8581384666       -6.4714769216  W2        882             0.0000000000
      2647       883  TIP3      OH2             5.6187569158       -3.9218284666        0.9590130784  W2        883             0.0000000000
      2648       883  TIP3      H1              4.9419169158       -3.7905184666        1.6229830784  W2        883             0.0000000000
      2649       883  TIP3      H2              5.1332469158       -4.0768784666        0.1487830784  W2        883             0.0000000000
      2650       884  TIP3      OH2            -1.6308930842       -0.3333484666       -8.2553369216  W2        884             0.0000000000
      2651       884  TIP3      H1             -2.1733830842       -0.7129684666       -8.9465769216  W2        884             0.0000000000
      2652       884  TIP3      H2             -0.7974030842       -0.1388784666       -8.6839269216  W2        884             0.0000000000
      2653       885  TIP3      OH2             8.9062669158       11.7497115334        7.2357730784  W2        885             0.0000000000
      2654       885  TIP3      H1              9.1061369158       12.1739015334        6.4013030784  W2        885             0.0000000000
      2655       885  TIP3      H2              9.5616369158       12.0935315334        7.8428130784  W2        885             0.0000000000
      2656       886  TIP3      OH2            -3.4957530842        4.2238415334        6.8438230784  W2        886             0.0000000000
      2657       886  TIP3      H1             -2.7635130842        4.4784315334        7.4052730784  W2        886             0.0000000000
      2658       886  TIP3      H2             -4.2758830842        4.4283815334        7.3593630784  W2        886             0.0000000000
      2659       887  TIP3      OH2             2.5335369158       -0.3691584666       -0.4182069216  W2        887             0.0000000000
      2660       887  TIP3      H1              3.0978769158       -0.9154984666       -0.9652469216  W2        887             0.0000000000
      2661       887  TIP3      H2              2.3858769158       -0.8909684666        0.3705530784  W2        887             0.0000000000
      2662       888  TIP3      OH2            -2.4644930842       -4.2325484666       -3.9997269216  W2        888             0.0000000000
      2663       888  TIP3      H1             -2.7815430842       -5.1350184666       -4.0351869216  W2        888             0.0000000000
      2664       888  TIP3      H2             -1.6830830842       -4.2308084666       -4.5525669216  W2        888             0.0000000000
      2665       889  TIP3      OH2             1.1601269158       -1.9805484666        1.9958330784  W2        889             0.0000000000
      2666       889  TIP3      H1              0.3246569158       -1.5265984666        2.1060730784  W2        889             0.0000000000
      2667       889  TIP3      H2              1.6841869158       -1.7046984666        2.7478230784  W2        889             0.0000000000
      2668       890  TIP3      OH2             1.7043869158        4.2322215334       -6.3195269216  W2        890             0.0000000000
      2669       890  TIP3      H1              0.9594869158        3.7247515334       -6.6417369216  W2        890             0.0000000000
      2670       890  TIP3      H2              1.5701069158        4.2810215334       -5.3730469216  W2        890             0.0000000000
      2671       891  TIP3      OH2             8.8542769158        3.3650415334        2.4672330784  W2        891             0.0000000000
      2672       891  TIP3      H1              9.4961569158        3.8216715334        1.9234530784  W2        891             0.0000000000
      2673       891  TIP3      H2              8.0239669158        3.4782815334        2.0046430784  W2        891             0.0000000000
      2674       892  TIP3      OH2             5.6020669158       -2.9537884666       -8.1202669216  W2        892             0.0000000000
      2675       892  TIP3      H1              4.6634869158       -2.8422284666       -8.2713869216  W2        892             0.0000000000
      2676       892  TIP3      H2              5.8992769158       -2.0970984666       -7.8136969216  W2        892             0.0000000000
      2677       893  TIP3      OH2             3.2235969158        4.4165515334        4.9173830784  W2        893             0.0000000000
      2678       893  TIP3      H1              2.8782069158        4.0347915334        5.7243430784  W2        893             0.0000000000
      2679       893  TIP3      H2              3.0236069158        5.3499115334        4.9886730784  W2        893             0.0000000000
      2680       894  TIP3      OH2             6.3204169158       -1.0865184666       -6.4595269216  W2        894             0.0000000000
      2681       894  TIP3      H1              7.2123169158       -1.2240184666       -6.1404069216  W2        894             0.0000000000
      2682       894  TIP3      H2              6.3767769158       -0.2959084666       -6.9961769216  W2        894             0.0000000000
      2683       895  TIP3      OH2            -3.1707830842        3.5272215334       -0.5497369216  W2        895             0.0000000000
      2684       895  TIP3      H1             -2.4260630842        3.5247915334       -1.1510869216  W2        895             0.0000000000
      2685       895  TIP3      H2             -3.0931230842        2.7036015334       -0.0682269216  W2        895             0.0000000000
      2686       896  TIP3      OH2             3.8297969158        5.6906515334       -7.2940669216  W2        896             0.0000000000
      2687       896  TIP3      H1              3.5346369158        6.5174415334       -6.9125869216  W2        896             0.0000000000
      2688       896  TIP3      H2              3.1267969158        5.0713415334       -7.0979269216  W2        896             0.0000000000
      2689       897  TIP3      OH2            -6.1628130842        1.9879115334        4.7651130784  W2        897             0.0000000000
      2690       897  TIP3      H1             -5.9399530842        1.5698715334        5.5968630784  W2        897             0.0000000000
      2691       897  TIP3      H2             -6.7648030842        1.3754115334        4.3423930784  W2        897             0.0000000000
      2692       898  TIP3      OH2             0.8536769158        1.5049015334        6.9780830784  W2        898             0.0000000000
      2693       898  TIP3      H1              0.5577569158        1.3392015334        6.0829930784  W2        898             0.0000000000
      2694       898  TIP3      H2              1.7851969158        1.2849315334        6.9674730784  W2        898             0.0000000000
      2695       899  TIP3      OH2             5.4739569158        6.8781015334        4.8678830784  W2        899             0.0000000000
      2696       899  TIP3      H1              4.5733869158        7.0613615334        4.6002730784  W2        899             0.0000000000
      2697       899  TIP3      H2              5.5080669158        7.1370315334        5.7887630784  W2        899             0.0000000000
      2698       900  TIP3      OH2            11.2052869158       -0.8771084666       -6.7648569216  W2        900             0.0000000000
      2699       900  TIP3      H1             10.6509169158       -1.2733084666       -7.4371069216  W2        900             0.0000000000
      2700       900  TIP3      H2             11.3056469158        0.0334115334       -7.0425269216  W2        900             0.0000000000
      2701       901  TIP3      OH2            11.1684869158        4.9230615334        6.0722930784  W2        901             0.0000000000
      2702       901  TIP3      H1             10.3173369158        5.1614415334        5.7049330784  W2        901             0.0000000000
      2703       901  TIP3      H2             11.7588269158        4.9063815334        5.3190030784  W2        901             0.0000000000
      2704       902  TIP3      OH2             9.5004569158        7.9089315334       -6.2996469216  W2        902             0.0000000000
      2705       902  TIP3      H1              9.1275669158        7.0833115334       -5.9905869216  W2        902             0.0000000000
      2706       902  TIP3      H2              9.7778069158        7.7258715334       -7.1973069216  W2        902             0.0000000000
      2707       903  TIP3      OH2             6.6608469158        2.7168815334        0.7215430784  W2        903             0.0000000000
      2708       903  TIP3      H1              5.7325369158        2.4850715334        0.6944730784  W2        903             0.0000000000
      2709       903  TIP3      H2              7.1119569158        1.9398615334        0.3914230784  W2        903             0.0000000000
      2710       904  TIP3      OH2            -0.7958430842        7.0450415334       -3.1455869216  W2        904             0.0000000000
      2711       904  TIP3      H1             -0.2686230842        7.8184815334       -3.3457069216  W2        904             0.0000000000
      2712       904  TIP3      H2             -1.6759930842        7.2699615334       -3.4471869216  W2        904             0.0000000000
      2713       905  TIP3      OH2            -5.0410730842        1.9074515334       -8.5583469216  W2        905             0.0000000000
      2714       905  TIP3      H1             -4.4250830842        2.5341715334       -8.1788669216  W2        905             0.0000000000
      2715       905  TIP3      H2             -5.9028130842        2.2234315334       -8.2866969216  W2        905             0.0000000000
      2716       906  TIP3      OH2             0.6313869158        4.7080315334       -3.5691569216  W2        906             0.0000000000
      2717       906  TIP3      H1              0.3903869158        5.6334715334       -3.5276269216  W2        906             0.0000000000
      2718       906  TIP3      H2             -0.1092530842        4.2491615334       -3.1727669216  W2        906             0.0000000000
      2719       907  TIP3      OH2             1.1460469158        8.8573915334        2.7459530784  W2        907             0.0000000000
      2720       907  TIP3      H1              1.5085169158        9.7119515334        2.5123930784  W2        907             0.0000000000
      2721       907  TIP3      H2              1.6775669158        8.5655515334        3.4865830784  W2        907             0.0000000000
      2722       908  TIP3      OH2            -0.6855330842        9.7297915334       -4.0239369216  W2        908             0.0000000000
      2723       908  TIP3      H1             -1.6354830842        9.8355315334       -3.9726069216  W2        908             0.0000000000
      2724       908  TIP3      H2             -0.3337230842       10.5505315334       -3.6791869216  W2        908             0.0000000000
      2725       909  TIP3      OH2             4.6901269158        4.9564615334        2.4465130784  W2        909             0.0000000000
      2726       909  TIP3      H1              4.2642569158        4.7286315334        3.2729130784  W2        909             0.0000000000
      2727       909  TIP3      H2              5.2707069158        4.2176415334        2.2640430784  W2        909             0.0000000000
      2728       910  TIP3      OH2             6.8930169158        5.8855115334       -8.4795869216  W2        910             0.0000000000
      2729       910  TIP3      H1              7.2463269158        5.5054915334       -7.6752369216  W2        910             0.0000000000
      2730       910  TIP3      H2              5.9443669158        5.7919915334       -8.3926569216  W2        910             0.0000000000
      2731       911  TIP3      OH2             7.3485469158        9.5084115334        4.9159930784  W2        911             0.0000000000
      2732       911  TIP3      H1              6.7468669158        8.9527015334        4.4206230784  W2        911             0.0000000000
      2733       911  TIP3      H2              7.6299169158       10.1753915334        4.2897330784  W2        911             0.0000000000
      2734       912  TIP3      OH2            11.3964569158       10.3647615334       -8.2785669216  W2        912             0.0000000000
      2735       912  TIP3      H1             12.1402469158       10.9508115334       -8.4184069216  W2        912             0.0000000000
      2736       912  TIP3      H2             10.7022669158       10.9333415334       -7.9453269216  W2        912             0.0000000000
      2737       913  TIP3      OH2            -4.5288630842       -3.2588184666        4.3232530784  W2        913             0.0000000000
      2738       913  TIP3      H1             -5.4216330842       -2.9202784666        4.2556530784  W2        913             0.0000000000
      2739       913  TIP3      H2             -4.6275830842       -4.1142084666        4.7413330784  W2        913             0.0000000000
      2740       914  TIP3      OH2             7.7589469158        4.5577115334       -6.2527969216  W2        914             0.0000000000
      2741       914  TIP3      H1              7.4817069158        3.8296415334       -5.6966869216  W2        914             0.0000000000
      2742       914  TIP3      H2              8.6862469158        4.6769115334       -6.0475369216  W2        914             0.0000000000
      2743       915  TIP3      OH2            -4.8776630842        8.5456215334        2.7581930784  W2        915             0.0000000000
      2744       915  TIP3      H1             -4.6606330842        7.6138615334        2.7271630784  W2        915             0.0000000000
      2745       915  TIP3      H2             -4.6313130842        8.8201215334        3.6414730784  W2        915             0.0000000000
      2746       916  TIP3      OH2             0.9837969158        6.9971215334      -10.0325869216  W2        916             0.0000000000
      2747       916  TIP3      H1              1.2227769158        6.2489315334      -10.5796969216  W2        916             0.0000000000
      2748       916  TIP3      H2              0.7149269158        6.6092915334       -9.1998069216  W2        916             0.0000000000
      2749       917  TIP3      OH2            -0.0791430842        6.5675015334       -7.5763269216  W2        917             0.0000000000
      2750       917  TIP3      H1              0.0676569158        6.0474815334       -6.7862369216  W2        917             0.0000000000
      2751       917  TIP3      H2             -0.0819730842        7.4742615334       -7.2697369216  W2        917             0.0000000000
      2752       918  TIP3      OH2            -3.6260330842        3.8198315334       -7.0657869216  W2        918             0.0000000000
      2753       918  TIP3      H1             -4.3121030842        4.1720815334       -6.4988169216  W2        918             0.0000000000
      2754       918  TIP3      H2             -3.1032430842        4.5827915334       -7.3123569216  W2        918             0.0000000000
      2755       919  TIP3      OH2             4.2054769158       -3.5177884666        3.2131130784  W2        919             0.0000000000
      2756       919  TIP3      H1              4.9042669158       -3.4439184666        3.8630830784  W2        919             0.0000000000
      2757       919  TIP3      H2              3.8246169158       -4.3822884666        3.3674030784  W2        919             0.0000000000
      2758       920  TIP3      OH2             4.9899669158       -3.8656184666       -5.6896569216  W2        920             0.0000000000
      2759       920  TIP3      H1              5.2097969158       -3.3940784666       -6.4931169216  W2        920             0.0000000000
      2760       920  TIP3      H2              5.5483669158       -3.4713584666       -5.0195969216  W2        920             0.0000000000
      2761       921  TIP3      OH2             2.6585769158        8.2648615334       -6.8269069216  W2        921             0.0000000000
      2762       921  TIP3      H1              1.8421869158        8.7618315334       -6.7744769216  W2        921             0.0000000000
      2763       921  TIP3      H2              3.1882069158        8.7402115334       -7.4670269216  W2        921             0.0000000000
      2764       922  TIP3      OH2             2.1899569158       -2.1377384666       -4.8548169216  W2        922             0.0000000000
      2765       922  TIP3      H1              3.0022169158       -1.6334184666       -4.8086469216  W2        922             0.0000000000
      2766       922  TIP3      H2              1.9452569158       -2.2827684666       -3.9408569216  W2        922             0.0000000000
      2767       923  TIP3      OH2             2.7255969158       -1.1514684666        4.3298430784  W2        923             0.0000000000
      2768       923  TIP3      H1              2.8446269158       -0.5779284666        5.0868830784  W2        923             0.0000000000
      2769       923  TIP3      H2              3.3810569158       -1.8395284666        4.4446230784  W2        923             0.0000000000
      2770       924  TIP3      OH2             3.0736269158       -5.0564384666       -3.9167069216  W2        924             0.0000000000
      2771       924  TIP3      H1              2.7269769158       -4.4393784666       -3.2722769216  W2        924             0.0000000000
      2772       924  TIP3      H2              3.7323169158       -4.5558684666       -4.3981569216  W2        924             0.0000000000
      2773       925  TIP3      OH2            -0.0031130842        9.3085815334       -6.8452169216  W2        925             0.0000000000
      2774       925  TIP3      H1              0.1577569158       10.1083315334       -7.3459569216  W2        925             0.0000000000
      2775       925  TIP3      H2             -0.2003330842        9.6151815334       -5.9601569216  W2        925             0.0000000000
      2776       926  TIP3      OH2            -1.2686730842       -3.9934984666       -7.2294569216  W2        926             0.0000000000
      2777       926  TIP3      H1             -1.3521930842       -3.1051884666       -6.8828169216  W2        926             0.0000000000
      2778       926  TIP3      H2             -0.3786430842       -4.2588284666       -6.9977769216  W2        926             0.0000000000
      2779       927  TIP3      OH2             8.9301769158       -3.2444384666        5.1648130784  W2        927             0.0000000000
      2780       927  TIP3      H1              8.0137569158       -2.9822684666        5.0771830784  W2        927             0.0000000000
      2781       927  TIP3      H2              9.2656769158       -3.2475384666        4.2683430784  W2        927             0.0000000000
      2782       928  TIP3      OH2             7.5322769158        0.5056615334       -0.7394569216  W2        928             0.0000000000
      2783       928  TIP3      H1              6.7347169158        0.0906815334       -1.0679569216  W2        928             0.0000000000
      2784       928  TIP3      H2              7.9773869158       -0.1849684666       -0.2484069216  W2        928             0.0000000000
      2785       929  TIP3      OH2            -3.0101430842        6.4337215334       -8.1690069216  W2        929             0.0000000000
      2786       929  TIP3      H1             -2.4179930842        7.1332015334       -7.8927669216  W2        929             0.0000000000
      2787       929  TIP3      H2             -2.5508430842        6.0006715334       -8.8885469216  W2        929             0.0000000000
      2788       930  TIP3      OH2            -4.6942230842       -0.9019784666       -9.0530669216  W2        930             0.0000000000
      2789       930  TIP3      H1             -4.7389630842        0.0373315334       -8.8743669216  W2        930             0.0000000000
      2790       930  TIP3      H2             -5.5819030842       -1.1374884666       -9.3228569216  W2        930             0.0000000000
      2791       931  TIP3      OH2             8.6187369158        9.7619115334        0.8828930784  W2        931             0.0000000000
      2792       931  TIP3      H1              8.4631669158       10.4403515334        0.2258230784  W2        931             0.0000000000
      2793       931  TIP3      H2              9.5513769158        9.8338415334        1.0859530784  W2        931             0.0000000000
      2794       932  TIP3      OH2            -3.8860230842       -6.1203184666       -0.3799669216  W2        932             0.0000000000
      2795       932  TIP3      H1             -4.1150430842       -6.0610684666       -1.3074669216  W2        932             0.0000000000
      2796       932  TIP3      H2             -4.3286830842       -6.9117684666       -0.0735569216  W2        932             0.0000000000
      2797       933  TIP3      OH2            -4.9556930842        7.8203915334       -4.2193869216  W2        933             0.0000000000
      2798       933  TIP3      H1             -5.7878330842        8.2926615334       -4.1922469216  W2        933             0.0000000000
      2799       933  TIP3      H2             -4.4098630842        8.3301515334       -4.8180769216  W2        933             0.0000000000
      2800       934  TIP3      OH2            -5.6673230842       10.4327615334        7.1104130784  W2        934             0.0000000000
      2801       934  TIP3      H1             -5.1271030842       10.2161615334        7.8703330784  W2        934             0.0000000000
      2802       934  TIP3      H2             -6.1485230842        9.6273615334        6.9206630784  W2        934             0.0000000000
      2803       935  TIP3      OH2            -1.0699830842        9.3522015334        8.7308330784  W2        935             0.0000000000
      2804       935  TIP3      H1             -0.3022630842        8.8932815334        9.0717530784  W2        935             0.0000000000
      2805       935  TIP3      H2             -1.0913630842        9.1261815334        7.8009530784  W2        935             0.0000000000
      2806       936  TIP3      OH2             3.0219769158        8.8602615334       -9.8939869216  W2        936             0.0000000000
      2807       936  TIP3      H1              2.3780769158        8.2291215334       -9.5726169216  W2        936             0.0000000000
      2808       936  TIP3      H2              3.7838069158        8.3290615334      -10.1256369216  W2        936             0.0000000000
      2809       937  TIP3      OH2             5.5068869158        7.7323115334        7.4599830784  W2        937             0.0000000000
      2810       937  TIP3      H1              5.1558369158        6.8756115334        7.7030230784  W2        937             0.0000000000
      2811       937  TIP3      H2              6.2332069158        7.8749815334        8.0668830784  W2        937             0.0000000000
      2812       938  TIP3      OH2             7.6262669158        8.6772515334       -9.6601869216  W2        938             0.0000000000
      2813       938  TIP3      H1              7.9093069158        7.8827715334       -9.2074969216  W2        938             0.0000000000
      2814       938  TIP3      H2              8.3660569158        8.9103515334      -10.2210769216  W2        938             0.0000000000
      2815       939  TIP3      OH2            -5.7603730842        4.2431715334        8.0648430784  W2        939             0.0000000000
      2816       939  TIP3      H1             -5.6163230842        3.3412415334        7.7785130784  W2        939             0.0000000000
      2817       939  TIP3      H2             -6.5326330842        4.5293815334        7.5770730784  W2        939             0.0000000000
      2818       940  TIP3      OH2            -1.4190030842        4.5867415334       -9.8026969216  W2        940             0.0000000000
      2819       940  TIP3      H1             -1.3545930842        3.7927015334       -9.2720569216  W2        940             0.0000000000
      2820       940  TIP3      H2             -0.7660830842        4.4680215334      -10.4924969216  W2        940             0.0000000000
      2821       941  TIP3      OH2             0.8952369158        4.2129815334        7.4974830784  W2        941             0.0000000000
      2822       941  TIP3      H1              0.5666169158        4.4837915334        6.6402230784  W2        941             0.0000000000
      2823       941  TIP3      H2              1.0470569158        3.2719615334        7.4099830784  W2        941             0.0000000000
      2824       942  TIP3      OH2             3.9333369158        5.6339115334      -10.0668969216  W2        942             0.0000000000
      2825       942  TIP3      H1              3.6647469158        5.8141215334       -9.1660069216  W2        942             0.0000000000
      2826       942  TIP3      H2              3.7268969158        4.7085315334      -10.1983169216  W2        942             0.0000000000
      2827       943  TIP3      OH2             6.6297569158        4.1287115334        4.8807130784  W2        943             0.0000000000
      2828       943  TIP3      H1              7.3752369158        4.7170815334        4.7611130784  W2        943             0.0000000000
      2829       943  TIP3      H2              5.8724369158        4.7106815334        4.9440230784  W2        943             0.0000000000
      2830       944  TIP3      OH2            -4.9277230842        1.4435015334        7.4847730784  W2        944             0.0000000000
      2831       944  TIP3      H1             -4.5196030842        0.5861615334        7.3638330784  W2        944             0.0000000000
      2832       944  TIP3      H2             -5.1879630842        1.4576315334        8.4058030784  W2        944             0.0000000000
      2833       945  TIP3      OH2            -0.2696230842        2.5593615334       -7.4968969216  W2        945             0.0000000000
      2834       945  TIP3      H1             -0.7294230842        2.0751915334       -6.8110469216  W2        945             0.0000000000
      2835       945  TIP3      H2             -0.0147530842        1.8909015334       -8.1328469216  W2        945             0.0000000000
      2836       946  TIP3      OH2            -0.9806930842        0.4520715334        4.8590630784  W2        946             0.0000000000
      2837       946  TIP3      H1             -1.5990830842        1.1267315334        5.1395330784  W2        946             0.0000000000
      2838       946  TIP3      H2             -0.6365730842        0.7734615334        4.0256830784  W2        946             0.0000000000
      2839       947  TIP3      OH2             0.8014169158        0.8025415334       -9.2345769216  W2        947             0.0000000000
      2840       947  TIP3      H1              0.6209169158        0.6476615334      -10.1617469216  W2        947             0.0000000000
      2841       947  TIP3      H2              1.7514669158        0.9104115334       -9.1897869216  W2        947             0.0000000000
      2842       948  TIP3      OH2             4.0391269158        2.9236015334        8.1365430784  W2        948             0.0000000000
      2843       948  TIP3      H1              4.9922469158        3.0075115334        8.1091430784  W2        948             0.0000000000
      2844       948  TIP3      H2              3.8785869158        2.2117815334        8.7560330784  W2        948             0.0000000000
      2845       949  TIP3      OH2            10.1912469158        3.1569615334       -9.7887669216  W2        949             0.0000000000
      2846       949  TIP3      H1              9.9177269158        2.7325115334      -10.6019369216  W2        949             0.0000000000
      2847       949  TIP3      H2             10.2306569158        4.0884115334      -10.0057269216  W2        949             0.0000000000
      2848       950  TIP3      OH2            -0.6413230842       -2.1928484666        5.9413730784  W2        950             0.0000000000
      2849       950  TIP3      H1             -0.4912330842       -2.9217184666        5.3393430784  W2        950             0.0000000000
      2850       950  TIP3      H2             -0.6390830842       -1.4156784666        5.3825930784  W2        950             0.0000000000
      2851       951  TIP3      OH2            -0.2287530842       -3.8232684666        3.4341130784  W2        951             0.0000000000
      2852       951  TIP3      H1              0.3069969158       -3.3715984666        2.7820430784  W2        951             0.0000000000
      2853       951  TIP3      H2             -1.0807930842       -3.9312884666        3.0115230784  W2        951             0.0000000000
      2854       952  TIP3      OH2             1.3530869158        1.6163515334        3.6736330784  W2        952             0.0000000000
      2855       952  TIP3      H1              2.1035669158        1.4601015334        3.1004130784  W2        952             0.0000000000
      2856       952  TIP3      H2              1.0139169158        2.4680115334        3.3981830784  W2        952             0.0000000000
      2857       953  TIP3      OH2             5.7687069158       -0.5684684666        8.7021630784  W2        953             0.0000000000
      2858       953  TIP3      H1              5.9608369158       -1.4995284666        8.5906130784  W2        953             0.0000000000
      2859       953  TIP3      H2              6.6263369158       -0.1435184666        8.6917030784  W2        953             0.0000000000
      2860       954  TIP3      OH2             7.0854269158        2.2200515334        6.7794330784  W2        954             0.0000000000
      2861       954  TIP3      H1              6.8039269158        2.9295115334        6.2018130784  W2        954             0.0000000000
      2862       954  TIP3      H2              8.0278569158        2.1473515334        6.6285530784  W2        954             0.0000000000
      2863       955  TIP3      OH2            -2.1626930842       -0.9944984666        7.8529330784  W2        955             0.0000000000
      2864       955  TIP3      H1             -2.9297930842       -1.5270184666        7.6426930784  W2        955             0.0000000000
      2865       955  TIP3      H2             -1.4837930842       -1.3044584666        7.2535630784  W2        955             0.0000000000
      2866       956  TIP3      OH2             0.5767969158       -6.3666984666        3.8654730784  W2        956             0.0000000000
      2867       956  TIP3      H1              0.4787569158       -5.4203784666        3.7600930784  W2        956             0.0000000000
      2868       956  TIP3      H2             -0.1655830842       -6.7393184666        3.3898230784  W2        956             0.0000000000
      2869       957  TIP3      OH2             1.8408469158       -2.0451584666        7.4293130784  W2        957             0.0000000000
      2870       957  TIP3      H1              1.6053869158       -2.2644884666        8.3308030784  W2        957             0.0000000000
      2871       957  TIP3      H2              1.0575369158       -2.2520384666        6.9195630784  W2        957             0.0000000000
      2872       958  TIP3      OH2             4.5565069158       -2.9178084666        6.5046630784  W2        958             0.0000000000
      2873       958  TIP3      H1              3.6090469158       -2.8858384666        6.6369930784  W2        958             0.0000000000
      2874       958  TIP3      H2              4.8691769158       -3.5430984666        7.1584830784  W2        958             0.0000000000
      2875       959  TIP3      OH2             6.1906569158       -4.2836984666        8.5098530784  W2        959             0.0000000000
      2876       959  TIP3      H1              6.0938369158       -5.2359684666        8.5040430784  W2        959             0.0000000000
      2877       959  TIP3      H2              5.8689669158       -4.0150184666        9.3704030784  W2        959             0.0000000000
      2878       960  TIP3      OH2            -3.9824130842       -3.0741184666        7.5574030784  W2        960             0.0000000000
      2879       960  TIP3      H1             -3.7706730842       -3.7805084666        6.9471530784  W2        960             0.0000000000
      2880       960  TIP3      H2             -4.0936630842       -3.5115184666        8.4015230784  W2        960             0.0000000000
      2881       961  TIP3      OH2             0.7986069158       -7.0729584666        6.5367530784  W2        961             0.0000000000
      2882       961  TIP3      H1              1.5104469158       -7.7127384666        6.5226630784  W2        961             0.0000000000
      2883       961  TIP3      H2              0.6976469158       -6.8061284666        5.6230630784  W2        961             0.0000000000
      2884       962  TIP3      OH2             1.1523569158       -5.3901184666        8.5903830784  W2        962             0.0000000000
      2885       962  TIP3      H1              1.0205769158       -5.8657384666        7.7702330784  W2        962             0.0000000000
      2886       962  TIP3      H2              0.5530969158       -4.6457584666        8.5350930784  W2        962             0.0000000000
      2887       963  TIP3      OH2             0.6985869158       11.4929115334       -8.2332169216  W2        963             0.0000000000
      2888       963  TIP3      H1              1.6316569158       11.6507815334       -8.0893769216  W2        963             0.0000000000
      2889       963  TIP3      H2              0.4344669158       12.1682115334       -8.8580669216  W2        963             0.0000000000
      2890       964  TIP3      OH2            -5.7329230842        6.1292915334       -8.7504069216  W2        964             0.0000000000
      2891       964  TIP3      H1             -4.8190030842        6.2081815334       -8.4770169216  W2        964             0.0000000000
      2892       964  TIP3      H2             -5.7256130842        5.4422515334       -9.4168469216  W2        964             0.0000000000
      2893       965  TIP3      OH2            -7.0838630842       11.5221415334       -3.6730169216  W2        965             0.0000000000
      2894       965  TIP3      H1             -7.7311530842       11.0603115334       -4.2058969216  W2        965             0.0000000000
      2895       965  TIP3      H2             -6.7294030842       10.8504715334       -3.0903969216  W2        965             0.0000000000
      2896       966  TIP3      OH2            -6.2139430842        9.6028415334       -1.8683969216  W2        966             0.0000000000
      2897       966  TIP3      H1             -6.5482630842        8.7225715334       -1.6963769216  W2        966             0.0000000000
      2898       966  TIP3      H2             -5.9917030842        9.9483415334       -1.0038369216  W2        966             0.0000000000
      2899       967  TIP3      OH2            11.3345369158       10.4124815334        1.1120830784  W2        967             0.0000000000
      2900       967  TIP3      H1             11.3132069158       10.5973215334        2.0510230784  W2        967             0.0000000000
      2901       967  TIP3      H2             12.0251569158       10.9808815334        0.7712230784  W2        967             0.0000000000
      2902       968  TIP3      OH2            10.8978269158        9.9795915334        4.0339930784  W2        968             0.0000000000
      2903       968  TIP3      H1             10.4106969158        9.2440015334        3.6627330784  W2        968             0.0000000000
      2904       968  TIP3      H2             11.4470969158        9.5859815334        4.7119330784  W2        968             0.0000000000
      2905       969  TIP3      OH2             9.3485569158        5.7694015334        8.6720230784  W2        969             0.0000000000
      2906       969  TIP3      H1              8.4826669158        5.6643715334        9.0662530784  W2        969             0.0000000000
      2907       969  TIP3      H2              9.7251469158        6.5277315334        9.1184930784  W2        969             0.0000000000
      2908       970  TIP3      OH2            10.6495269158        4.0257715334       -5.8137269216  W2        970             0.0000000000
      2909       970  TIP3      H1             11.4996669158        4.4468615334       -5.6865669216  W2        970             0.0000000000
      2910       970  TIP3      H2             10.6550369158        3.2857815334       -5.2065869216  W2        970             0.0000000000
      2911       971  TIP3      OH2            11.0440869158        2.0795115334       -3.9901569216  W2        971             0.0000000000
      2912       971  TIP3      H1             10.3175469158        1.5997715334       -3.5923969216  W2        971             0.0000000000
      2913       971  TIP3      H2             11.6254169158        2.2849815334       -3.2579969216  W2        971             0.0000000000
      2914       972  TIP3      OH2            10.8032069158        4.8642615334        0.9576030784  W2        972             0.0000000000
      2915       972  TIP3      H1             11.6366269158        4.4862615334        0.6769630784  W2        972             0.0000000000
      2916       972  TIP3      H2             10.9152369158        5.8073815334        0.8385130784  W2        972             0.0000000000
      2917       973  TIP3      OH2             9.2894369158        7.7420115334        3.2644430784  W2        973             0.0000000000
      2918       973  TIP3      H1              8.6419669158        8.0671615334        3.8899630784  W2        973             0.0000000000
      2919       973  TIP3      H2              8.7718369158        7.3017815334        2.5902730784  W2        973             0.0000000000
      2920       974  TIP3      OH2            11.3123969158        1.9803615334       -7.5990269216  W2        974             0.0000000000
      2921       974  TIP3      H1             10.7905069158        2.3367715334       -8.3179369216  W2        974             0.0000000000
      2922       974  TIP3      H2             11.2793169158        2.6551415334       -6.9209369216  W2        974             0.0000000000
      2923       975  TIP3      OH2             9.6612969158       -0.7800784666       -9.0483169216  W2        975             0.0000000000
      2924       975  TIP3      H1              9.7577369158       -0.1133784666       -9.7283469216  W2        975             0.0000000000
      2925       975  TIP3      H2              9.5212569158       -1.5954484666       -9.5297669216  W2        975             0.0000000000
      2926       976  TIP3      OH2             8.8307669158        0.6001615334       -3.4272869216  W2        976             0.0000000000
      2927       976  TIP3      H1              8.6806469158       -0.3449784666       -3.4475069216  W2        976             0.0000000000
      2928       976  TIP3      H2              8.4772169158        0.8813015334       -2.5833769216  W2        976             0.0000000000
      2929       977  TIP3      OH2            -6.1339930842        2.6783815334        0.5830930784  W2        977             0.0000000000
      2930       977  TIP3      H1             -5.9497030842        2.5965515334       -0.3526169216  W2        977             0.0000000000
      2931       977  TIP3      H2             -5.2847030842        2.5540815334        1.0067330784  W2        977             0.0000000000
      2932       978  TIP3      OH2             9.6870569158        2.5704915334        6.2115430784  W2        978             0.0000000000
      2933       978  TIP3      H1             10.2697869158        1.8357215334        6.4032630784  W2        978             0.0000000000
      2934       978  TIP3      H2             10.2509869158        3.3425215334        6.2581230784  W2        978             0.0000000000
      2935       979  TIP3      OH2            11.1837669158        0.4730715334        6.8960830784  W2        979             0.0000000000
      2936       979  TIP3      H1             10.3204369158        0.0942815334        6.7305530784  W2        979             0.0000000000
      2937       979  TIP3      H2             11.7881369158       -0.2654484666        6.8216630784  W2        979             0.0000000000
      2938       980  TIP3      OH2             8.9086769158       -3.3720984666       -9.9307669216  W2        980             0.0000000000
      2939       980  TIP3      H1              9.5192569158       -3.7434184666       -9.2939469216  W2        980             0.0000000000
      2940       980  TIP3      H2              8.0718269158       -3.7934084666       -9.7347669216  W2        980             0.0000000000
      2941       981  TIP3      OH2             8.5412469158       -1.8172584666       -4.9647769216  W2        981             0.0000000000
      2942       981  TIP3      H1              8.8209569158       -2.7242184666       -4.8406069216  W2        981             0.0000000000
      2943       981  TIP3      H2              9.3004169158       -1.3831084666       -5.3538569216  W2        981             0.0000000000
      2944       982  TIP3      OH2             9.1530769158       -1.2355184666        0.4711130784  W2        982             0.0000000000
      2945       982  TIP3      H1             10.0858769158       -1.0235284666        0.4367130784  W2        982             0.0000000000
      2946       982  TIP3      H2              8.9178269158       -1.1343084666        1.3934130784  W2        982             0.0000000000
      2947       983  TIP3      OH2             9.1822669158       -0.4989884666        3.2470530784  W2        983             0.0000000000
      2948       983  TIP3      H1              8.3393969158       -0.2309484666        3.6130330784  W2        983             0.0000000000
      2949       983  TIP3      H2              9.6246969158        0.3232015334        3.0361630784  W2        983             0.0000000000
      2950       984  TIP3      OH2            -6.5365130842       -2.0511184666        6.7239730784  W2        984             0.0000000000
      2951       984  TIP3      H1             -5.6170230842       -2.1732884666        6.9602830784  W2        984             0.0000000000
      2952       984  TIP3      H2             -6.9860630842       -2.8011484666        7.1133230784  W2        984             0.0000000000
      2953       985  TIP3      OH2            11.4654269158       -6.5189684666        8.6005530784  W2        985             0.0000000000
      2954       985  TIP3      H1             11.8151269158       -7.1726184666        7.9950230784  W2        985             0.0000000000
      2955       985  TIP3      H2             11.6123769158       -5.6815584666        8.1608130784  W2        985             0.0000000000
      2956       986  TIP3      OH2             9.1547269158       -4.5543284666       -4.9165769216  W2        986             0.0000000000
      2957       986  TIP3      H1              9.3372269158       -5.0031784666       -4.0910769216  W2        986             0.0000000000
      2958       986  TIP3      H2              8.5550169158       -5.1388884666       -5.3801169216  W2        986             0.0000000000
      2959       987  TIP3      OH2            -5.3152630842       -3.7389584666       -0.3847369216  W2        987             0.0000000000
      2960       987  TIP3      H1             -4.8701030842       -4.5307084666       -0.0827669216  W2        987             0.0000000000
      2961       987  TIP3      H2             -4.8489630842       -3.0224384666        0.0458230784  W2        987             0.0000000000
      2962       988  TIP3      OH2            -7.0112330842       -0.7396584666        0.6842830784  W2        988             0.0000000000
      2963       988  TIP3      H1             -6.5192530842       -0.9606084666       -0.1065169216  W2        988             0.0000000000
      2964       988  TIP3      H2             -6.6491430842        0.1006815334        0.9652330784  W2        988             0.0000000000
      2965       989  TIP3      OH2            10.9851469158       -4.4095084666        6.9496830784  W2        989             0.0000000000
      2966       989  TIP3      H1             10.0677169158       -4.1387984666        6.9140330784  W2        989             0.0000000000
      2967       989  TIP3      H2             11.1080869158       -4.9446684666        6.1656530784  W2        989             0.0000000000
      2968       990  TIP3      OH2            11.0213469158       -4.4865184666       -8.3885469216  W2        990             0.0000000000
      2969       990  TIP3      H1             11.4336069158       -5.2079484666       -8.8637469216  W2        990             0.0000000000
      2970       990  TIP3      H2             11.7029969158       -3.8170584666       -8.3301169216  W2        990             0.0000000000
      2971       991  TIP3      OH2            -6.6975830842       -4.4817484666       -5.2614769216  W2        991             0.0000000000
      2972       991  TIP3      H1             -7.6227430842       -4.2730884666       -5.3909269216  W2        991             0.0000000000
      2973       991  TIP3      H2             -6.2435930842       -3.9976684666       -5.9512469216  W2        991             0.0000000000
      2974       992  TIP3      OH2             8.0731369158       10.5024215334       -3.3157369216  W2        992             0.0000000000
      2975       992  TIP3      H1              8.7254269158       10.1546315334       -3.9238269216  W2        992             0.0000000000
      2976       992  TIP3      H2              8.5835169158       10.9907415334       -2.6697669216  W2        992             0.0000000000
      2977       993  TIP3      OH2            -6.7340430842       -5.7438484666        3.0827730784  W2        993             0.0000000000
      2978       993  TIP3      H1             -7.3989930842       -5.9898184666        3.7258630784  W2        993             0.0000000000
      2979       993  TIP3      H2             -7.1769130842       -5.1218084666        2.5055730784  W2        993             0.0000000000
      2980       994  TIP3      OH2            -4.5421130842        7.4315615334        7.2273530784  W2        994             0.0000000000
      2981       994  TIP3      H1             -5.3628630842        7.6062115334        6.7668230784  W2        994             0.0000000000
      2982       994  TIP3      H2             -4.7943330842        7.3580315334        8.1477930784  W2        994             0.0000000000
      2983       995  TIP3      OH2            -1.5878230842        8.4056815334        3.4857530784  W2        995             0.0000000000
      2984       995  TIP3      H1             -2.0127130842        9.2155315334        3.2032130784  W2        995             0.0000000000
      2985       995  TIP3      H2             -0.6835430842        8.4910915334        3.1837330784  W2        995             0.0000000000
      2986       996  TIP3      OH2             2.7233169158        9.8046815334        6.4451230784  W2        996             0.0000000000
      2987       996  TIP3      H1              2.9080669158        9.4712915334        7.3231530784  W2        996             0.0000000000
      2988       996  TIP3      H2              3.5697669158       10.1145415334        6.1230430784  W2        996             0.0000000000
      2989       997  TIP3      OH2             5.0683569158       11.0905715334        5.6892630784  W2        997             0.0000000000
      2990       997  TIP3      H1              5.7452469158       10.4578015334        5.4491830784  W2        997             0.0000000000
      2991       997  TIP3      H2              5.3902369158       11.4916215334        6.4965930784  W2        997             0.0000000000
      2992       998  TIP3      OH2             9.9857369158       -6.3198784666        4.7687630784  W2        998             0.0000000000
      2993       998  TIP3      H1              9.1730869158       -5.9948484666        4.3812330784  W2        998             0.0000000000
      2994       998  TIP3      H2             10.2185869158       -7.0800284666        4.2356730784  W2        998             0.0000000000
      2995       999  TIP3      OH2            -4.1861530842       11.6620715334        3.5332830784  W2        999             0.0000000000
      2996       999  TIP3      H1             -4.9065130842       12.1021715334        3.0820530784  W2        999             0.0000000000
      2997       999  TIP3      H2             -4.5517530842       11.4115415334        4.3816830784  W2        999             0.0000000000
      2998      1000  TIP3      OH2            -1.7188930842       11.2624615334        2.5630030784  W2        1000            0.0000000000
      2999      1000  TIP3      H1             -2.5836730842       11.3343115334        2.9670130784  W2        1000            0.0000000000
      3000      1000  TIP3      H2             -1.7739930842       11.8091915334        1.7792530784  W2        1000            0.0000000000
      3001      1001  TIP3      OH2             2.9916669158       11.1503515334        1.7386030784  W2        1001            0.0000000000
      3002      1001  TIP3      H1              2.5350669158       11.6793215334        1.0844430784  W2        1001            0.0000000000
      3003      1001  TIP3      H2              3.1544669158       11.7534915334        2.4638330784  W2        1001            0.0000000000
      3004      1002  TIP3      OH2             5.3192969158       10.0283115334        2.6836330784  W2        1002            0.0000000000
      3005      1002  TIP3      H1              4.4146669158       10.1933315334        2.4178430784  W2        1002            0.0000000000
      3006      1002  TIP3      H2              5.7481569158       10.8815315334        2.6179730784  W2        1002            0.0000000000
      3007      1003  TIP3      OH2             7.9234869158       11.5982215334        2.9784130784  W2        1003            0.0000000000
      3008      1003  TIP3      H1              7.7416869158       12.5141115334        2.7679030784  W2        1003            0.0000000000
      3009      1003  TIP3      H2              8.1002669158       11.1879315334        2.1318730784  W2        1003            0.0000000000
      3010      1004  TIP3      OH2            -4.7713430842       10.2853215334        0.4434630784  W2        1004            0.0000000000
      3011      1004  TIP3      H1             -4.7897430842        9.8598315334        1.3006930784  W2        1004            0.0000000000
      3012      1004  TIP3      H2             -3.9665530842        9.9668215334        0.0346830784  W2        1004            0.0000000000
      3013      1005  TIP3      OH2            -2.6300330842        8.9951915334       -0.9015469216  W2        1005            0.0000000000
      3014      1005  TIP3      H1             -2.8489630842        8.0789315334       -0.7319469216  W2        1005            0.0000000000
      3015      1005  TIP3      H2             -1.8058130842        9.1352315334       -0.4354069216  W2        1005            0.0000000000
      3016      1006  TIP3      OH2            -0.0927830842        9.4651215334       -0.0527469216  W2        1006            0.0000000000
      3017      1006  TIP3      H1              0.1197869158        8.5770215334       -0.3396569216  W2        1006            0.0000000000
      3018      1006  TIP3      H2             -0.0282730842        9.4308915334        0.9016530784  W2        1006            0.0000000000
      3019      1007  TIP3      OH2             3.4155869158       -4.8708184666       -0.9084169216  W2        1007            0.0000000000
      3020      1007  TIP3      H1              2.7412669158       -5.5002584666       -0.6528369216  W2        1007            0.0000000000
      3021      1007  TIP3      H2              3.9795069158       -5.3549284666       -1.5116269216  W2        1007            0.0000000000
      3022      1008  TIP3      OH2             8.5583069158       -6.7634184666       -0.7957069216  W2        1008            0.0000000000
      3023      1008  TIP3      H1              9.1620669158       -6.2158784666       -1.2976069216  W2        1008            0.0000000000
      3024      1008  TIP3      H2              7.6885069158       -6.4443784666       -1.0362969216  W2        1008            0.0000000000
      3025      1009  TIP3      OH2            10.2853469158       -5.6245484666       -2.4626169216  W2        1009            0.0000000000
      3026      1009  TIP3      H1             10.8970969158       -6.1389784666       -2.9892569216  W2        1009            0.0000000000
      3027      1009  TIP3      H2             10.6676869158       -4.7473384666       -2.4391769216  W2        1009            0.0000000000
      3028      1010  TIP3      OH2            -4.2576630842       -6.2367884666       -3.0864269216  W2        1010            0.0000000000
      3029      1010  TIP3      H1             -5.0346830842       -6.4712984666       -3.5938369216  W2        1010            0.0000000000
      3030      1010  TIP3      H2             -3.7273030842       -7.0335784666       -3.0776269216  W2        1010            0.0000000000
      3031      1011  TIP3      OH2            -5.4213230842       -6.4389784666       -7.2828169216  W2        1011            0.0000000000
      3032      1011  TIP3      H1             -4.9822530842       -5.8279284666       -7.8744669216  W2        1011            0.0000000000
      3033      1011  TIP3      H2             -6.0550830842       -5.9005684666       -6.8088169216  W2        1011            0.0000000000
      3034      1012  TIP3      OH2             0.3215969158       -6.3100784666       -3.2731169216  W2        1012            0.0000000000
      3035      1012  TIP3      H1              1.1959369158       -5.9216484666       -3.3026869216  W2        1012            0.0000000000
      3036      1012  TIP3      H2              0.1856769158       -6.5252984666       -2.3503969216  W2        1012            0.0000000000
      3037      1013  TIP3      OH2             5.8784369158       -6.2800984666       -1.6239469216  W2        1013            0.0000000000
      3038      1013  TIP3      H1              5.9545969158       -6.1849384666       -2.5733469216  W2        1013            0.0000000000
      3039      1013  TIP3      H2              5.6033569158       -7.1878084666       -1.4950369216  W2        1013            0.0000000000
      3040      1014  TIP3      OH2             7.2316969158       -6.2543184666       -5.9314469216  W2        1014            0.0000000000
      3041      1014  TIP3      H1              6.5288069158       -5.6393984666       -6.1413069216  W2        1014            0.0000000000
      3042      1014  TIP3      H2              6.7868369158       -7.0916484666       -5.8003569216  W2        1014            0.0000000000
      3043      1015  TIP3      OH2            -5.5203730842        9.5092415334       -6.3853069216  W2        1015            0.0000000000
      3044      1015  TIP3      H1             -6.2053830842        9.4711315334       -7.0527969216  W2        1015            0.0000000000
      3045      1015  TIP3      H2             -5.5166530842       10.4220015334       -6.0970969216  W2        1015            0.0000000000
      3046      1016  TIP3      OH2            -3.5604130842       -4.5228284666       -8.8404069216  W2        1016            0.0000000000
      3047      1016  TIP3      H1             -3.0690730842       -5.1525884666       -9.3678569216  W2        1016            0.0000000000
      3048      1016  TIP3      H2             -2.9367830842       -4.2268884666       -8.1772869216  W2        1016            0.0000000000
      3049      1017  TIP3      OH2             1.4655969158       -4.2296784666       -6.3833569216  W2        1017            0.0000000000
      3050      1017  TIP3      H1              1.6437269158       -4.8763584666       -5.7004969216  W2        1017            0.0000000000
      3051      1017  TIP3      H2              1.4122169158       -3.3959084666       -5.9162469216  W2        1017            0.0000000000
      3052      1018  TIP3      OH2             3.3439769158       10.7187315334       -7.9876869216  W2        1018            0.0000000000
      3053      1018  TIP3      H1              4.2099969158       11.0854715334       -8.1658669216  W2        1018            0.0000000000
      3054      1018  TIP3      H2              3.0972569158       10.2795315334       -8.8016069216  W2        1018            0.0000000000
      3055      1019  TIP3      OH2            10.0529369158       10.2817615334       -5.3085769216  W2        1019            0.0000000000
      3056      1019  TIP3      H1              9.8586469158        9.5339715334       -5.8736169216  W2        1019            0.0000000000
      3057      1019  TIP3      H2             10.0139469158       11.0397715334       -5.8917869216  W2        1019            0.0000000000
      3058      1020  TIP3      OH2            -4.2998630842       -5.7225984666        6.4311930784  W2        1020            0.0000000000
      3059      1020  TIP3      H1             -4.6660430842       -6.4883384666        6.8736630784  W2        1020            0.0000000000
      3060      1020  TIP3      H2             -3.3870130842       -5.6935784666        6.7177030784  W2        1020            0.0000000000
      3061      1021  TIP3      OH2            -2.3267830842       -6.3721584666        7.9669030784  W2        1021            0.0000000000
      3062      1021  TIP3      H1             -1.4284230842       -6.6461384666        7.7822430784  W2        1021            0.0000000000
      3063      1021  TIP3      H2             -2.7134730842       -7.1145584666        8.4311630784  W2        1021            0.0000000000
      3064      1022  TIP3      OH2            -3.7022530842       10.4293215334       -9.3600969216  W2        1022            0.0000000000
      3065      1022  TIP3      H1             -3.9697930842       10.7156115334       -8.4867869216  W2        1022            0.0000000000
      3066      1022  TIP3      H2             -2.9309930842        9.8832415334       -9.2078469216  W2        1022            0.0000000000
      3067      1023  TIP3      OH2             6.0944469158       -7.0396284666        8.1491830784  W2        1023            0.0000000000
      3068      1023  TIP3      H1              6.1711669158       -7.4655584666        9.0029530784  W2        1023            0.0000000000
      3069      1023  TIP3      H2              6.9881069158       -7.0261584666        7.8065330784  W2        1023            0.0000000000
      3070      1024  TIP3      OH2             9.2705569158        9.0330015334        6.8416030784  W2        1024            0.0000000000
      3071      1024  TIP3      H1              8.4887469158        8.8468015334        6.3216630784  W2        1024            0.0000000000
      3072      1024  TIP3      H2              9.1985469158        9.9624315334        7.0588530784  W2        1024            0.0000000000
      3073      1025  TIP3      OH2            23.6765969158        2.9194415334       -3.1276769216  W2        1025            0.0000000000
      3074      1025  TIP3      H1             23.7657069158        3.8632615334       -3.2599669216  W2        1025            0.0000000000
      3075      1025  TIP3      H2             23.0383569158        2.6440815334       -3.7857369216  W2        1025            0.0000000000
      3076      1026  TIP3      OH2            22.6097269158        2.1745115334        0.2911430784  W2        1026            0.0000000000
      3077      1026  TIP3      H1             22.5714769158        1.5281415334        0.9961030784  W2        1026            0.0000000000
      3078      1026  TIP3      H2             22.2873769158        1.7079515334       -0.4799869216  W2        1026            0.0000000000
      3079      1027  TIP3      OH2            14.9782269158        1.7887215334        1.8841330784  W2        1027            0.0000000000
      3080      1027  TIP3      H1             15.0194369158        1.1630515334        2.6073730784  W2        1027            0.0000000000
      3081      1027  TIP3      H2             15.6809969158        2.4125815334        2.0661730784  W2        1027            0.0000000000
      3082      1028  TIP3      OH2            15.9015369158        6.2386115334        0.4190430784  W2        1028            0.0000000000
      3083      1028  TIP3      H1             15.5320569158        5.4366615334        0.0494730784  W2        1028            0.0000000000
      3084      1028  TIP3      H2             16.8426469158        6.0701015334        0.4653830784  W2        1028            0.0000000000
      3085      1029  TIP3      OH2            12.5115869158       -0.1011284666       -4.1880769216  W2        1029            0.0000000000
      3086      1029  TIP3      H1             12.0639269158        0.7447415334       -4.2064269216  W2        1029            0.0000000000
      3087      1029  TIP3      H2             11.9507069158       -0.6807084666       -4.7035669216  W2        1029            0.0000000000
      3088      1030  TIP3      OH2            13.2221969158        2.0608315334       -2.0622769216  W2        1030            0.0000000000
      3089      1030  TIP3      H1             13.4355469158        1.2909915334       -1.5349769216  W2        1030            0.0000000000
      3090      1030  TIP3      H2             13.9599569158        2.1505015334       -2.6655169216  W2        1030            0.0000000000
      3091      1031  TIP3      OH2            23.4272969158       10.2177215334       -1.1953069216  W2        1031            0.0000000000
      3092      1031  TIP3      H1             24.0469369158        9.5411915334       -1.4683869216  W2        1031            0.0000000000
      3093      1031  TIP3      H2             23.2190369158        9.9998015334       -0.2868169216  W2        1031            0.0000000000
      3094      1032  TIP3      OH2            20.9991669158        4.6066515334        0.6972430784  W2        1032            0.0000000000
      3095      1032  TIP3      H1             21.3029569158        3.9207915334        0.1026530784  W2        1032            0.0000000000
      3096      1032  TIP3      H2             21.7205669158        4.7255215334        1.3150430784  W2        1032            0.0000000000
      3097      1033  TIP3      OH2            24.1398669158       -0.9991084666        1.0247230784  W2        1033            0.0000000000
      3098      1033  TIP3      H1             24.2824569158       -1.9454084666        1.0448830784  W2        1033            0.0000000000
      3099      1033  TIP3      H2             24.0337669158       -0.7921284666        0.0962130784  W2        1033            0.0000000000
      3100      1034  TIP3      OH2            17.2946969158       -2.8974684666       -1.7027969216  W2        1034            0.0000000000
      3101      1034  TIP3      H1             17.3378069158       -2.0376184666       -2.1211669216  W2        1034            0.0000000000
      3102      1034  TIP3      H2             16.8371069158       -3.4499984666       -2.3364769216  W2        1034            0.0000000000
      3103      1035  TIP3      OH2            25.0169669158       -2.7669084666       -3.3019669216  W2        1035            0.0000000000
      3104      1035  TIP3      H1             25.6633969158       -3.0955884666       -2.6772069216  W2        1035            0.0000000000
      3105      1035  TIP3      H2             25.5269069158       -2.2490084666       -3.9248269216  W2        1035            0.0000000000
      3106      1036  TIP3      OH2            13.9148469158       -0.5008884666       -0.9406569216  W2        1036            0.0000000000
      3107      1036  TIP3      H1             14.5685069158       -1.0507184666       -0.5086469216  W2        1036            0.0000000000
      3108      1036  TIP3      H2             13.9387769158       -0.7749884666       -1.8574569216  W2        1036            0.0000000000
      3109      1037  TIP3      OH2            19.0712969158        1.0492415334       -1.7255069216  W2        1037            0.0000000000
      3110      1037  TIP3      H1             19.6873969158        0.5227815334       -1.2161069216  W2        1037            0.0000000000
      3111      1037  TIP3      H2             18.4851769158        0.4091115334       -2.1291469216  W2        1037            0.0000000000
      3112      1038  TIP3      OH2            16.1048869158       -3.9796284666        2.3712830784  W2        1038            0.0000000000
      3113      1038  TIP3      H1             15.8860569158       -3.4495684666        1.6048830784  W2        1038            0.0000000000
      3114      1038  TIP3      H2             15.4369769158       -3.7530784666        3.0184230784  W2        1038            0.0000000000
      3115      1039  TIP3      OH2            23.4738669158        5.5204815334       -4.0848069216  W2        1039            0.0000000000
      3116      1039  TIP3      H1             23.1783769158        5.1977115334       -4.9361169216  W2        1039            0.0000000000
      3117      1039  TIP3      H2             23.1496469158        6.4201515334       -4.0435469216  W2        1039            0.0000000000
      3118      1040  TIP3      OH2            18.6740269158        3.6959415334        2.6586530784  W2        1040            0.0000000000
      3119      1040  TIP3      H1             17.9339369158        4.2940915334        2.7621730784  W2        1040            0.0000000000
      3120      1040  TIP3      H2             19.3879769158        4.2499015334        2.3430130784  W2        1040            0.0000000000
      3121      1041  TIP3      OH2            15.6986169158       -2.0874484666        0.3235030784  W2        1041            0.0000000000
      3122      1041  TIP3      H1             16.3122469158       -1.4546884666        0.6967430784  W2        1041            0.0000000000
      3123      1041  TIP3      H2             16.2106869158       -2.5599484666       -0.3328069216  W2        1041            0.0000000000
      3124      1042  TIP3      OH2            17.0814569158        5.6602415334        3.4458030784  W2        1042            0.0000000000
      3125      1042  TIP3      H1             17.0762169158        6.5395915334        3.0677330784  W2        1042            0.0000000000
      3126      1042  TIP3      H2             16.2278669158        5.5766515334        3.8707930784  W2        1042            0.0000000000
      3127      1043  TIP3      OH2            13.2025469158        5.3310315334       -5.7722669216  W2        1043            0.0000000000
      3128      1043  TIP3      H1             12.9306369158        5.5601315334       -6.6609769216  W2        1043            0.0000000000
      3129      1043  TIP3      H2             13.2481169158        6.1689115334       -5.3117369216  W2        1043            0.0000000000
      3130      1044  TIP3      OH2            20.1313569158       -6.6741184666       -0.1762269216  W2        1044            0.0000000000
      3131      1044  TIP3      H1             20.0137769158       -7.6225184666       -0.2303969216  W2        1044            0.0000000000
      3132      1044  TIP3      H2             19.2763669158       -6.3415084666        0.0968830784  W2        1044            0.0000000000
      3133      1045  TIP3      OH2            25.0796369158        8.7339715334       -2.4342569216  W2        1045            0.0000000000
      3134      1045  TIP3      H1             25.5048669158        8.0267615334       -2.9192969216  W2        1045            0.0000000000
      3135      1045  TIP3      H2             25.3966369158        9.5352415334       -2.8510369216  W2        1045            0.0000000000
      3136      1046  TIP3      OH2            22.3978469158        2.1634415334       -5.6756469216  W2        1046            0.0000000000
      3137      1046  TIP3      H1             21.6863969158        2.6984115334       -6.0275969216  W2        1046            0.0000000000
      3138      1046  TIP3      H2             23.0888069158        2.2186515334       -6.3357569216  W2        1046            0.0000000000
      3139      1047  TIP3      OH2            22.4517669158        0.6208715334       -8.6371469216  W2        1047            0.0000000000
      3140      1047  TIP3      H1             23.1527569158        0.6435615334       -7.9857469216  W2        1047            0.0000000000
      3141      1047  TIP3      H2             22.7540569158       -0.0071584666       -9.2932169216  W2        1047            0.0000000000
      3142      1048  TIP3      OH2            25.8036169158        2.3727715334       -4.7240569216  W2        1048            0.0000000000
      3143      1048  TIP3      H1             25.0717169158        2.6011415334       -4.1509969216  W2        1048            0.0000000000
      3144      1048  TIP3      H2             26.2508369158        1.6590415334       -4.2693069216  W2        1048            0.0000000000
      3145      1049  TIP3      OH2            25.7009669158        0.5470315334        4.3436430784  W2        1049            0.0000000000
      3146      1049  TIP3      H1             25.7808769158        1.3104715334        4.9154930784  W2        1049            0.0000000000
      3147      1049  TIP3      H2             25.0997369158        0.8262715334        3.6531530784  W2        1049            0.0000000000
      3148      1050  TIP3      OH2            17.4489869158        3.0033915334       -2.8415569216  W2        1050            0.0000000000
      3149      1050  TIP3      H1             17.1185069158        2.6327315334       -3.6598569216  W2        1050            0.0000000000
      3150      1050  TIP3      H2             18.0373969158        2.3327915334       -2.4947269216  W2        1050            0.0000000000
      3151      1051  TIP3      OH2            18.8157369158        6.4314515334       -0.1603369216  W2        1051            0.0000000000
      3152      1051  TIP3      H1             18.7208669158        5.8527615334       -0.9168769216  W2        1051            0.0000000000
      3153      1051  TIP3      H2             19.5450969158        6.0600215334        0.3359430784  W2        1051            0.0000000000
      3154      1052  TIP3      OH2            17.8155369158        1.7719515334        0.7919430784  W2        1052            0.0000000000
      3155      1052  TIP3      H1             18.3807869158        1.8933715334        0.0290630784  W2        1052            0.0000000000
      3156      1052  TIP3      H2             18.1344269158        2.4094515334        1.4307930784  W2        1052            0.0000000000
      3157      1053  TIP3      OH2            24.1247569158        7.2751415334        1.5259930784  W2        1053            0.0000000000
      3158      1053  TIP3      H1             23.8844169158        7.9374515334        2.1739130784  W2        1053            0.0000000000
      3159      1053  TIP3      H2             23.9265769158        6.4406615334        1.9509530784  W2        1053            0.0000000000
      3160      1054  TIP3      OH2            18.6956069158        6.1712215334        5.5091330784  W2        1054            0.0000000000
      3161      1054  TIP3      H1             18.3843569158        6.9535415334        5.9644530784  W2        1054            0.0000000000
      3162      1054  TIP3      H2             18.0456269158        6.0181315334        4.8233330784  W2        1054            0.0000000000
      3163      1055  TIP3      OH2            24.6745669158        1.5350615334       -7.0389369216  W2        1055            0.0000000000
      3164      1055  TIP3      H1             25.2541169158        1.6850915334       -6.2920469216  W2        1055            0.0000000000
      3165      1055  TIP3      H2             25.0885669158        2.0058015334       -7.7622969216  W2        1055            0.0000000000
      3166      1056  TIP3      OH2            15.6155969158        2.3693315334        4.7377030784  W2        1056            0.0000000000
      3167      1056  TIP3      H1             15.6859169158        3.0200115334        5.4362030784  W2        1056            0.0000000000
      3168      1056  TIP3      H2             14.7248169158        2.4720815334        4.4027930784  W2        1056            0.0000000000
      3169      1057  TIP3      OH2            22.4010569158        8.2719115334       -3.6036269216  W2        1057            0.0000000000
      3170      1057  TIP3      H1             22.8748169158        8.5675415334       -2.8262069216  W2        1057            0.0000000000
      3171      1057  TIP3      H2             21.8379869158        9.0100715334       -3.8366669216  W2        1057            0.0000000000
      3172      1058  TIP3      OH2            16.9351969158        8.2427215334        6.2725130784  W2        1058            0.0000000000
      3173      1058  TIP3      H1             16.9427269158        8.1066915334        5.3250630784  W2        1058            0.0000000000
      3174      1058  TIP3      H2             16.0192369158        8.1255315334        6.5245130784  W2        1058            0.0000000000
      3175      1059  TIP3      OH2            16.4392569158        2.0728215334       -5.2522769216  W2        1059            0.0000000000
      3176      1059  TIP3      H1             16.1473869158        2.8409915334       -5.7431469216  W2        1059            0.0000000000
      3177      1059  TIP3      H2             15.7647769158        1.4134415334       -5.4151369216  W2        1059            0.0000000000
      3178      1060  TIP3      OH2            12.5322669158        4.4357415334        3.5627030784  W2        1060            0.0000000000
      3179      1060  TIP3      H1             12.0311069158        4.4076815334        2.7476730784  W2        1060            0.0000000000
      3180      1060  TIP3      H2             12.5376369158        3.5300615334        3.8724330784  W2        1060            0.0000000000
      3181      1061  TIP3      OH2            12.2825369158        7.2161215334        0.4467230784  W2        1061            0.0000000000
      3182      1061  TIP3      H1             13.2285969158        7.0718215334        0.4276730784  W2        1061            0.0000000000
      3183      1061  TIP3      H2             12.1701669158        8.0004015334        0.9838430784  W2        1061            0.0000000000
      3184      1062  TIP3      OH2            21.4587869158        7.4560115334        5.0052330784  W2        1062            0.0000000000
      3185      1062  TIP3      H1             21.5462469158        8.2824715334        5.4801430784  W2        1062            0.0000000000
      3186      1062  TIP3      H2             20.5952969158        7.1263915334        5.2541630784  W2        1062            0.0000000000
      3187      1063  TIP3      OH2            21.8733669158       11.2283815334       -5.1887069216  W2        1063            0.0000000000
      3188      1063  TIP3      H1             21.7979669158       11.1071015334       -6.1351869216  W2        1063            0.0000000000
      3189      1063  TIP3      H2             21.9062369158       12.1776515334       -5.0702469216  W2        1063            0.0000000000
      3190      1064  TIP3      OH2            15.5267469158       10.0170815334       -3.4078069216  W2        1064            0.0000000000
      3191      1064  TIP3      H1             15.6787869158        9.6691215334       -2.5291569216  W2        1064            0.0000000000
      3192      1064  TIP3      H2             14.6757869158        9.6608115334       -3.6630869216  W2        1064            0.0000000000
      3193      1065  TIP3      OH2            24.9749669158       10.3824015334       -8.1864669216  W2        1065            0.0000000000
      3194      1065  TIP3      H1             25.3498069158        9.6380115334       -8.6572069216  W2        1065            0.0000000000
      3195      1065  TIP3      H2             24.9793369158       10.1124615334       -7.2681369216  W2        1065            0.0000000000
      3196      1066  TIP3      OH2            24.6437769158       10.3081115334       -5.4372469216  W2        1066            0.0000000000
      3197      1066  TIP3      H1             23.7087569158       10.4083015334       -5.2585469216  W2        1066            0.0000000000
      3198      1066  TIP3      H2             24.9239669158        9.5987115334       -4.8589269216  W2        1066            0.0000000000
      3199      1067  TIP3      OH2            14.7813169158        5.7592815334        4.6059830784  W2        1067            0.0000000000
      3200      1067  TIP3      H1             14.9974469158        5.3978415334        5.4655630784  W2        1067            0.0000000000
      3201      1067  TIP3      H2             13.9257869158        5.3846615334        4.3963330784  W2        1067            0.0000000000
      3202      1068  TIP3      OH2            17.4001169158       -5.7706684666        0.6014030784  W2        1068            0.0000000000
      3203      1068  TIP3      H1             16.5384869158       -5.8578484666        0.1936930784  W2        1068            0.0000000000
      3204      1068  TIP3      H2             17.3776869158       -4.9146584666        1.0291630784  W2        1068            0.0000000000
      3205      1069  TIP3      OH2            22.0628969158       -6.0486284666        3.9761030784  W2        1069            0.0000000000
      3206      1069  TIP3      H1             22.4832069158       -6.4639184666        4.7291630784  W2        1069            0.0000000000
      3207      1069  TIP3      H2             21.1298569158       -6.2272984666        4.0933030784  W2        1069            0.0000000000
      3208      1070  TIP3      OH2            25.3893869158       -2.2931084666        4.8295530784  W2        1070            0.0000000000
      3209      1070  TIP3      H1             24.8753369158       -2.4188884666        5.6271530784  W2        1070            0.0000000000
      3210      1070  TIP3      H2             25.2338569158       -1.3807984666        4.5851730784  W2        1070            0.0000000000
      3211      1071  TIP3      OH2            21.7246269158       -3.5562884666       -8.7388169216  W2        1071            0.0000000000
      3212      1071  TIP3      H1             21.4711069158       -3.5371284666       -7.8160069216  W2        1071            0.0000000000
      3213      1071  TIP3      H2             21.4678369158       -4.4277484666       -9.0401969216  W2        1071            0.0000000000
      3214      1072  TIP3      OH2            17.4911269158       -0.8052184666        1.6964230784  W2        1072            0.0000000000
      3215      1072  TIP3      H1             16.8493369158       -0.8454884666        2.4054330784  W2        1072            0.0000000000
      3216      1072  TIP3      H2             17.5283269158        0.1212515334        1.4587230784  W2        1072            0.0000000000
      3217      1073  TIP3      OH2            17.4880369158       -0.5842084666       -3.3915769216  W2        1073            0.0000000000
      3218      1073  TIP3      H1             16.5953269158       -0.9245984666       -3.4501969216  W2        1073            0.0000000000
      3219      1073  TIP3      H2             17.9386969158       -0.9611184666       -4.1472569216  W2        1073            0.0000000000
      3220      1074  TIP3      OH2            23.0235869158       -0.1681784666       -4.5744969216  W2        1074            0.0000000000
      3221      1074  TIP3      H1             22.6146169158        0.6466815334       -4.8660169216  W2        1074            0.0000000000
      3222      1074  TIP3      H2             23.7442069158       -0.3081684666       -5.1887869216  W2        1074            0.0000000000
      3223      1075  TIP3      OH2            22.1257469158        0.0074615334        6.9135730784  W2        1075            0.0000000000
      3224      1075  TIP3      H1             21.5631269158       -0.6973784666        7.2343530784  W2        1075            0.0000000000
      3225      1075  TIP3      H2             22.9520869158       -0.1133484666        7.3813330784  W2        1075            0.0000000000
      3226      1076  TIP3      OH2            24.0283569158       -0.7221384666       -1.7605269216  W2        1076            0.0000000000
      3227      1076  TIP3      H1             23.8328069158       -0.1164584666       -2.4754669216  W2        1076            0.0000000000
      3228      1076  TIP3      H2             24.2096169158       -1.5556184666       -2.1948969216  W2        1076            0.0000000000
      3229      1077  TIP3      OH2            15.2411769158       -0.4848684666        3.5636230784  W2        1077            0.0000000000
      3230      1077  TIP3      H1             15.2031169158       -0.0847084666        4.4323330784  W2        1077            0.0000000000
      3231      1077  TIP3      H2             14.7502869158       -1.3016284666        3.6539130784  W2        1077            0.0000000000
      3232      1078  TIP3      OH2            18.6069169158       -3.1106384666       -9.6377769216  W2        1078            0.0000000000
      3233      1078  TIP3      H1             18.1759869158       -3.5556284666       -8.9080369216  W2        1078            0.0000000000
      3234      1078  TIP3      H2             17.8887869158       -2.7390084666      -10.1500269216  W2        1078            0.0000000000
      3235      1079  TIP3      OH2            11.8492569158       -3.3686884666       -2.5859069216  W2        1079            0.0000000000
      3236      1079  TIP3      H1             12.4800269158       -3.3974784666       -1.8665169216  W2        1079            0.0000000000
      3237      1079  TIP3      H2             12.2986869158       -3.7938184666       -3.3163169216  W2        1079            0.0000000000
      3238      1080  TIP3      OH2            13.1234669158       -2.6224884666       -7.1618669216  W2        1080            0.0000000000
      3239      1080  TIP3      H1             13.5976369158       -2.0314984666       -7.7467769216  W2        1080            0.0000000000
      3240      1080  TIP3      H2             12.4061069158       -2.0921984666       -6.8148569216  W2        1080            0.0000000000
      3241      1081  TIP3      OH2            23.2922769158        0.9159915334        2.9107130784  W2        1081            0.0000000000
      3242      1081  TIP3      H1             23.6157569158        0.2849615334        2.2677630784  W2        1081            0.0000000000
      3243      1081  TIP3      H2             22.8522069158        0.3812115334        3.5714530784  W2        1081            0.0000000000
      3244      1082  TIP3      OH2            20.0695669158       -3.1564584666       -2.3051669216  W2        1082            0.0000000000
      3245      1082  TIP3      H1             19.1586769158       -3.0997784666       -2.0165669216  W2        1082            0.0000000000
      3246      1082  TIP3      H2             20.5748569158       -3.2169084666       -1.4944469216  W2        1082            0.0000000000
      3247      1083  TIP3      OH2            14.8979069158       -1.5278284666       -3.4784069216  W2        1083            0.0000000000
      3248      1083  TIP3      H1             14.0087069158       -1.4282784666       -3.8184469216  W2        1083            0.0000000000
      3249      1083  TIP3      H2             15.1943969158       -2.3695284666       -3.8246169216  W2        1083            0.0000000000
      3250      1084  TIP3      OH2            18.5510869158       -1.5275684666       -5.8219469216  W2        1084            0.0000000000
      3251      1084  TIP3      H1             19.4826369158       -1.3985684666       -5.6436369216  W2        1084            0.0000000000
      3252      1084  TIP3      H2             18.3361169158       -0.8581384666       -6.4714769216  W2        1084            0.0000000000
      3253      1085  TIP3      OH2            24.4747569158       -3.9218284666        0.9590130784  W2        1085            0.0000000000
      3254      1085  TIP3      H1             23.7979169158       -3.7905184666        1.6229830784  W2        1085            0.0000000000
      3255      1085  TIP3      H2             23.9892469158       -4.0768784666        0.1487830784  W2        1085            0.0000000000
      3256      1086  TIP3      OH2            17.2251069158       -0.3333484666       -8.2553369216  W2        1086            0.0000000000
      3257      1086  TIP3      H1             16.6826169158       -0.7129684666       -8.9465769216  W2        1086            0.0000000000
      3258      1086  TIP3      H2             18.0585969158       -0.1388784666       -8.6839269216  W2        1086            0.0000000000
      3259      1087  TIP3      OH2            15.3602469158        4.2238415334        6.8438230784  W2        1087            0.0000000000
      3260      1087  TIP3      H1             16.0924869158        4.4784315334        7.4052730784  W2        1087            0.0000000000
      3261      1087  TIP3      H2             14.5801169158        4.4283815334        7.3593630784  W2        1087            0.0000000000
      3262      1088  TIP3      OH2            21.3895369158       -0.3691584666       -0.4182069216  W2        1088            0.0000000000
      3263      1088  TIP3      H1             21.9538769158       -0.9154984666       -0.9652469216  W2        1088            0.0000000000
      3264      1088  TIP3      H2             21.2418769158       -0.8909684666        0.3705530784  W2        1088            0.0000000000
      3265      1089  TIP3      OH2            16.3915069158       -4.2325484666       -3.9997269216  W2        1089            0.0000000000
      3266      1089  TIP3      H1             16.0744569158       -5.1350184666       -4.0351869216  W2        1089            0.0000000000
      3267      1089  TIP3      H2             17.1729169158       -4.2308084666       -4.5525669216  W2        1089            0.0000000000
      3268      1090  TIP3      OH2            20.0161269158       -1.9805484666        1.9958330784  W2        1090            0.0000000000
      3269      1090  TIP3      H1             19.1806569158       -1.5265984666        2.1060730784  W2        1090            0.0000000000
      3270      1090  TIP3      H2             20.5401869158       -1.7046984666        2.7478230784  W2        1090            0.0000000000
      3271      1091  TIP3      OH2            20.5603869158        4.2322215334       -6.3195269216  W2        1091            0.0000000000
      3272      1091  TIP3      H1             19.8154869158        3.7247515334       -6.6417369216  W2        1091            0.0000000000
      3273      1091  TIP3      H2             20.4261069158        4.2810215334       -5.3730469216  W2        1091            0.0000000000
      3274      1092  TIP3      OH2            24.4580669158       -2.9537884666       -8.1202669216  W2        1092            0.0000000000
      3275      1092  TIP3      H1             23.5194869158       -2.8422284666       -8.2713869216  W2        1092            0.0000000000
      3276      1092  TIP3      H2             24.7552769158       -2.0970984666       -7.8136969216  W2        1092            0.0000000000
      3277      1093  TIP3      OH2            22.0795969158        4.4165515334        4.9173830784  W2        1093            0.0000000000
      3278      1093  TIP3      H1             21.7342069158        4.0347915334        5.7243430784  W2        1093            0.0000000000
      3279      1093  TIP3      H2             21.8796069158        5.3499115334        4.9886730784  W2        1093            0.0000000000
      3280      1094  TIP3      OH2            25.1764169158       -1.0865184666       -6.4595269216  W2        1094            0.0000000000
      3281      1094  TIP3      H1             26.0683169158       -1.2240184666       -6.1404069216  W2        1094            0.0000000000
      3282      1094  TIP3      H2             25.2327769158       -0.2959084666       -6.9961769216  W2        1094            0.0000000000
      3283      1095  TIP3      OH2            15.6852169158        3.5272215334       -0.5497369216  W2        1095            0.0000000000
      3284      1095  TIP3      H1             16.4299369158        3.5247915334       -1.1510869216  W2        1095            0.0000000000
      3285      1095  TIP3      H2             15.7628769158        2.7036015334       -0.0682269216  W2        1095            0.0000000000
      3286      1096  TIP3      OH2            22.6857969158        5.6906515334       -7.2940669216  W2        1096            0.0000000000
      3287      1096  TIP3      H1             22.3906369158        6.5174415334       -6.9125869216  W2        1096            0.0000000000
      3288      1096  TIP3      H2             21.9827969158        5.0713415334       -7.0979269216  W2        1096            0.0000000000
      3289      1097  TIP3      OH2            12.6931869158        1.9879115334        4.7651130784  W2        1097            0.0000000000
      3290      1097  TIP3      H1             12.9160469158        1.5698715334        5.5968630784  W2        1097            0.0000000000
      3291      1097  TIP3      H2             12.0911969158        1.3754115334        4.3423930784  W2        1097            0.0000000000
      3292      1098  TIP3      OH2            19.7096769158        1.5049015334        6.9780830784  W2        1098            0.0000000000
      3293      1098  TIP3      H1             19.4137569158        1.3392015334        6.0829930784  W2        1098            0.0000000000
      3294      1098  TIP3      H2             20.6411969158        1.2849315334        6.9674730784  W2        1098            0.0000000000
      3295      1099  TIP3      OH2            24.3299569158        6.8781015334        4.8678830784  W2        1099            0.0000000000
      3296      1099  TIP3      H1             23.4293869158        7.0613615334        4.6002730784  W2        1099            0.0000000000
      3297      1099  TIP3      H2             24.3640669158        7.1370315334        5.7887630784  W2        1099            0.0000000000
      3298      1100  TIP3      OH2            25.5168469158        2.7168815334        0.7215430784  W2        1100            0.0000000000
      3299      1100  TIP3      H1             24.5885369158        2.4850715334        0.6944730784  W2        1100            0.0000000000
      3300      1100  TIP3      H2             25.9679569158        1.9398615334        0.3914230784  W2        1100            0.0000000000
      3301      1101  TIP3      OH2            18.0601569158        7.0450415334       -3.1455869216  W2        1101            0.0000000000
      3302      1101  TIP3      H1             18.5873769158        7.8184815334       -3.3457069216  W2        1101            0.0000000000
      3303      1101  TIP3      H2             17.1800069158        7.2699615334       -3.4471869216  W2        1101            0.0000000000
      3304      1102  TIP3      OH2            13.8149269158        1.9074515334       -8.5583469216  W2        1102            0.0000000000
      3305      1102  TIP3      H1             14.4309169158        2.5341715334       -8.1788669216  W2        1102            0.0000000000
      3306      1102  TIP3      H2             12.9531869158        2.2234315334       -8.2866969216  W2        1102            0.0000000000
      3307      1103  TIP3      OH2            19.4873869158        4.7080315334       -3.5691569216  W2        1103            0.0000000000
      3308      1103  TIP3      H1             19.2463869158        5.6334715334       -3.5276269216  W2        1103            0.0000000000
      3309      1103  TIP3      H2             18.7467469158        4.2491615334       -3.1727669216  W2        1103            0.0000000000
      3310      1104  TIP3      OH2            20.0020469158        8.8573915334        2.7459530784  W2        1104            0.0000000000
      3311      1104  TIP3      H1             20.3645169158        9.7119515334        2.5123930784  W2        1104            0.0000000000
      3312      1104  TIP3      H2             20.5335669158        8.5655515334        3.4865830784  W2        1104            0.0000000000
      3313      1105  TIP3      OH2            18.1704669158        9.7297915334       -4.0239369216  W2        1105            0.0000000000
      3314      1105  TIP3      H1             17.2205169158        9.8355315334       -3.9726069216  W2        1105            0.0000000000
      3315      1105  TIP3      H2             18.5222769158       10.5505315334       -3.6791869216  W2        1105            0.0000000000
      3316      1106  TIP3      OH2            23.5461269158        4.9564615334        2.4465130784  W2        1106            0.0000000000
      3317      1106  TIP3      H1             23.1202569158        4.7286315334        3.2729130784  W2        1106            0.0000000000
      3318      1106  TIP3      H2             24.1267069158        4.2176415334        2.2640430784  W2        1106            0.0000000000
      3319      1107  TIP3      OH2            25.7490169158        5.8855115334       -8.4795869216  W2        1107            0.0000000000
      3320      1107  TIP3      H1             26.1023269158        5.5054915334       -7.6752369216  W2        1107            0.0000000000
      3321      1107  TIP3      H2             24.8003669158        5.7919915334       -8.3926569216  W2        1107            0.0000000000
      3322      1108  TIP3      OH2            14.3271369158       -3.2588184666        4.3232530784  W2        1108            0.0000000000
      3323      1108  TIP3      H1             13.4343669158       -2.9202784666        4.2556530784  W2        1108            0.0000000000
      3324      1108  TIP3      H2             14.2284169158       -4.1142084666        4.7413330784  W2        1108            0.0000000000
      3325      1109  TIP3      OH2            13.9783369158        8.5456215334        2.7581930784  W2        1109            0.0000000000
      3326      1109  TIP3      H1             14.1953669158        7.6138615334        2.7271630784  W2        1109            0.0000000000
      3327      1109  TIP3      H2             14.2246869158        8.8201215334        3.6414730784  W2        1109            0.0000000000
      3328      1110  TIP3      OH2            19.8397969158        6.9971215334      -10.0325869216  W2        1110            0.0000000000
      3329      1110  TIP3      H1             20.0787769158        6.2489315334      -10.5796969216  W2        1110            0.0000000000
      3330      1110  TIP3      H2             19.5709269158        6.6092915334       -9.1998069216  W2        1110            0.0000000000
      3331      1111  TIP3      OH2            18.7768569158        6.5675015334       -7.5763269216  W2        1111            0.0000000000
      3332      1111  TIP3      H1             18.9236569158        6.0474815334       -6.7862369216  W2        1111            0.0000000000
      3333      1111  TIP3      H2             18.7740269158        7.4742615334       -7.2697369216  W2        1111            0.0000000000
      3334      1112  TIP3      OH2            15.2299669158        3.8198315334       -7.0657869216  W2        1112            0.0000000000
      3335      1112  TIP3      H1             14.5438969158        4.1720815334       -6.4988169216  W2        1112            0.0000000000
      3336      1112  TIP3      H2             15.7527569158        4.5827915334       -7.3123569216  W2        1112            0.0000000000
      3337      1113  TIP3      OH2            23.0614769158       -3.5177884666        3.2131130784  W2        1113            0.0000000000
      3338      1113  TIP3      H1             23.7602669158       -3.4439184666        3.8630830784  W2        1113            0.0000000000
      3339      1113  TIP3      H2             22.6806169158       -4.3822884666        3.3674030784  W2        1113            0.0000000000
      3340      1114  TIP3      OH2            23.8459669158       -3.8656184666       -5.6896569216  W2        1114            0.0000000000
      3341      1114  TIP3      H1             24.0657969158       -3.3940784666       -6.4931169216  W2        1114            0.0000000000
      3342      1114  TIP3      H2             24.4043669158       -3.4713584666       -5.0195969216  W2        1114            0.0000000000
      3343      1115  TIP3      OH2            21.5145769158        8.2648615334       -6.8269069216  W2        1115            0.0000000000
      3344      1115  TIP3      H1             20.6981869158        8.7618315334       -6.7744769216  W2        1115            0.0000000000
      3345      1115  TIP3      H2             22.0442069158        8.7402115334       -7.4670269216  W2        1115            0.0000000000
      3346      1116  TIP3      OH2            21.0459569158       -2.1377384666       -4.8548169216  W2        1116            0.0000000000
      3347      1116  TIP3      H1             21.8582169158       -1.6334184666       -4.8086469216  W2        1116            0.0000000000
      3348      1116  TIP3      H2             20.8012569158       -2.2827684666       -3.9408569216  W2        1116            0.0000000000
      3349      1117  TIP3      OH2            21.5815969158       -1.1514684666        4.3298430784  W2        1117            0.0000000000
      3350      1117  TIP3      H1             21.7006269158       -0.5779284666        5.0868830784  W2        1117            0.0000000000
      3351      1117  TIP3      H2             22.2370569158       -1.8395284666        4.4446230784  W2        1117            0.0000000000
      3352      1118  TIP3      OH2            21.9296269158       -5.0564384666       -3.9167069216  W2        1118            0.0000000000
      3353      1118  TIP3      H1             21.5829769158       -4.4393784666       -3.2722769216  W2        1118            0.0000000000
      3354      1118  TIP3      H2             22.5883169158       -4.5558684666       -4.3981569216  W2        1118            0.0000000000
      3355      1119  TIP3      OH2            18.8528869158        9.3085815334       -6.8452169216  W2        1119            0.0000000000
      3356      1119  TIP3      H1             19.0137569158       10.1083315334       -7.3459569216  W2        1119            0.0000000000
      3357      1119  TIP3      H2             18.6556669158        9.6151815334       -5.9601569216  W2        1119            0.0000000000
      3358      1120  TIP3      OH2            17.5873269158       -3.9934984666       -7.2294569216  W2        1120            0.0000000000
      3359      1120  TIP3      H1             17.5038069158       -3.1051884666       -6.8828169216  W2        1120            0.0000000000
      3360      1120  TIP3      H2             18.4773569158       -4.2588284666       -6.9977769216  W2        1120            0.0000000000
      3361      1121  TIP3      OH2            15.8458569158        6.4337215334       -8.1690069216  W2        1121            0.0000000000
      3362      1121  TIP3      H1             16.4380069158        7.1332015334       -7.8927669216  W2        1121            0.0000000000
      3363      1121  TIP3      H2             16.3051569158        6.0006715334       -8.8885469216  W2        1121            0.0000000000
      3364      1122  TIP3      OH2            14.1617769158       -0.9019784666       -9.0530669216  W2        1122            0.0000000000
      3365      1122  TIP3      H1             14.1170369158        0.0373315334       -8.8743669216  W2        1122            0.0000000000
      3366      1122  TIP3      H2             13.2740969158       -1.1374884666       -9.3228569216  W2        1122            0.0000000000
      3367      1123  TIP3      OH2            14.9699769158       -6.1203184666       -0.3799669216  W2        1123            0.0000000000
      3368      1123  TIP3      H1             14.7409569158       -6.0610684666       -1.3074669216  W2        1123            0.0000000000
      3369      1123  TIP3      H2             14.5273169158       -6.9117684666       -0.0735569216  W2        1123            0.0000000000
      3370      1124  TIP3      OH2            13.9003069158        7.8203915334       -4.2193869216  W2        1124            0.0000000000
      3371      1124  TIP3      H1             13.0681669158        8.2926615334       -4.1922469216  W2        1124            0.0000000000
      3372      1124  TIP3      H2             14.4461369158        8.3301515334       -4.8180769216  W2        1124            0.0000000000
      3373      1125  TIP3      OH2            13.1886769158       10.4327615334        7.1104130784  W2        1125            0.0000000000
      3374      1125  TIP3      H1             13.7288969158       10.2161615334        7.8703330784  W2        1125            0.0000000000
      3375      1125  TIP3      H2             12.7074769158        9.6273615334        6.9206630784  W2        1125            0.0000000000
      3376      1126  TIP3      OH2            17.7860169158        9.3522015334        8.7308330784  W2        1126            0.0000000000
      3377      1126  TIP3      H1             18.5537369158        8.8932815334        9.0717530784  W2        1126            0.0000000000
      3378      1126  TIP3      H2             17.7646369158        9.1261815334        7.8009530784  W2        1126            0.0000000000
      3379      1127  TIP3      OH2            21.8779769158        8.8602615334       -9.8939869216  W2        1127            0.0000000000
      3380      1127  TIP3      H1             21.2340769158        8.2291215334       -9.5726169216  W2        1127            0.0000000000
      3381      1127  TIP3      H2             22.6398069158        8.3290615334      -10.1256369216  W2        1127            0.0000000000
      3382      1128  TIP3      OH2            24.3628869158        7.7323115334        7.4599830784  W2        1128            0.0000000000
      3383      1128  TIP3      H1             24.0118369158        6.8756115334        7.7030230784  W2        1128            0.0000000000
      3384      1128  TIP3      H2             25.0892069158        7.8749815334        8.0668830784  W2        1128            0.0000000000
      3385      1129  TIP3      OH2            13.0956269158        4.2431715334        8.0648430784  W2        1129            0.0000000000
      3386      1129  TIP3      H1             13.2396769158        3.3412415334        7.7785130784  W2        1129            0.0000000000
      3387      1129  TIP3      H2             12.3233669158        4.5293815334        7.5770730784  W2        1129            0.0000000000
      3388      1130  TIP3      OH2            17.4369969158        4.5867415334       -9.8026969216  W2        1130            0.0000000000
      3389      1130  TIP3      H1             17.5014069158        3.7927015334       -9.2720569216  W2        1130            0.0000000000
      3390      1130  TIP3      H2             18.0899169158        4.4680215334      -10.4924969216  W2        1130            0.0000000000
      3391      1131  TIP3      OH2            19.7512369158        4.2129815334        7.4974830784  W2        1131            0.0000000000
      3392      1131  TIP3      H1             19.4226169158        4.4837915334        6.6402230784  W2        1131            0.0000000000
      3393      1131  TIP3      H2             19.9030569158        3.2719615334        7.4099830784  W2        1131            0.0000000000
      3394      1132  TIP3      OH2            22.7893369158        5.6339115334      -10.0668969216  W2        1132            0.0000000000
      3395      1132  TIP3      H1             22.5207469158        5.8141215334       -9.1660069216  W2        1132            0.0000000000
      3396      1132  TIP3      H2             22.5828969158        4.7085315334      -10.1983169216  W2        1132            0.0000000000
      3397      1133  TIP3      OH2            25.4857569158        4.1287115334        4.8807130784  W2        1133            0.0000000000
      3398      1133  TIP3      H1             26.2312369158        4.7170815334        4.7611130784  W2        1133            0.0000000000
      3399      1133  TIP3      H2             24.7284369158        4.7106815334        4.9440230784  W2        1133            0.0000000000
      3400      1134  TIP3      OH2            13.9282769158        1.4435015334        7.4847730784  W2        1134            0.0000000000
      3401      1134  TIP3      H1             14.3363969158        0.5861615334        7.3638330784  W2        1134            0.0000000000
      3402      1134  TIP3      H2             13.6680369158        1.4576315334        8.4058030784  W2        1134            0.0000000000
      3403      1135  TIP3      OH2            18.5863769158        2.5593615334       -7.4968969216  W2        1135            0.0000000000
      3404      1135  TIP3      H1             18.1265769158        2.0751915334       -6.8110469216  W2        1135            0.0000000000
      3405      1135  TIP3      H2             18.8412469158        1.8909015334       -8.1328469216  W2        1135            0.0000000000
      3406      1136  TIP3      OH2            17.8753069158        0.4520715334        4.8590630784  W2        1136            0.0000000000
      3407      1136  TIP3      H1             17.2569169158        1.1267315334        5.1395330784  W2        1136            0.0000000000
      3408      1136  TIP3      H2             18.2194269158        0.7734615334        4.0256830784  W2        1136            0.0000000000
      3409      1137  TIP3      OH2            19.6574169158        0.8025415334       -9.2345769216  W2        1137            0.0000000000
      3410      1137  TIP3      H1             19.4769169158        0.6476615334      -10.1617469216  W2        1137            0.0000000000
      3411      1137  TIP3      H2             20.6074669158        0.9104115334       -9.1897869216  W2        1137            0.0000000000
      3412      1138  TIP3      OH2            22.8951269158        2.9236015334        8.1365430784  W2        1138            0.0000000000
      3413      1138  TIP3      H1             23.8482469158        3.0075115334        8.1091430784  W2        1138            0.0000000000
      3414      1138  TIP3      H2             22.7345869158        2.2117815334        8.7560330784  W2        1138            0.0000000000
      3415      1139  TIP3      OH2            18.2146769158       -2.1928484666        5.9413730784  W2        1139            0.0000000000
      3416      1139  TIP3      H1             18.3647669158       -2.9217184666        5.3393430784  W2        1139            0.0000000000
      3417      1139  TIP3      H2             18.2169169158       -1.4156784666        5.3825930784  W2        1139            0.0000000000
      3418      1140  TIP3      OH2            18.6272469158       -3.8232684666        3.4341130784  W2        1140            0.0000000000
      3419      1140  TIP3      H1             19.1629969158       -3.3715984666        2.7820430784  W2        1140            0.0000000000
      3420      1140  TIP3      H2             17.7752069158       -3.9312884666        3.0115230784  W2        1140            0.0000000000
      3421      1141  TIP3      OH2            20.2090869158        1.6163515334        3.6736330784  W2        1141            0.0000000000
      3422      1141  TIP3      H1             20.9595669158        1.4601015334        3.1004130784  W2        1141            0.0000000000
      3423      1141  TIP3      H2             19.8699169158        2.4680115334        3.3981830784  W2        1141            0.0000000000
      3424      1142  TIP3      OH2            24.6247069158       -0.5684684666        8.7021630784  W2        1142            0.0000000000
      3425      1142  TIP3      H1             24.8168369158       -1.4995284666        8.5906130784  W2        1142            0.0000000000
      3426      1142  TIP3      H2             25.4823369158       -0.1435184666        8.6917030784  W2        1142            0.0000000000
      3427      1143  TIP3      OH2            16.6933069158       -0.9944984666        7.8529330784  W2        1143            0.0000000000
      3428      1143  TIP3      H1             15.9262069158       -1.5270184666        7.6426930784  W2        1143            0.0000000000
      3429      1143  TIP3      H2             17.3722069158       -1.3044584666        7.2535630784  W2        1143            0.0000000000
      3430      1144  TIP3      OH2            19.4327969158       -6.3666984666        3.8654730784  W2        1144            0.0000000000
      3431      1144  TIP3      H1             19.3347569158       -5.4203784666        3.7600930784  W2        1144            0.0000000000
      3432      1144  TIP3      H2             18.6904169158       -6.7393184666        3.3898230784  W2        1144            0.0000000000
      3433      1145  TIP3      OH2            20.6968469158       -2.0451584666        7.4293130784  W2        1145            0.0000000000
      3434      1145  TIP3      H1             20.4613869158       -2.2644884666        8.3308030784  W2        1145            0.0000000000
      3435      1145  TIP3      H2             19.9135369158       -2.2520384666        6.9195630784  W2        1145            0.0000000000
      3436      1146  TIP3      OH2            23.4125069158       -2.9178084666        6.5046630784  W2        1146            0.0000000000
      3437      1146  TIP3      H1             22.4650469158       -2.8858384666        6.6369930784  W2        1146            0.0000000000
      3438      1146  TIP3      H2             23.7251769158       -3.5430984666        7.1584830784  W2        1146            0.0000000000
      3439      1147  TIP3      OH2            25.0466569158       -4.2836984666        8.5098530784  W2        1147            0.0000000000
      3440      1147  TIP3      H1             24.9498369158       -5.2359684666        8.5040430784  W2        1147            0.0000000000
      3441      1147  TIP3      H2             24.7249669158       -4.0150184666        9.3704030784  W2        1147            0.0000000000
      3442      1148  TIP3      OH2            14.8735869158       -3.0741184666        7.5574030784  W2        1148            0.0000000000
      3443      1148  TIP3      H1             15.0853269158       -3.7805084666        6.9471530784  W2        1148            0.0000000000
      3444      1148  TIP3      H2             14.7623369158       -3.5115184666        8.4015230784  W2        1148            0.0000000000
      3445      1149  TIP3      OH2            19.6546069158       -7.0729584666        6.5367530784  W2        1149            0.0000000000
      3446      1149  TIP3      H1             20.3664469158       -7.7127384666        6.5226630784  W2        1149            0.0000000000
      3447      1149  TIP3      H2             19.5536469158       -6.8061284666        5.6230630784  W2        1149            0.0000000000
      3448      1150  TIP3      OH2            20.0083569158       -5.3901184666        8.5903830784  W2        1150            0.0000000000
      3449      1150  TIP3      H1             19.8765769158       -5.8657384666        7.7702330784  W2        1150            0.0000000000
      3450      1150  TIP3      H2             19.4090969158       -4.6457584666        8.5350930784  W2        1150            0.0000000000
      3451      1151  TIP3      OH2            19.5545869158       11.4929115334       -8.2332169216  W2        1151            0.0000000000
      3452      1151  TIP3      H1             20.4876569158       11.6507815334       -8.0893769216  W2        1151            0.0000000000
      3453      1151  TIP3      H2             19.2904669158       12.1682115334       -8.8580669216  W2        1151            0.0000000000
      3454      1152  TIP3      OH2            13.1230769158        6.1292915334       -8.7504069216  W2        1152            0.0000000000
      3455      1152  TIP3      H1             14.0369969158        6.2081815334       -8.4770169216  W2        1152            0.0000000000
      3456      1152  TIP3      H2             13.1303869158        5.4422515334       -9.4168469216  W2        1152            0.0000000000
      3457      1153  TIP3      OH2            11.7721369158       11.5221415334       -3.6730169216  W2        1153            0.0000000000
      3458      1153  TIP3      H1             11.1248469158       11.0603115334       -4.2058969216  W2        1153            0.0000000000
      3459      1153  TIP3      H2             12.1265969158       10.8504715334       -3.0903969216  W2        1153            0.0000000000
      3460      1154  TIP3      OH2            12.6420569158        9.6028415334       -1.8683969216  W2        1154            0.0000000000
      3461      1154  TIP3      H1             12.3077369158        8.7225715334       -1.6963769216  W2        1154            0.0000000000
      3462      1154  TIP3      H2             12.8642969158        9.9483415334       -1.0038369216  W2        1154            0.0000000000
      3463      1155  TIP3      OH2            12.7220069158        2.6783815334        0.5830930784  W2        1155            0.0000000000
      3464      1155  TIP3      H1             12.9062969158        2.5965515334       -0.3526169216  W2        1155            0.0000000000
      3465      1155  TIP3      H2             13.5712969158        2.5540815334        1.0067330784  W2        1155            0.0000000000
      3466      1156  TIP3      OH2            12.3194869158       -2.0511184666        6.7239730784  W2        1156            0.0000000000
      3467      1156  TIP3      H1             13.2389769158       -2.1732884666        6.9602830784  W2        1156            0.0000000000
      3468      1156  TIP3      H2             11.8699369158       -2.8011484666        7.1133230784  W2        1156            0.0000000000
      3469      1157  TIP3      OH2            13.5407369158       -3.7389584666       -0.3847369216  W2        1157            0.0000000000
      3470      1157  TIP3      H1             13.9858969158       -4.5307084666       -0.0827669216  W2        1157            0.0000000000
      3471      1157  TIP3      H2             14.0070369158       -3.0224384666        0.0458230784  W2        1157            0.0000000000
      3472      1158  TIP3      OH2            11.8447669158       -0.7396584666        0.6842830784  W2        1158            0.0000000000
      3473      1158  TIP3      H1             12.3367469158       -0.9606084666       -0.1065169216  W2        1158            0.0000000000
      3474      1158  TIP3      H2             12.2068569158        0.1006815334        0.9652330784  W2        1158            0.0000000000
      3475      1159  TIP3      OH2            12.1584169158       -4.4817484666       -5.2614769216  W2        1159            0.0000000000
      3476      1159  TIP3      H1             11.2332569158       -4.2730884666       -5.3909269216  W2        1159            0.0000000000
      3477      1159  TIP3      H2             12.6124069158       -3.9976684666       -5.9512469216  W2        1159            0.0000000000
      3478      1160  TIP3      OH2            12.1219569158       -5.7438484666        3.0827730784  W2        1160            0.0000000000
      3479      1160  TIP3      H1             11.4570069158       -5.9898184666        3.7258630784  W2        1160            0.0000000000
      3480      1160  TIP3      H2             11.6790869158       -5.1218084666        2.5055730784  W2        1160            0.0000000000
      3481      1161  TIP3      OH2            14.3138869158        7.4315615334        7.2273530784  W2        1161            0.0000000000
      3482      1161  TIP3      H1             13.4931369158        7.6062115334        6.7668230784  W2        1161            0.0000000000
      3483      1161  TIP3      H2             14.0616669158        7.3580315334        8.1477930784  W2        1161            0.0000000000
      3484      1162  TIP3      OH2            17.2681769158        8.4056815334        3.4857530784  W2        1162            0.0000000000
      3485      1162  TIP3      H1             16.8432869158        9.2155315334        3.2032130784  W2        1162            0.0000000000
      3486      1162  TIP3      H2             18.1724569158        8.4910915334        3.1837330784  W2        1162            0.0000000000
      3487      1163  TIP3      OH2            21.5793169158        9.8046815334        6.4451230784  W2        1163            0.0000000000
      3488      1163  TIP3      H1             21.7640669158        9.4712915334        7.3231530784  W2        1163            0.0000000000
      3489      1163  TIP3      H2             22.4257669158       10.1145415334        6.1230430784  W2        1163            0.0000000000
      3490      1164  TIP3      OH2            23.9243569158       11.0905715334        5.6892630784  W2        1164            0.0000000000
      3491      1164  TIP3      H1             24.6012469158       10.4578015334        5.4491830784  W2        1164            0.0000000000
      3492      1164  TIP3      H2             24.2462369158       11.4916215334        6.4965930784  W2        1164            0.0000000000
      3493      1165  TIP3      OH2            14.6698469158       11.6620715334        3.5332830784  W2        1165            0.0000000000
      3494      1165  TIP3      H1             13.9494869158       12.1021715334        3.0820530784  W2        1165            0.0000000000
      3495      1165  TIP3      H2             14.3042469158       11.4115415334        4.3816830784  W2        1165            0.0000000000
      3496      1166  TIP3      OH2            17.1371069158       11.2624615334        2.5630030784  W2        1166            0.0000000000
      3497      1166  TIP3      H1             16.2723269158       11.3343115334        2.9670130784  W2        1166            0.0000000000
      3498      1166  TIP3      H2             17.0820069158       11.8091915334        1.7792530784  W2        1166            0.0000000000
      3499      1167  TIP3      OH2            21.8476669158       11.1503515334        1.7386030784  W2        1167            0.0000000000
      3500      1167  TIP3      H1             21.3910669158       11.6793215334        1.0844430784  W2        1167            0.0000000000
      3501      1167  TIP3      H2             22.0104669158       11.7534915334        2.4638330784  W2        1167            0.0000000000
      3502      1168  TIP3      OH2            24.1752969158       10.0283115334        2.6836330784  W2        1168            0.0000000000
      3503      1168  TIP3      H1             23.2706669158       10.1933315334        2.4178430784  W2        1168            0.0000000000
      3504      1168  TIP3      H2             24.6041569158       10.8815315334        2.6179730784  W2        1168            0.0000000000
      3505      1169  TIP3      OH2            14.0846569158       10.2853215334        0.4434630784  W2        1169            0.0000000000
      3506      1169  TIP3      H1             14.0662569158        9.8598315334        1.3006930784  W2        1169            0.0000000000
      3507      1169  TIP3      H2             14.8894469158        9.9668215334        0.0346830784  W2        1169            0.0000000000
      3508      1170  TIP3      OH2            16.2259669158        8.9951915334       -0.9015469216  W2        1170            0.0000000000
      3509      1170  TIP3      H1             16.0070369158        8.0789315334       -0.7319469216  W2        1170            0.0000000000
      3510      1170  TIP3      H2             17.0501869158        9.1352315334       -0.4354069216  W2        1170            0.0000000000
      3511      1171  TIP3      OH2            18.7632169158        9.4651215334       -0.0527469216  W2        1171            0.0000000000
      3512      1171  TIP3      H1             18.9757869158        8.5770215334       -0.3396569216  W2        1171            0.0000000000
      3513      1171  TIP3      H2             18.8277269158        9.4308915334        0.9016530784  W2        1171            0.0000000000
      3514      1172  TIP3      OH2            22.2715869158       -4.8708184666       -0.9084169216  W2        1172            0.0000000000
      3515      1172  TIP3      H1             21.5972669158       -5.5002584666       -0.6528369216  W2        1172            0.0000000000
      3516      1172  TIP3      H2             22.8355069158       -5.3549284666       -1.5116269216  W2        1172            0.0000000000
      3517      1173  TIP3      OH2            14.5983369158       -6.2367884666       -3.0864269216  W2        1173            0.0000000000
      3518      1173  TIP3      H1             13.8213169158       -6.4712984666       -3.5938369216  W2        1173            0.0000000000
      3519      1173  TIP3      H2             15.1286969158       -7.0335784666       -3.0776269216  W2        1173            0.0000000000
      3520      1174  TIP3      OH2            13.4346769158       -6.4389784666       -7.2828169216  W2        1174            0.0000000000
      3521      1174  TIP3      H1             13.8737469158       -5.8279284666       -7.8744669216  W2        1174            0.0000000000
      3522      1174  TIP3      H2             12.8009169158       -5.9005684666       -6.8088169216  W2        1174            0.0000000000
      3523      1175  TIP3      OH2            19.1775969158       -6.3100784666       -3.2731169216  W2        1175            0.0000000000
      3524      1175  TIP3      H1             20.0519369158       -5.9216484666       -3.3026869216  W2        1175            0.0000000000
      3525      1175  TIP3      H2             19.0416769158       -6.5252984666       -2.3503969216  W2        1175            0.0000000000
      3526      1176  TIP3      OH2            24.7344369158       -6.2800984666       -1.6239469216  W2        1176            0.0000000000
      3527      1176  TIP3      H1             24.8105969158       -6.1849384666       -2.5733469216  W2        1176            0.0000000000
      3528      1176  TIP3      H2             24.4593569158       -7.1878084666       -1.4950369216  W2        1176            0.0000000000
      3529      1177  TIP3      OH2            13.3356269158        9.5092415334       -6.3853069216  W2        1177            0.0000000000
      3530      1177  TIP3      H1             12.6506169158        9.4711315334       -7.0527969216  W2        1177            0.0000000000
      3531      1177  TIP3      H2             13.3393469158       10.4220015334       -6.0970969216  W2        1177            0.0000000000
      3532      1178  TIP3      OH2            15.2955869158       -4.5228284666       -8.8404069216  W2        1178            0.0000000000
      3533      1178  TIP3      H1             15.7869269158       -5.1525884666       -9.3678569216  W2        1178            0.0000000000
      3534      1178  TIP3      H2             15.9192169158       -4.2268884666       -8.1772869216  W2        1178            0.0000000000
      3535      1179  TIP3      OH2            20.3215969158       -4.2296784666       -6.3833569216  W2        1179            0.0000000000
      3536      1179  TIP3      H1             20.4997269158       -4.8763584666       -5.7004969216  W2        1179            0.0000000000
      3537      1179  TIP3      H2             20.2682169158       -3.3959084666       -5.9162469216  W2        1179            0.0000000000
      3538      1180  TIP3      OH2            22.1999769158       10.7187315334       -7.9876869216  W2        1180            0.0000000000
      3539      1180  TIP3      H1             23.0659969158       11.0854715334       -8.1658669216  W2        1180            0.0000000000
      3540      1180  TIP3      H2             21.9532569158       10.2795315334       -8.8016069216  W2        1180            0.0000000000
      3541      1181  TIP3      OH2            14.5561369158       -5.7225984666        6.4311930784  W2        1181            0.0000000000
      3542      1181  TIP3      H1             14.1899569158       -6.4883384666        6.8736630784  W2        1181            0.0000000000
      3543      1181  TIP3      H2             15.4689869158       -5.6935784666        6.7177030784  W2        1181            0.0000000000
      3544      1182  TIP3      OH2            16.5292169158       -6.3721584666        7.9669030784  W2        1182            0.0000000000
      3545      1182  TIP3      H1             17.4275769158       -6.6461384666        7.7822430784  W2        1182            0.0000000000
      3546      1182  TIP3      H2             16.1425269158       -7.1145584666        8.4311630784  W2        1182            0.0000000000
      3547      1183  TIP3      OH2            15.1537469158       10.4293215334       -9.3600969216  W2        1183            0.0000000000
      3548      1183  TIP3      H1             14.8862069158       10.7156115334       -8.4867869216  W2        1183            0.0000000000
      3549      1183  TIP3      H2             15.9250069158        9.8832415334       -9.2078469216  W2        1183            0.0000000000
      3550      1184  TIP3      OH2            24.9504469158       -7.0396284666        8.1491830784  W2        1184            0.0000000000
      3551      1184  TIP3      H1             25.0271669158       -7.4655584666        9.0029530784  W2        1184            0.0000000000
      3552      1184  TIP3      H2             25.8441069158       -7.0261584666        7.8065330784  W2        1184            0.0000000000
      3553      1185  TIP3      OH2           -14.0354030842       21.7754415334       -3.1276769216  W2        1185            0.0000000000
      3554      1185  TIP3      H1            -13.9462930842       22.7192615334       -3.2599669216  W2        1185            0.0000000000
      3555      1185  TIP3      H2            -14.6736430842       21.5000815334       -3.7857369216  W2        1185            0.0000000000
      3556      1186  TIP3      OH2           -15.1022730842       21.0305115334        0.2911430784  W2        1186            0.0000000000
      3557      1186  TIP3      H1            -15.1405230842       20.3841415334        0.9961030784  W2        1186            0.0000000000
      3558      1186  TIP3      H2            -15.4246230842       20.5639515334       -0.4799869216  W2        1186            0.0000000000
      3559      1187  TIP3      OH2           -22.7337730842       20.6447215334        1.8841330784  W2        1187            0.0000000000
      3560      1187  TIP3      H1            -22.6925630842       20.0190515334        2.6073730784  W2        1187            0.0000000000
      3561      1187  TIP3      H2            -22.0310030842       21.2685815334        2.0661730784  W2        1187            0.0000000000
      3562      1188  TIP3      OH2           -11.3962530842       23.9695515334       -1.4073469216  W2        1188            0.0000000000
      3563      1188  TIP3      H1            -11.8369830842       23.2491515334       -0.9567869216  W2        1188            0.0000000000
      3564      1188  TIP3      H2            -11.4092830842       24.6902715334       -0.7775769216  W2        1188            0.0000000000
      3565      1189  TIP3      OH2           -21.8104630842       25.0946115334        0.4190430784  W2        1189            0.0000000000
      3566      1189  TIP3      H1            -22.1799430842       24.2926615334        0.0494730784  W2        1189            0.0000000000
      3567      1189  TIP3      H2            -20.8693530842       24.9261015334        0.4653830784  W2        1189            0.0000000000
      3568      1190  TIP3      OH2           -25.2004130842       18.7548715334       -4.1880769216  W2        1190            0.0000000000
      3569      1190  TIP3      H1            -25.6480730842       19.6007415334       -4.2064269216  W2        1190            0.0000000000
      3570      1190  TIP3      H2            -25.7612930842       18.1752915334       -4.7035669216  W2        1190            0.0000000000
      3571      1191  TIP3      OH2           -24.4898030842       20.9168315334       -2.0622769216  W2        1191            0.0000000000
      3572      1191  TIP3      H1            -24.2764530842       20.1469915334       -1.5349769216  W2        1191            0.0000000000
      3573      1191  TIP3      H2            -23.7520430842       21.0065015334       -2.6655169216  W2        1191            0.0000000000
      3574      1192  TIP3      OH2           -16.7128330842       23.4626515334        0.6972430784  W2        1192            0.0000000000
      3575      1192  TIP3      H1            -16.4090430842       22.7767915334        0.1026530784  W2        1192            0.0000000000
      3576      1192  TIP3      H2            -15.9914330842       23.5815215334        1.3150430784  W2        1192            0.0000000000
      3577      1193  TIP3      OH2            -8.0498530842       15.0641815334        1.5578630784  W2        1193            0.0000000000
      3578      1193  TIP3      H1             -8.0006330842       15.6743015334        2.2937730784  W2        1193            0.0000000000
      3579      1193  TIP3      H2             -7.6243430842       15.5252715334        0.8349730784  W2        1193            0.0000000000
      3580      1194  TIP3      OH2           -13.5721330842       17.8568915334        1.0247230784  W2        1194            0.0000000000
      3581      1194  TIP3      H1            -13.4295430842       16.9105915334        1.0448830784  W2        1194            0.0000000000
      3582      1194  TIP3      H2            -13.6782330842       18.0638715334        0.0962130784  W2        1194            0.0000000000
      3583      1195  TIP3      OH2           -20.4173030842       15.9585315334       -1.7027969216  W2        1195            0.0000000000
      3584      1195  TIP3      H1            -20.3741930842       16.8183815334       -2.1211669216  W2        1195            0.0000000000
      3585      1195  TIP3      H2            -20.8748930842       15.4060015334       -2.3364769216  W2        1195            0.0000000000
      3586      1196  TIP3      OH2           -12.6950330842       16.0890915334       -3.3019669216  W2        1196            0.0000000000
      3587      1196  TIP3      H1            -12.0486030842       15.7604115334       -2.6772069216  W2        1196            0.0000000000
      3588      1196  TIP3      H2            -12.1850930842       16.6069915334       -3.9248269216  W2        1196            0.0000000000
      3589      1197  TIP3      OH2           -23.7971530842       18.3551115334       -0.9406569216  W2        1197            0.0000000000
      3590      1197  TIP3      H1            -23.1434930842       17.8052815334       -0.5086469216  W2        1197            0.0000000000
      3591      1197  TIP3      H2            -23.7732230842       18.0810115334       -1.8574569216  W2        1197            0.0000000000
      3592      1198  TIP3      OH2           -18.6407030842       19.9052415334       -1.7255069216  W2        1198            0.0000000000
      3593      1198  TIP3      H1            -18.0246030842       19.3787815334       -1.2161069216  W2        1198            0.0000000000
      3594      1198  TIP3      H2            -19.2268230842       19.2651115334       -2.1291469216  W2        1198            0.0000000000
      3595      1199  TIP3      OH2            -7.6583930842       16.5421015334        3.7938430784  W2        1199            0.0000000000
      3596      1199  TIP3      H1             -8.3469330842       17.2001715334        3.6985030784  W2        1199            0.0000000000
      3597      1199  TIP3      H2             -7.6429330842       16.3448915334        4.7303830784  W2        1199            0.0000000000
      3598      1200  TIP3      OH2           -21.6071130842       14.8763715334        2.3712830784  W2        1200            0.0000000000
      3599      1200  TIP3      H1            -21.8259430842       15.4064315334        1.6048830784  W2        1200            0.0000000000
      3600      1200  TIP3      H2            -22.2750230842       15.1029215334        3.0184230784  W2        1200            0.0000000000
      3601      1201  TIP3      OH2           -14.2381330842       24.3764815334       -4.0848069216  W2        1201            0.0000000000
      3602      1201  TIP3      H1            -14.5336230842       24.0537115334       -4.9361169216  W2        1201            0.0000000000
      3603      1201  TIP3      H2            -14.5623530842       25.2761515334       -4.0435469216  W2        1201            0.0000000000
      3604      1202  TIP3      OH2           -19.0379730842       22.5519415334        2.6586530784  W2        1202            0.0000000000
      3605      1202  TIP3      H1            -19.7780630842       23.1500915334        2.7621730784  W2        1202            0.0000000000
      3606      1202  TIP3      H2            -18.3240230842       23.1059015334        2.3430130784  W2        1202            0.0000000000
      3607      1203  TIP3      OH2           -10.9311930842       15.3800215334       -1.3213769216  W2        1203            0.0000000000
      3608      1203  TIP3      H1            -11.1463930842       14.6143615334       -0.7887769216  W2        1203            0.0000000000
      3609      1203  TIP3      H2            -10.2754530842       15.8524815334       -0.8085269216  W2        1203            0.0000000000
      3610      1204  TIP3      OH2           -22.0133830842       16.7685515334        0.3235030784  W2        1204            0.0000000000
      3611      1204  TIP3      H1            -21.3997530842       17.4013115334        0.6967430784  W2        1204            0.0000000000
      3612      1204  TIP3      H2            -21.5013130842       16.2960515334       -0.3328069216  W2        1204            0.0000000000
      3613      1205  TIP3      OH2           -20.6305430842       24.5162415334        3.4458030784  W2        1205            0.0000000000
      3614      1205  TIP3      H1            -20.6357830842       25.3955915334        3.0677330784  W2        1205            0.0000000000
      3615      1205  TIP3      H2            -21.4841330842       24.4326515334        3.8707930784  W2        1205            0.0000000000
      3616      1206  TIP3      OH2           -24.5094530842       24.1870315334       -5.7722669216  W2        1206            0.0000000000
      3617      1206  TIP3      H1            -24.7813630842       24.4161315334       -6.6609769216  W2        1206            0.0000000000
      3618      1206  TIP3      H2            -24.4638830842       25.0249115334       -5.3117369216  W2        1206            0.0000000000
      3619      1207  TIP3      OH2           -10.8844830842       25.8086215334        0.9405830784  W2        1207            0.0000000000
      3620      1207  TIP3      H1            -11.8261130842       25.8670115334        1.1022730784  W2        1207            0.0000000000
      3621      1207  TIP3      H2            -10.6078730842       26.7146715334        0.8035530784  W2        1207            0.0000000000
      3622      1208  TIP3      OH2           -10.5837830842       14.0951515334        2.3579730784  W2        1208            0.0000000000
      3623      1208  TIP3      H1            -11.3198630842       14.7058615334        2.3201030784  W2        1208            0.0000000000
      3624      1208  TIP3      H2             -9.9003830842       14.5100515334        1.8316130784  W2        1208            0.0000000000
      3625      1209  TIP3      OH2           -17.5806430842       12.1818815334       -0.1762269216  W2        1209            0.0000000000
      3626      1209  TIP3      H1            -17.6982230842       11.2334815334       -0.2303969216  W2        1209            0.0000000000
      3627      1209  TIP3      H2            -18.4356330842       12.5144915334        0.0968830784  W2        1209            0.0000000000
      3628      1210  TIP3      OH2           -11.4727130842       25.4908215334       -3.9255969216  W2        1210            0.0000000000
      3629      1210  TIP3      H1            -11.7302330842       24.8008315334       -4.5370069216  W2        1210            0.0000000000
      3630      1210  TIP3      H2            -11.4016330842       25.0479415334       -3.0800069216  W2        1210            0.0000000000
      3631      1211  TIP3      OH2            -9.7866930842       24.0574915334        4.5517530784  W2        1211            0.0000000000
      3632      1211  TIP3      H1             -9.6470630842       23.4657415334        3.8124530784  W2        1211            0.0000000000
      3633      1211  TIP3      H2             -9.6194130842       24.9300815334        4.1956330784  W2        1211            0.0000000000
      3634      1212  TIP3      OH2           -15.3141530842       21.0194415334       -5.6756469216  W2        1212            0.0000000000
      3635      1212  TIP3      H1            -16.0256030842       21.5544115334       -6.0275969216  W2        1212            0.0000000000
      3636      1212  TIP3      H2            -14.6231930842       21.0746515334       -6.3357569216  W2        1212            0.0000000000
      3637      1213  TIP3      OH2           -15.2602330842       19.4768715334       -8.6371469216  W2        1213            0.0000000000
      3638      1213  TIP3      H1            -14.5592430842       19.4995615334       -7.9857469216  W2        1213            0.0000000000
      3639      1213  TIP3      H2            -14.9579430842       18.8488415334       -9.2932169216  W2        1213            0.0000000000
      3640      1214  TIP3      OH2            -7.9447630842       20.3972915334        2.6177930784  W2        1214            0.0000000000
      3641      1214  TIP3      H1             -8.5973530842       21.0918515334        2.7068830784  W2        1214            0.0000000000
      3642      1214  TIP3      H2             -7.4797330842       20.6073815334        1.8079530784  W2        1214            0.0000000000
      3643      1215  TIP3      OH2           -11.9083830842       21.2287715334       -4.7240569216  W2        1215            0.0000000000
      3644      1215  TIP3      H1            -12.6402830842       21.4571415334       -4.1509969216  W2        1215            0.0000000000
      3645      1215  TIP3      H2            -11.4611630842       20.5150415334       -4.2693069216  W2        1215            0.0000000000
      3646      1216  TIP3      OH2           -12.0110330842       19.4030315334        4.3436430784  W2        1216            0.0000000000
      3647      1216  TIP3      H1            -11.9311230842       20.1664715334        4.9154930784  W2        1216            0.0000000000
      3648      1216  TIP3      H2            -12.6122630842       19.6822715334        3.6531530784  W2        1216            0.0000000000
      3649      1217  TIP3      OH2           -20.2630130842       21.8593915334       -2.8415569216  W2        1217            0.0000000000
      3650      1217  TIP3      H1            -20.5934930842       21.4887315334       -3.6598569216  W2        1217            0.0000000000
      3651      1217  TIP3      H2            -19.6746030842       21.1887915334       -2.4947269216  W2        1217            0.0000000000
      3652      1218  TIP3      OH2           -18.8962630842       25.2874515334       -0.1603369216  W2        1218            0.0000000000
      3653      1218  TIP3      H1            -18.9911330842       24.7087615334       -0.9168769216  W2        1218            0.0000000000
      3654      1218  TIP3      H2            -18.1669030842       24.9160215334        0.3359430784  W2        1218            0.0000000000
      3655      1219  TIP3      OH2           -19.8964630842       20.6279515334        0.7919430784  W2        1219            0.0000000000
      3656      1219  TIP3      H1            -19.3312130842       20.7493715334        0.0290630784  W2        1219            0.0000000000
      3657      1219  TIP3      H2            -19.5775730842       21.2654515334        1.4307930784  W2        1219            0.0000000000
      3658      1220  TIP3      OH2           -19.0163930842       25.0272215334        5.5091330784  W2        1220            0.0000000000
      3659      1220  TIP3      H1            -19.3276430842       25.8095415334        5.9644530784  W2        1220            0.0000000000
      3660      1220  TIP3      H2            -19.6663730842       24.8741315334        4.8233330784  W2        1220            0.0000000000
      3661      1221  TIP3      OH2           -13.0374330842       20.3910615334       -7.0389369216  W2        1221            0.0000000000
      3662      1221  TIP3      H1            -12.4578830842       20.5410915334       -6.2920469216  W2        1221            0.0000000000
      3663      1221  TIP3      H2            -12.6234330842       20.8618015334       -7.7622969216  W2        1221            0.0000000000
      3664      1222  TIP3      OH2           -22.0964030842       21.2253315334        4.7377030784  W2        1222            0.0000000000
      3665      1222  TIP3      H1            -22.0260830842       21.8760115334        5.4362030784  W2        1222            0.0000000000
      3666      1222  TIP3      H2            -22.9871830842       21.3280815334        4.4027930784  W2        1222            0.0000000000
      3667      1223  TIP3      OH2            -9.3385930842       12.1411015334       -7.2259669216  W2        1223            0.0000000000
      3668      1223  TIP3      H1            -10.2385230842       12.2800015334       -6.9309069216  W2        1223            0.0000000000
      3669      1223  TIP3      H2             -9.0867530842       12.9725615334       -7.6277969216  W2        1223            0.0000000000
      3670      1224  TIP3      OH2           -21.2727430842       20.9288215334       -5.2522769216  W2        1224            0.0000000000
      3671      1224  TIP3      H1            -21.5646130842       21.6969915334       -5.7431469216  W2        1224            0.0000000000
      3672      1224  TIP3      H2            -21.9472230842       20.2694415334       -5.4151369216  W2        1224            0.0000000000
      3673      1225  TIP3      OH2           -25.1797330842       23.2917415334        3.5627030784  W2        1225            0.0000000000
      3674      1225  TIP3      H1            -25.6808930842       23.2636815334        2.7476730784  W2        1225            0.0000000000
      3675      1225  TIP3      H2            -25.1743630842       22.3860615334        3.8724330784  W2        1225            0.0000000000
      3676      1226  TIP3      OH2           -10.0796330842       18.2313415334        6.6093130784  W2        1226            0.0000000000
      3677      1226  TIP3      H1            -10.4869530842       18.7119015334        5.8886430784  W2        1226            0.0000000000
      3678      1226  TIP3      H2            -10.0390630842       17.3259415334        6.3013930784  W2        1226            0.0000000000
      3679      1227  TIP3      OH2           -22.9306830842       24.6152815334        4.6059830784  W2        1227            0.0000000000
      3680      1227  TIP3      H1            -22.7145530842       24.2538415334        5.4655630784  W2        1227            0.0000000000
      3681      1227  TIP3      H2            -23.7862130842       24.2406615334        4.3963330784  W2        1227            0.0000000000
      3682      1228  TIP3      OH2           -20.3118830842       13.0853315334        0.6014030784  W2        1228            0.0000000000
      3683      1228  TIP3      H1            -21.1735130842       12.9981515334        0.1936930784  W2        1228            0.0000000000
      3684      1228  TIP3      H2            -20.3343130842       13.9413415334        1.0291630784  W2        1228            0.0000000000
      3685      1229  TIP3      OH2           -15.6491030842       12.8073715334        3.9761030784  W2        1229            0.0000000000
      3686      1229  TIP3      H1            -15.2287930842       12.3920815334        4.7291630784  W2        1229            0.0000000000
      3687      1229  TIP3      H2            -16.5821430842       12.6287015334        4.0933030784  W2        1229            0.0000000000
      3688      1230  TIP3      OH2           -12.3226130842       16.5628915334        4.8295530784  W2        1230            0.0000000000
      3689      1230  TIP3      H1            -12.8366630842       16.4371115334        5.6271530784  W2        1230            0.0000000000
      3690      1230  TIP3      H2            -12.4781430842       17.4752015334        4.5851730784  W2        1230            0.0000000000
      3691      1231  TIP3      OH2           -11.5601230842       21.4238915334       -9.4091469216  W2        1231            0.0000000000
      3692      1231  TIP3      H1            -11.5180430842       21.2012815334      -10.3391469216  W2        1231            0.0000000000
      3693      1231  TIP3      H2            -10.7109130842       21.8226015334       -9.2191569216  W2        1231            0.0000000000
      3694      1232  TIP3      OH2           -15.9873730842       15.2997115334       -8.7388169216  W2        1232            0.0000000000
      3695      1232  TIP3      H1            -16.2408930842       15.3188715334       -7.8160069216  W2        1232            0.0000000000
      3696      1232  TIP3      H2            -16.2441630842       14.4282515334       -9.0401969216  W2        1232            0.0000000000
      3697      1233  TIP3      OH2           -20.2208730842       18.0507815334        1.6964230784  W2        1233            0.0000000000
      3698      1233  TIP3      H1            -20.8626630842       18.0105115334        2.4054330784  W2        1233            0.0000000000
      3699      1233  TIP3      H2            -20.1836730842       18.9772515334        1.4587230784  W2        1233            0.0000000000
      3700      1234  TIP3      OH2           -20.2239630842       18.2717915334       -3.3915769216  W2        1234            0.0000000000
      3701      1234  TIP3      H1            -21.1166730842       17.9314015334       -3.4501969216  W2        1234            0.0000000000
      3702      1234  TIP3      H2            -19.7733030842       17.8948815334       -4.1472569216  W2        1234            0.0000000000
      3703      1235  TIP3      OH2           -14.6884130842       18.6878215334       -4.5744969216  W2        1235            0.0000000000
      3704      1235  TIP3      H1            -15.0973830842       19.5026815334       -4.8660169216  W2        1235            0.0000000000
      3705      1235  TIP3      H2            -13.9677930842       18.5478315334       -5.1887869216  W2        1235            0.0000000000
      3706      1236  TIP3      OH2           -15.5862530842       18.8634615334        6.9135730784  W2        1236            0.0000000000
      3707      1236  TIP3      H1            -16.1488730842       18.1586215334        7.2343530784  W2        1236            0.0000000000
      3708      1236  TIP3      H2            -14.7599130842       18.7426515334        7.3813330784  W2        1236            0.0000000000
      3709      1237  TIP3      OH2           -13.6836430842       18.1338615334       -1.7605269216  W2        1237            0.0000000000
      3710      1237  TIP3      H1            -13.8791930842       18.7395415334       -2.4754669216  W2        1237            0.0000000000
      3711      1237  TIP3      H2            -13.5023830842       17.3003815334       -2.1948969216  W2        1237            0.0000000000
      3712      1238  TIP3      OH2           -22.4708230842       18.3711315334        3.5636230784  W2        1238            0.0000000000
      3713      1238  TIP3      H1            -22.5088830842       18.7712915334        4.4323330784  W2        1238            0.0000000000
      3714      1238  TIP3      H2            -22.9617130842       17.5543715334        3.6539130784  W2        1238            0.0000000000
      3715      1239  TIP3      OH2           -19.1050830842       15.7453615334       -9.6377769216  W2        1239            0.0000000000
      3716      1239  TIP3      H1            -19.5360130842       15.3003715334       -8.9080369216  W2        1239            0.0000000000
      3717      1239  TIP3      H2            -19.8232130842       16.1169915334      -10.1500269216  W2        1239            0.0000000000
      3718      1240  TIP3      OH2           -25.8627430842       15.4873115334       -2.5859069216  W2        1240            0.0000000000
      3719      1240  TIP3      H1            -25.2319730842       15.4585215334       -1.8665169216  W2        1240            0.0000000000
      3720      1240  TIP3      H2            -25.4133130842       15.0621815334       -3.3163169216  W2        1240            0.0000000000
      3721      1241  TIP3      OH2           -24.5885330842       16.2335115334       -7.1618669216  W2        1241            0.0000000000
      3722      1241  TIP3      H1            -24.1143630842       16.8245015334       -7.7467769216  W2        1241            0.0000000000
      3723      1241  TIP3      H2            -25.3058930842       16.7638015334       -6.8148569216  W2        1241            0.0000000000
      3724      1242  TIP3      OH2           -14.4197230842       19.7719915334        2.9107130784  W2        1242            0.0000000000
      3725      1242  TIP3      H1            -14.0962430842       19.1409615334        2.2677630784  W2        1242            0.0000000000
      3726      1242  TIP3      H2            -14.8597930842       19.2372115334        3.5714530784  W2        1242            0.0000000000
      3727      1243  TIP3      OH2           -17.6424330842       15.6995415334       -2.3051669216  W2        1243            0.0000000000
      3728      1243  TIP3      H1            -18.5533230842       15.7562215334       -2.0165669216  W2        1243            0.0000000000
      3729      1243  TIP3      H2            -17.1371430842       15.6390915334       -1.4944469216  W2        1243            0.0000000000
      3730      1244  TIP3      OH2           -22.8140930842       17.3281715334       -3.4784069216  W2        1244            0.0000000000
      3731      1244  TIP3      H1            -23.7032930842       17.4277215334       -3.8184469216  W2        1244            0.0000000000
      3732      1244  TIP3      H2            -22.5176030842       16.4864715334       -3.8246169216  W2        1244            0.0000000000
      3733      1245  TIP3      OH2           -19.1609130842       17.3284315334       -5.8219469216  W2        1245            0.0000000000
      3734      1245  TIP3      H1            -18.2293630842       17.4574315334       -5.6436369216  W2        1245            0.0000000000
      3735      1245  TIP3      H2            -19.3758830842       17.9978615334       -6.4714769216  W2        1245            0.0000000000
      3736      1246  TIP3      OH2           -13.2372430842       14.9341715334        0.9590130784  W2        1246            0.0000000000
      3737      1246  TIP3      H1            -13.9140830842       15.0654815334        1.6229830784  W2        1246            0.0000000000
      3738      1246  TIP3      H2            -13.7227530842       14.7791215334        0.1487830784  W2        1246            0.0000000000
      3739      1247  TIP3      OH2           -20.4868930842       18.5226515334       -8.2553369216  W2        1247            0.0000000000
      3740      1247  TIP3      H1            -21.0293830842       18.1430315334       -8.9465769216  W2        1247            0.0000000000
      3741      1247  TIP3      H2            -19.6534030842       18.7171215334       -8.6839269216  W2        1247            0.0000000000
      3742      1248  TIP3      OH2           -22.3517530842       23.0798415334        6.8438230784  W2        1248            0.0000000000
      3743      1248  TIP3      H1            -21.6195130842       23.3344315334        7.4052730784  W2        1248            0.0000000000
      3744      1248  TIP3      H2            -23.1318830842       23.2843815334        7.3593630784  W2        1248            0.0000000000
      3745      1249  TIP3      OH2           -16.3224630842       18.4868415334       -0.4182069216  W2        1249            0.0000000000
      3746      1249  TIP3      H1            -15.7581230842       17.9405015334       -0.9652469216  W2        1249            0.0000000000
      3747      1249  TIP3      H2            -16.4701230842       17.9650315334        0.3705530784  W2        1249            0.0000000000
      3748      1250  TIP3      OH2           -21.3204930842       14.6234515334       -3.9997269216  W2        1250            0.0000000000
      3749      1250  TIP3      H1            -21.6375430842       13.7209815334       -4.0351869216  W2        1250            0.0000000000
      3750      1250  TIP3      H2            -20.5390830842       14.6251915334       -4.5525669216  W2        1250            0.0000000000
      3751      1251  TIP3      OH2           -17.6958730842       16.8754515334        1.9958330784  W2        1251            0.0000000000
      3752      1251  TIP3      H1            -18.5313430842       17.3294015334        2.1060730784  W2        1251            0.0000000000
      3753      1251  TIP3      H2            -17.1718130842       17.1513015334        2.7478230784  W2        1251            0.0000000000
      3754      1252  TIP3      OH2           -17.1516130842       23.0882215334       -6.3195269216  W2        1252            0.0000000000
      3755      1252  TIP3      H1            -17.8965130842       22.5807515334       -6.6417369216  W2        1252            0.0000000000
      3756      1252  TIP3      H2            -17.2858930842       23.1370215334       -5.3730469216  W2        1252            0.0000000000
      3757      1253  TIP3      OH2           -10.0017230842       22.2210415334        2.4672330784  W2        1253            0.0000000000
      3758      1253  TIP3      H1             -9.3598430842       22.6776715334        1.9234530784  W2        1253            0.0000000000
      3759      1253  TIP3      H2            -10.8320330842       22.3342815334        2.0046430784  W2        1253            0.0000000000
      3760      1254  TIP3      OH2           -13.2539330842       15.9022115334       -8.1202669216  W2        1254            0.0000000000
      3761      1254  TIP3      H1            -14.1925130842       16.0137715334       -8.2713869216  W2        1254            0.0000000000
      3762      1254  TIP3      H2            -12.9567230842       16.7589015334       -7.8136969216  W2        1254            0.0000000000
      3763      1255  TIP3      OH2           -15.6324030842       23.2725515334        4.9173830784  W2        1255            0.0000000000
      3764      1255  TIP3      H1            -15.9777930842       22.8907915334        5.7243430784  W2        1255            0.0000000000
      3765      1255  TIP3      H2            -15.8323930842       24.2059115334        4.9886730784  W2        1255            0.0000000000
      3766      1256  TIP3      OH2           -12.5355830842       17.7694815334       -6.4595269216  W2        1256            0.0000000000
      3767      1256  TIP3      H1            -11.6436830842       17.6319815334       -6.1404069216  W2        1256            0.0000000000
      3768      1256  TIP3      H2            -12.4792230842       18.5600915334       -6.9961769216  W2        1256            0.0000000000
      3769      1257  TIP3      OH2           -22.0267830842       22.3832215334       -0.5497369216  W2        1257            0.0000000000
      3770      1257  TIP3      H1            -21.2820630842       22.3807915334       -1.1510869216  W2        1257            0.0000000000
      3771      1257  TIP3      H2            -21.9491230842       21.5596015334       -0.0682269216  W2        1257            0.0000000000
      3772      1258  TIP3      OH2           -15.0262030842       24.5466515334       -7.2940669216  W2        1258            0.0000000000
      3773      1258  TIP3      H1            -15.3213630842       25.3734415334       -6.9125869216  W2        1258            0.0000000000
      3774      1258  TIP3      H2            -15.7292030842       23.9273415334       -7.0979269216  W2        1258            0.0000000000
      3775      1259  TIP3      OH2           -25.0188130842       20.8439115334        4.7651130784  W2        1259            0.0000000000
      3776      1259  TIP3      H1            -24.7959530842       20.4258715334        5.5968630784  W2        1259            0.0000000000
      3777      1259  TIP3      H2            -25.6208030842       20.2314115334        4.3423930784  W2        1259            0.0000000000
      3778      1260  TIP3      OH2           -18.0023230842       20.3609015334        6.9780830784  W2        1260            0.0000000000
      3779      1260  TIP3      H1            -18.2982430842       20.1952015334        6.0829930784  W2        1260            0.0000000000
      3780      1260  TIP3      H2            -17.0708030842       20.1409315334        6.9674730784  W2        1260            0.0000000000
      3781      1261  TIP3      OH2           -13.3820430842       25.7341015334        4.8678830784  W2        1261            0.0000000000
      3782      1261  TIP3      H1            -14.2826130842       25.9173615334        4.6002730784  W2        1261            0.0000000000
      3783      1261  TIP3      H2            -13.3479330842       25.9930315334        5.7887630784  W2        1261            0.0000000000
      3784      1262  TIP3      OH2            -7.6507130842       17.9788915334       -6.7648569216  W2        1262            0.0000000000
      3785      1262  TIP3      H1             -8.2050830842       17.5826915334       -7.4371069216  W2        1262            0.0000000000
      3786      1262  TIP3      H2             -7.5503530842       18.8894115334       -7.0425269216  W2        1262            0.0000000000
      3787      1263  TIP3      OH2            -7.6875130842       23.7790615334        6.0722930784  W2        1263            0.0000000000
      3788      1263  TIP3      H1             -8.5386630842       24.0174415334        5.7049330784  W2        1263            0.0000000000
      3789      1263  TIP3      H2             -7.0971730842       23.7623815334        5.3190030784  W2        1263            0.0000000000
      3790      1264  TIP3      OH2           -12.1951530842       21.5728815334        0.7215430784  W2        1264            0.0000000000
      3791      1264  TIP3      H1            -13.1234630842       21.3410715334        0.6944730784  W2        1264            0.0000000000
      3792      1264  TIP3      H2            -11.7440430842       20.7958615334        0.3914230784  W2        1264            0.0000000000
      3793      1265  TIP3      OH2           -19.6518430842       25.9010415334       -3.1455869216  W2        1265            0.0000000000
      3794      1265  TIP3      H1            -19.1246230842       26.6744815334       -3.3457069216  W2        1265            0.0000000000
      3795      1265  TIP3      H2            -20.5319930842       26.1259615334       -3.4471869216  W2        1265            0.0000000000
      3796      1266  TIP3      OH2           -23.8970730842       20.7634515334       -8.5583469216  W2        1266            0.0000000000
      3797      1266  TIP3      H1            -23.2810830842       21.3901715334       -8.1788669216  W2        1266            0.0000000000
      3798      1266  TIP3      H2            -24.7588130842       21.0794315334       -8.2866969216  W2        1266            0.0000000000
      3799      1267  TIP3      OH2           -18.2246130842       23.5640315334       -3.5691569216  W2        1267            0.0000000000
      3800      1267  TIP3      H1            -18.4656130842       24.4894715334       -3.5276269216  W2        1267            0.0000000000
      3801      1267  TIP3      H2            -18.9652530842       23.1051615334       -3.1727669216  W2        1267            0.0000000000
      3802      1268  TIP3      OH2           -14.1658730842       23.8124615334        2.4465130784  W2        1268            0.0000000000
      3803      1268  TIP3      H1            -14.5917430842       23.5846315334        3.2729130784  W2        1268            0.0000000000
      3804      1268  TIP3      H2            -13.5852930842       23.0736415334        2.2640430784  W2        1268            0.0000000000
      3805      1269  TIP3      OH2           -11.9629830842       24.7415115334       -8.4795869216  W2        1269            0.0000000000
      3806      1269  TIP3      H1            -11.6096730842       24.3614915334       -7.6752369216  W2        1269            0.0000000000
      3807      1269  TIP3      H2            -12.9116330842       24.6479915334       -8.3926569216  W2        1269            0.0000000000
      3808      1270  TIP3      OH2           -23.3848630842       15.5971815334        4.3232530784  W2        1270            0.0000000000
      3809      1270  TIP3      H1            -24.2776330842       15.9357215334        4.2556530784  W2        1270            0.0000000000
      3810      1270  TIP3      H2            -23.4835830842       14.7417915334        4.7413330784  W2        1270            0.0000000000
      3811      1271  TIP3      OH2           -11.0970530842       23.4137115334       -6.2527969216  W2        1271            0.0000000000
      3812      1271  TIP3      H1            -11.3742930842       22.6856415334       -5.6966869216  W2        1271            0.0000000000
      3813      1271  TIP3      H2            -10.1697530842       23.5329115334       -6.0475369216  W2        1271            0.0000000000
      3814      1272  TIP3      OH2           -17.8722030842       25.8531215334      -10.0325869216  W2        1272            0.0000000000
      3815      1272  TIP3      H1            -17.6332230842       25.1049315334      -10.5796969216  W2        1272            0.0000000000
      3816      1272  TIP3      H2            -18.1410730842       25.4652915334       -9.1998069216  W2        1272            0.0000000000
      3817      1273  TIP3      OH2           -18.9351430842       25.4235015334       -7.5763269216  W2        1273            0.0000000000
      3818      1273  TIP3      H1            -18.7883430842       24.9034815334       -6.7862369216  W2        1273            0.0000000000
      3819      1273  TIP3      H2            -18.9379730842       26.3302615334       -7.2697369216  W2        1273            0.0000000000
      3820      1274  TIP3      OH2           -22.4820330842       22.6758315334       -7.0657869216  W2        1274            0.0000000000
      3821      1274  TIP3      H1            -23.1681030842       23.0280815334       -6.4988169216  W2        1274            0.0000000000
      3822      1274  TIP3      H2            -21.9592430842       23.4387915334       -7.3123569216  W2        1274            0.0000000000
      3823      1275  TIP3      OH2           -14.6505230842       15.3382115334        3.2131130784  W2        1275            0.0000000000
      3824      1275  TIP3      H1            -13.9517330842       15.4120815334        3.8630830784  W2        1275            0.0000000000
      3825      1275  TIP3      H2            -15.0313830842       14.4737115334        3.3674030784  W2        1275            0.0000000000
      3826      1276  TIP3      OH2           -13.8660330842       14.9903815334       -5.6896569216  W2        1276            0.0000000000
      3827      1276  TIP3      H1            -13.6462030842       15.4619215334       -6.4931169216  W2        1276            0.0000000000
      3828      1276  TIP3      H2            -13.3076330842       15.3846415334       -5.0195969216  W2        1276            0.0000000000
      3829      1277  TIP3      OH2           -16.6660430842       16.7182615334       -4.8548169216  W2        1277            0.0000000000
      3830      1277  TIP3      H1            -15.8537830842       17.2225815334       -4.8086469216  W2        1277            0.0000000000
      3831      1277  TIP3      H2            -16.9107430842       16.5732315334       -3.9408569216  W2        1277            0.0000000000
      3832      1278  TIP3      OH2           -16.1304030842       17.7045315334        4.3298430784  W2        1278            0.0000000000
      3833      1278  TIP3      H1            -16.0113730842       18.2780715334        5.0868830784  W2        1278            0.0000000000
      3834      1278  TIP3      H2            -15.4749430842       17.0164715334        4.4446230784  W2        1278            0.0000000000
      3835      1279  TIP3      OH2           -15.7823730842       13.7995615334       -3.9167069216  W2        1279            0.0000000000
      3836      1279  TIP3      H1            -16.1290230842       14.4166215334       -3.2722769216  W2        1279            0.0000000000
      3837      1279  TIP3      H2            -15.1236830842       14.3001315334       -4.3981569216  W2        1279            0.0000000000
      3838      1280  TIP3      OH2           -20.1246730842       14.8625015334       -7.2294569216  W2        1280            0.0000000000
      3839      1280  TIP3      H1            -20.2081930842       15.7508115334       -6.8828169216  W2        1280            0.0000000000
      3840      1280  TIP3      H2            -19.2346430842       14.5971715334       -6.9977769216  W2        1280            0.0000000000
      3841      1281  TIP3      OH2            -9.9258230842       15.6115615334        5.1648130784  W2        1281            0.0000000000
      3842      1281  TIP3      H1            -10.8422430842       15.8737315334        5.0771830784  W2        1281            0.0000000000
      3843      1281  TIP3      H2             -9.5903230842       15.6084615334        4.2683430784  W2        1281            0.0000000000
      3844      1282  TIP3      OH2           -11.3237230842       19.3616615334       -0.7394569216  W2        1282            0.0000000000
      3845      1282  TIP3      H1            -12.1212830842       18.9466815334       -1.0679569216  W2        1282            0.0000000000
      3846      1282  TIP3      H2            -10.8786130842       18.6710315334       -0.2484069216  W2        1282            0.0000000000
      3847      1283  TIP3      OH2           -21.8661430842       25.2897215334       -8.1690069216  W2        1283            0.0000000000
      3848      1283  TIP3      H1            -21.2739930842       25.9892015334       -7.8927669216  W2        1283            0.0000000000
      3849      1283  TIP3      H2            -21.4068430842       24.8566715334       -8.8885469216  W2        1283            0.0000000000
      3850      1284  TIP3      OH2           -23.5502230842       17.9540215334       -9.0530669216  W2        1284            0.0000000000
      3851      1284  TIP3      H1            -23.5949630842       18.8933315334       -8.8743669216  W2        1284            0.0000000000
      3852      1284  TIP3      H2            -24.4379030842       17.7185115334       -9.3228569216  W2        1284            0.0000000000
      3853      1285  TIP3      OH2           -22.7420230842       12.7356815334       -0.3799669216  W2        1285            0.0000000000
      3854      1285  TIP3      H1            -22.9710430842       12.7949315334       -1.3074669216  W2        1285            0.0000000000
      3855      1285  TIP3      H2            -23.1846830842       11.9442315334       -0.0735569216  W2        1285            0.0000000000
      3856      1286  TIP3      OH2           -24.6163730842       23.0991715334        8.0648430784  W2        1286            0.0000000000
      3857      1286  TIP3      H1            -24.4723230842       22.1972415334        7.7785130784  W2        1286            0.0000000000
      3858      1286  TIP3      H2            -25.3886330842       23.3853815334        7.5770730784  W2        1286            0.0000000000
      3859      1287  TIP3      OH2           -20.2750030842       23.4427415334       -9.8026969216  W2        1287            0.0000000000
      3860      1287  TIP3      H1            -20.2105930842       22.6487015334       -9.2720569216  W2        1287            0.0000000000
      3861      1287  TIP3      H2            -19.6220830842       23.3240215334      -10.4924969216  W2        1287            0.0000000000
      3862      1288  TIP3      OH2           -17.9607630842       23.0689815334        7.4974830784  W2        1288            0.0000000000
      3863      1288  TIP3      H1            -18.2893830842       23.3397915334        6.6402230784  W2        1288            0.0000000000
      3864      1288  TIP3      H2            -17.8089430842       22.1279615334        7.4099830784  W2        1288            0.0000000000
      3865      1289  TIP3      OH2           -14.9226630842       24.4899115334      -10.0668969216  W2        1289            0.0000000000
      3866      1289  TIP3      H1            -15.1912530842       24.6701215334       -9.1660069216  W2        1289            0.0000000000
      3867      1289  TIP3      H2            -15.1291030842       23.5645315334      -10.1983169216  W2        1289            0.0000000000
      3868      1290  TIP3      OH2           -12.2262430842       22.9847115334        4.8807130784  W2        1290            0.0000000000
      3869      1290  TIP3      H1            -11.4807630842       23.5730815334        4.7611130784  W2        1290            0.0000000000
      3870      1290  TIP3      H2            -12.9835630842       23.5666815334        4.9440230784  W2        1290            0.0000000000
      3871      1291  TIP3      OH2           -23.7837230842       20.2995015334        7.4847730784  W2        1291            0.0000000000
      3872      1291  TIP3      H1            -23.3756030842       19.4421615334        7.3638330784  W2        1291            0.0000000000
      3873      1291  TIP3      H2            -24.0439630842       20.3136315334        8.4058030784  W2        1291            0.0000000000
      3874      1292  TIP3      OH2           -19.1256230842       21.4153615334       -7.4968969216  W2        1292            0.0000000000
      3875      1292  TIP3      H1            -19.5854230842       20.9311915334       -6.8110469216  W2        1292            0.0000000000
      3876      1292  TIP3      H2            -18.8707530842       20.7469015334       -8.1328469216  W2        1292            0.0000000000
      3877      1293  TIP3      OH2           -19.8366930842       19.3080715334        4.8590630784  W2        1293            0.0000000000
      3878      1293  TIP3      H1            -20.4550830842       19.9827315334        5.1395330784  W2        1293            0.0000000000
      3879      1293  TIP3      H2            -19.4925730842       19.6294615334        4.0256830784  W2        1293            0.0000000000
      3880      1294  TIP3      OH2           -18.0545830842       19.6585415334       -9.2345769216  W2        1294            0.0000000000
      3881      1294  TIP3      H1            -18.2350830842       19.5036615334      -10.1617469216  W2        1294            0.0000000000
      3882      1294  TIP3      H2            -17.1045330842       19.7664115334       -9.1897869216  W2        1294            0.0000000000
      3883      1295  TIP3      OH2           -14.8168730842       21.7796015334        8.1365430784  W2        1295            0.0000000000
      3884      1295  TIP3      H1            -13.8637530842       21.8635115334        8.1091430784  W2        1295            0.0000000000
      3885      1295  TIP3      H2            -14.9774130842       21.0677815334        8.7560330784  W2        1295            0.0000000000
      3886      1296  TIP3      OH2            -8.6647530842       22.0129615334       -9.7887669216  W2        1296            0.0000000000
      3887      1296  TIP3      H1             -8.9382730842       21.5885115334      -10.6019369216  W2        1296            0.0000000000
      3888      1296  TIP3      H2             -8.6253430842       22.9444115334      -10.0057269216  W2        1296            0.0000000000
      3889      1297  TIP3      OH2           -19.4973230842       16.6631515334        5.9413730784  W2        1297            0.0000000000
      3890      1297  TIP3      H1            -19.3472330842       15.9342815334        5.3393430784  W2        1297            0.0000000000
      3891      1297  TIP3      H2            -19.4950830842       17.4403215334        5.3825930784  W2        1297            0.0000000000
      3892      1298  TIP3      OH2           -19.0847530842       15.0327315334        3.4341130784  W2        1298            0.0000000000
      3893      1298  TIP3      H1            -18.5490030842       15.4844015334        2.7820430784  W2        1298            0.0000000000
      3894      1298  TIP3      H2            -19.9367930842       14.9247115334        3.0115230784  W2        1298            0.0000000000
      3895      1299  TIP3      OH2           -17.5029130842       20.4723515334        3.6736330784  W2        1299            0.0000000000
      3896      1299  TIP3      H1            -16.7524330842       20.3161015334        3.1004130784  W2        1299            0.0000000000
      3897      1299  TIP3      H2            -17.8420830842       21.3240115334        3.3981830784  W2        1299            0.0000000000
      3898      1300  TIP3      OH2           -13.0872930842       18.2875315334        8.7021630784  W2        1300            0.0000000000
      3899      1300  TIP3      H1            -12.8951630842       17.3564715334        8.5906130784  W2        1300            0.0000000000
      3900      1300  TIP3      H2            -12.2296630842       18.7124815334        8.6917030784  W2        1300            0.0000000000
      3901      1301  TIP3      OH2           -11.7705730842       21.0760515334        6.7794330784  W2        1301            0.0000000000
      3902      1301  TIP3      H1            -12.0520730842       21.7855115334        6.2018130784  W2        1301            0.0000000000
      3903      1301  TIP3      H2            -10.8281430842       21.0033515334        6.6285530784  W2        1301            0.0000000000
      3904      1302  TIP3      OH2           -21.0186930842       17.8615015334        7.8529330784  W2        1302            0.0000000000
      3905      1302  TIP3      H1            -21.7857930842       17.3289815334        7.6426930784  W2        1302            0.0000000000
      3906      1302  TIP3      H2            -20.3397930842       17.5515415334        7.2535630784  W2        1302            0.0000000000
      3907      1303  TIP3      OH2           -18.2792030842       12.4893015334        3.8654730784  W2        1303            0.0000000000
      3908      1303  TIP3      H1            -18.3772430842       13.4356215334        3.7600930784  W2        1303            0.0000000000
      3909      1303  TIP3      H2            -19.0215830842       12.1166815334        3.3898230784  W2        1303            0.0000000000
      3910      1304  TIP3      OH2           -17.0151530842       16.8108415334        7.4293130784  W2        1304            0.0000000000
      3911      1304  TIP3      H1            -17.2506130842       16.5915115334        8.3308030784  W2        1304            0.0000000000
      3912      1304  TIP3      H2            -17.7984630842       16.6039615334        6.9195630784  W2        1304            0.0000000000
      3913      1305  TIP3      OH2           -14.2994930842       15.9381915334        6.5046630784  W2        1305            0.0000000000
      3914      1305  TIP3      H1            -15.2469530842       15.9701615334        6.6369930784  W2        1305            0.0000000000
      3915      1305  TIP3      H2            -13.9868230842       15.3129015334        7.1584830784  W2        1305            0.0000000000
      3916      1306  TIP3      OH2           -12.6653430842       14.5723015334        8.5098530784  W2        1306            0.0000000000
      3917      1306  TIP3      H1            -12.7621630842       13.6200315334        8.5040430784  W2        1306            0.0000000000
      3918      1306  TIP3      H2            -12.9870330842       14.8409815334        9.3704030784  W2        1306            0.0000000000
      3919      1307  TIP3      OH2           -22.8384130842       15.7818815334        7.5574030784  W2        1307            0.0000000000
      3920      1307  TIP3      H1            -22.6266730842       15.0754915334        6.9471530784  W2        1307            0.0000000000
      3921      1307  TIP3      H2            -22.9496630842       15.3444815334        8.4015230784  W2        1307            0.0000000000
      3922      1308  TIP3      OH2           -18.0573930842       11.7830415334        6.5367530784  W2        1308            0.0000000000
      3923      1308  TIP3      H1            -17.3455530842       11.1432615334        6.5226630784  W2        1308            0.0000000000
      3924      1308  TIP3      H2            -18.1583530842       12.0498715334        5.6230630784  W2        1308            0.0000000000
      3925      1309  TIP3      OH2           -17.7036430842       13.4658815334        8.5903830784  W2        1309            0.0000000000
      3926      1309  TIP3      H1            -17.8354230842       12.9902615334        7.7702330784  W2        1309            0.0000000000
      3927      1309  TIP3      H2            -18.3029030842       14.2102415334        8.5350930784  W2        1309            0.0000000000
      3928      1310  TIP3      OH2           -24.5889230842       24.9852915334       -8.7504069216  W2        1310            0.0000000000
      3929      1310  TIP3      H1            -23.6750030842       25.0641815334       -8.4770169216  W2        1310            0.0000000000
      3930      1310  TIP3      H2            -24.5816130842       24.2982515334       -9.4168469216  W2        1310            0.0000000000
      3931      1311  TIP3      OH2            -9.5074430842       24.6254015334        8.6720230784  W2        1311            0.0000000000
      3932      1311  TIP3      H1            -10.3733330842       24.5203715334        9.0662530784  W2        1311            0.0000000000
      3933      1311  TIP3      H2             -9.1308530842       25.3837315334        9.1184930784  W2        1311            0.0000000000
      3934      1312  TIP3      OH2            -8.2064730842       22.8817715334       -5.8137269216  W2        1312            0.0000000000
      3935      1312  TIP3      H1             -7.3563330842       23.3028615334       -5.6865669216  W2        1312            0.0000000000
      3936      1312  TIP3      H2             -8.2009630842       22.1417815334       -5.2065869216  W2        1312            0.0000000000
      3937      1313  TIP3      OH2            -7.8119130842       20.9355115334       -3.9901569216  W2        1313            0.0000000000
      3938      1313  TIP3      H1             -8.5384530842       20.4557715334       -3.5923969216  W2        1313            0.0000000000
      3939      1313  TIP3      H2             -7.2305830842       21.1409815334       -3.2579969216  W2        1313            0.0000000000
      3940      1314  TIP3      OH2            -8.0527930842       23.7202615334        0.9576030784  W2        1314            0.0000000000
      3941      1314  TIP3      H1             -7.2193730842       23.3422615334        0.6769630784  W2        1314            0.0000000000
      3942      1314  TIP3      H2             -7.9407630842       24.6633815334        0.8385130784  W2        1314            0.0000000000
      3943      1315  TIP3      OH2            -7.5436030842       20.8363615334       -7.5990269216  W2        1315            0.0000000000
      3944      1315  TIP3      H1             -8.0654930842       21.1927715334       -8.3179369216  W2        1315            0.0000000000
      3945      1315  TIP3      H2             -7.5766830842       21.5111415334       -6.9209369216  W2        1315            0.0000000000
      3946      1316  TIP3      OH2            -9.1947030842       18.0759215334       -9.0483169216  W2        1316            0.0000000000
      3947      1316  TIP3      H1             -9.0982630842       18.7426215334       -9.7283469216  W2        1316            0.0000000000
      3948      1316  TIP3      H2             -9.3347430842       17.2605515334       -9.5297669216  W2        1316            0.0000000000
      3949      1317  TIP3      OH2           -10.0252330842       19.4561615334       -3.4272869216  W2        1317            0.0000000000
      3950      1317  TIP3      H1            -10.1753530842       18.5110215334       -3.4475069216  W2        1317            0.0000000000
      3951      1317  TIP3      H2            -10.3787830842       19.7373015334       -2.5833769216  W2        1317            0.0000000000
      3952      1318  TIP3      OH2           -24.9899930842       21.5343815334        0.5830930784  W2        1318            0.0000000000
      3953      1318  TIP3      H1            -24.8057030842       21.4525515334       -0.3526169216  W2        1318            0.0000000000
      3954      1318  TIP3      H2            -24.1407030842       21.4100815334        1.0067330784  W2        1318            0.0000000000
      3955      1319  TIP3      OH2            -9.1689430842       21.4264915334        6.2115430784  W2        1319            0.0000000000
      3956      1319  TIP3      H1             -8.5862130842       20.6917215334        6.4032630784  W2        1319            0.0000000000
      3957      1319  TIP3      H2             -8.6050130842       22.1985215334        6.2581230784  W2        1319            0.0000000000
      3958      1320  TIP3      OH2            -7.6722330842       19.3290715334        6.8960830784  W2        1320            0.0000000000
      3959      1320  TIP3      H1             -8.5355630842       18.9502815334        6.7305530784  W2        1320            0.0000000000
      3960      1320  TIP3      H2             -7.0678630842       18.5905515334        6.8216630784  W2        1320            0.0000000000
      3961      1321  TIP3      OH2            -9.9473230842       15.4839015334       -9.9307669216  W2        1321            0.0000000000
      3962      1321  TIP3      H1             -9.3367430842       15.1125815334       -9.2939469216  W2        1321            0.0000000000
      3963      1321  TIP3      H2            -10.7841730842       15.0625915334       -9.7347669216  W2        1321            0.0000000000
      3964      1322  TIP3      OH2           -10.3147530842       17.0387415334       -4.9647769216  W2        1322            0.0000000000
      3965      1322  TIP3      H1            -10.0350430842       16.1317815334       -4.8406069216  W2        1322            0.0000000000
      3966      1322  TIP3      H2             -9.5555830842       17.4728915334       -5.3538569216  W2        1322            0.0000000000
      3967      1323  TIP3      OH2            -9.7029230842       17.6204815334        0.4711130784  W2        1323            0.0000000000
      3968      1323  TIP3      H1             -8.7701230842       17.8324715334        0.4367130784  W2        1323            0.0000000000
      3969      1323  TIP3      H2             -9.9381730842       17.7216915334        1.3934130784  W2        1323            0.0000000000
      3970      1324  TIP3      OH2            -9.6737330842       18.3570115334        3.2470530784  W2        1324            0.0000000000
      3971      1324  TIP3      H1            -10.5166030842       18.6250515334        3.6130330784  W2        1324            0.0000000000
      3972      1324  TIP3      H2             -9.2313030842       19.1792015334        3.0361630784  W2        1324            0.0000000000
      3973      1325  TIP3      OH2           -25.3925130842       16.8048815334        6.7239730784  W2        1325            0.0000000000
      3974      1325  TIP3      H1            -24.4730230842       16.6827115334        6.9602830784  W2        1325            0.0000000000
      3975      1325  TIP3      H2            -25.8420630842       16.0548515334        7.1133230784  W2        1325            0.0000000000
      3976      1326  TIP3      OH2            -7.3905730842       12.3370315334        8.6005530784  W2        1326            0.0000000000
      3977      1326  TIP3      H1             -7.0408730842       11.6833815334        7.9950230784  W2        1326            0.0000000000
      3978      1326  TIP3      H2             -7.2436230842       13.1744415334        8.1608130784  W2        1326            0.0000000000
      3979      1327  TIP3      OH2            -9.7012730842       14.3016715334       -4.9165769216  W2        1327            0.0000000000
      3980      1327  TIP3      H1             -9.5187730842       13.8528215334       -4.0910769216  W2        1327            0.0000000000
      3981      1327  TIP3      H2            -10.3009830842       13.7171115334       -5.3801169216  W2        1327            0.0000000000
      3982      1328  TIP3      OH2           -24.1712630842       15.1170415334       -0.3847369216  W2        1328            0.0000000000
      3983      1328  TIP3      H1            -23.7261030842       14.3252915334       -0.0827669216  W2        1328            0.0000000000
      3984      1328  TIP3      H2            -23.7049630842       15.8335615334        0.0458230784  W2        1328            0.0000000000
      3985      1329  TIP3      OH2           -25.8672330842       18.1163415334        0.6842830784  W2        1329            0.0000000000
      3986      1329  TIP3      H1            -25.3752530842       17.8953915334       -0.1065169216  W2        1329            0.0000000000
      3987      1329  TIP3      H2            -25.5051430842       18.9566815334        0.9652330784  W2        1329            0.0000000000
      3988      1330  TIP3      OH2            -7.8708530842       14.4464915334        6.9496830784  W2        1330            0.0000000000
      3989      1330  TIP3      H1             -8.7882830842       14.7172015334        6.9140330784  W2        1330            0.0000000000
      3990      1330  TIP3      H2             -7.7479130842       13.9113315334        6.1656530784  W2        1330            0.0000000000
      3991      1331  TIP3      OH2            -7.8346530842       14.3694815334       -8.3885469216  W2        1331            0.0000000000
      3992      1331  TIP3      H1             -7.4223930842       13.6480515334       -8.8637469216  W2        1331            0.0000000000
      3993      1331  TIP3      H2             -7.1530030842       15.0389415334       -8.3301169216  W2        1331            0.0000000000
      3994      1332  TIP3      OH2           -25.5535830842       14.3742515334       -5.2614769216  W2        1332            0.0000000000
      3995      1332  TIP3      H1            -26.4787430842       14.5829115334       -5.3909269216  W2        1332            0.0000000000
      3996      1332  TIP3      H2            -25.0995930842       14.8583315334       -5.9512469216  W2        1332            0.0000000000
      3997      1333  TIP3      OH2           -25.5900430842       13.1121515334        3.0827730784  W2        1333            0.0000000000
      3998      1333  TIP3      H1            -26.2549930842       12.8661815334        3.7258630784  W2        1333            0.0000000000
      3999      1333  TIP3      H2            -26.0329130842       13.7341915334        2.5055730784  W2        1333            0.0000000000
      4000      1334  TIP3      OH2            -8.8702630842       12.5361215334        4.7687630784  W2        1334            0.0000000000
      4001      1334  TIP3      H1             -9.6829130842       12.8611515334        4.3812330784  W2        1334            0.0000000000
      4002      1334  TIP3      H2             -8.6374130842       11.7759715334        4.2356730784  W2        1334            0.0000000000
      4003      1335  TIP3      OH2           -15.4404130842       13.9851815334       -0.9084169216  W2        1335            0.0000000000
      4004      1335  TIP3      H1            -16.1147330842       13.3557415334       -0.6528369216  W2        1335            0.0000000000
      4005      1335  TIP3      H2            -14.8764930842       13.5010715334       -1.5116269216  W2        1335            0.0000000000
      4006      1336  TIP3      OH2           -10.2976930842       12.0925815334       -0.7957069216  W2        1336            0.0000000000
      4007      1336  TIP3      H1             -9.6939330842       12.6401215334       -1.2976069216  W2        1336            0.0000000000
      4008      1336  TIP3      H2            -11.1674930842       12.4116215334       -1.0362969216  W2        1336            0.0000000000
      4009      1337  TIP3      OH2            -8.5706530842       13.2314515334       -2.4626169216  W2        1337            0.0000000000
      4010      1337  TIP3      H1             -7.9589030842       12.7170215334       -2.9892569216  W2        1337            0.0000000000
      4011      1337  TIP3      H2             -8.1883130842       14.1086615334       -2.4391769216  W2        1337            0.0000000000
      4012      1338  TIP3      OH2           -23.1136630842       12.6192115334       -3.0864269216  W2        1338            0.0000000000
      4013      1338  TIP3      H1            -23.8906830842       12.3847015334       -3.5938369216  W2        1338            0.0000000000
      4014      1338  TIP3      H2            -22.5833030842       11.8224215334       -3.0776269216  W2        1338            0.0000000000
      4015      1339  TIP3      OH2           -24.2773230842       12.4170215334       -7.2828169216  W2        1339            0.0000000000
      4016      1339  TIP3      H1            -23.8382530842       13.0280715334       -7.8744669216  W2        1339            0.0000000000
      4017      1339  TIP3      H2            -24.9110830842       12.9554315334       -6.8088169216  W2        1339            0.0000000000
      4018      1340  TIP3      OH2           -18.5344030842       12.5459215334       -3.2731169216  W2        1340            0.0000000000
      4019      1340  TIP3      H1            -17.6600630842       12.9343515334       -3.3026869216  W2        1340            0.0000000000
      4020      1340  TIP3      H2            -18.6703230842       12.3307015334       -2.3503969216  W2        1340            0.0000000000
      4021      1341  TIP3      OH2           -12.9775630842       12.5759015334       -1.6239469216  W2        1341            0.0000000000
      4022      1341  TIP3      H1            -12.9014030842       12.6710615334       -2.5733469216  W2        1341            0.0000000000
      4023      1341  TIP3      H2            -13.2526430842       11.6681915334       -1.4950369216  W2        1341            0.0000000000
      4024      1342  TIP3      OH2           -11.6243030842       12.6016815334       -5.9314469216  W2        1342            0.0000000000
      4025      1342  TIP3      H1            -12.3271930842       13.2166015334       -6.1413069216  W2        1342            0.0000000000
      4026      1342  TIP3      H2            -12.0691630842       11.7643515334       -5.8003569216  W2        1342            0.0000000000
      4027      1343  TIP3      OH2           -22.4164130842       14.3331715334       -8.8404069216  W2        1343            0.0000000000
      4028      1343  TIP3      H1            -21.9250730842       13.7034115334       -9.3678569216  W2        1343            0.0000000000
      4029      1343  TIP3      H2            -21.7927830842       14.6291115334       -8.1772869216  W2        1343            0.0000000000
      4030      1344  TIP3      OH2           -17.3904030842       14.6263215334       -6.3833569216  W2        1344            0.0000000000
      4031      1344  TIP3      H1            -17.2122730842       13.9796415334       -5.7004969216  W2        1344            0.0000000000
      4032      1344  TIP3      H2            -17.4437830842       15.4600915334       -5.9162469216  W2        1344            0.0000000000
      4033      1345  TIP3      OH2           -23.1558630842       13.1334015334        6.4311930784  W2        1345            0.0000000000
      4034      1345  TIP3      H1            -23.5220430842       12.3676615334        6.8736630784  W2        1345            0.0000000000
      4035      1345  TIP3      H2            -22.2430130842       13.1624215334        6.7177030784  W2        1345            0.0000000000
      4036      1346  TIP3      OH2           -21.1827830842       12.4838415334        7.9669030784  W2        1346            0.0000000000
      4037      1346  TIP3      H1            -20.2844230842       12.2098615334        7.7822430784  W2        1346            0.0000000000
      4038      1346  TIP3      H2            -21.5694730842       11.7414415334        8.4311630784  W2        1346            0.0000000000
      4039      1347  TIP3      OH2           -12.7615530842       11.8163715334        8.1491830784  W2        1347            0.0000000000
      4040      1347  TIP3      H1            -12.6848330842       11.3904415334        9.0029530784  W2        1347            0.0000000000
      4041      1347  TIP3      H2            -11.8678930842       11.8298415334        7.8065330784  W2        1347            0.0000000000
      4042      1348  TIP3      OH2             4.8205969158       21.7754415334       -3.1276769216  W2        1348            0.0000000000
      4043      1348  TIP3      H1              4.9097069158       22.7192615334       -3.2599669216  W2        1348            0.0000000000
      4044      1348  TIP3      H2              4.1823569158       21.5000815334       -3.7857369216  W2        1348            0.0000000000
      4045      1349  TIP3      OH2             3.7537269158       21.0305115334        0.2911430784  W2        1349            0.0000000000
      4046      1349  TIP3      H1              3.7154769158       20.3841415334        0.9961030784  W2        1349            0.0000000000
      4047      1349  TIP3      H2              3.4313769158       20.5639515334       -0.4799869216  W2        1349            0.0000000000
      4048      1350  TIP3      OH2            -3.8777730842       20.6447215334        1.8841330784  W2        1350            0.0000000000
      4049      1350  TIP3      H1             -3.8365630842       20.0190515334        2.6073730784  W2        1350            0.0000000000
      4050      1350  TIP3      H2             -3.1750030842       21.2685815334        2.0661730784  W2        1350            0.0000000000
      4051      1351  TIP3      OH2             7.4597469158       23.9695515334       -1.4073469216  W2        1351            0.0000000000
      4052      1351  TIP3      H1              7.0190169158       23.2491515334       -0.9567869216  W2        1351            0.0000000000
      4053      1351  TIP3      H2              7.4467169158       24.6902715334       -0.7775769216  W2        1351            0.0000000000
      4054      1352  TIP3      OH2            -2.9544630842       25.0946115334        0.4190430784  W2        1352            0.0000000000
      4055      1352  TIP3      H1             -3.3239430842       24.2926615334        0.0494730784  W2        1352            0.0000000000
      4056      1352  TIP3      H2             -2.0133530842       24.9261015334        0.4653830784  W2        1352            0.0000000000
      4057      1353  TIP3      OH2            -6.3444130842       18.7548715334       -4.1880769216  W2        1353            0.0000000000
      4058      1353  TIP3      H1             -6.7920730842       19.6007415334       -4.2064269216  W2        1353            0.0000000000
      4059      1353  TIP3      H2             -6.9052930842       18.1752915334       -4.7035669216  W2        1353            0.0000000000
      4060      1354  TIP3      OH2            -5.6338030842       20.9168315334       -2.0622769216  W2        1354            0.0000000000
      4061      1354  TIP3      H1             -5.4204530842       20.1469915334       -1.5349769216  W2        1354            0.0000000000
      4062      1354  TIP3      H2             -4.8960430842       21.0065015334       -2.6655169216  W2        1354            0.0000000000
      4063      1355  TIP3      OH2             2.1431669158       23.4626515334        0.6972430784  W2        1355            0.0000000000
      4064      1355  TIP3      H1              2.4469569158       22.7767915334        0.1026530784  W2        1355            0.0000000000
      4065      1355  TIP3      H2              2.8645669158       23.5815215334        1.3150430784  W2        1355            0.0000000000
      4066      1356  TIP3      OH2            10.8061469158       15.0641815334        1.5578630784  W2        1356            0.0000000000
      4067      1356  TIP3      H1             10.8553669158       15.6743015334        2.2937730784  W2        1356            0.0000000000
      4068      1356  TIP3      H2             11.2316569158       15.5252715334        0.8349730784  W2        1356            0.0000000000
      4069      1357  TIP3      OH2             5.2838669158       17.8568915334        1.0247230784  W2        1357            0.0000000000
      4070      1357  TIP3      H1              5.4264569158       16.9105915334        1.0448830784  W2        1357            0.0000000000
      4071      1357  TIP3      H2              5.1777669158       18.0638715334        0.0962130784  W2        1357            0.0000000000
      4072      1358  TIP3      OH2            -1.5613030842       15.9585315334       -1.7027969216  W2        1358            0.0000000000
      4073      1358  TIP3      H1             -1.5181930842       16.8183815334       -2.1211669216  W2        1358            0.0000000000
      4074      1358  TIP3      H2             -2.0188930842       15.4060015334       -2.3364769216  W2        1358            0.0000000000
      4075      1359  TIP3      OH2             6.1609669158       16.0890915334       -3.3019669216  W2        1359            0.0000000000
      4076      1359  TIP3      H1              6.8073969158       15.7604115334       -2.6772069216  W2        1359            0.0000000000
      4077      1359  TIP3      H2              6.6709069158       16.6069915334       -3.9248269216  W2        1359            0.0000000000
      4078      1360  TIP3      OH2            -4.9411530842       18.3551115334       -0.9406569216  W2        1360            0.0000000000
      4079      1360  TIP3      H1             -4.2874930842       17.8052815334       -0.5086469216  W2        1360            0.0000000000
      4080      1360  TIP3      H2             -4.9172230842       18.0810115334       -1.8574569216  W2        1360            0.0000000000
      4081      1361  TIP3      OH2             0.2152969158       19.9052415334       -1.7255069216  W2        1361            0.0000000000
      4082      1361  TIP3      H1              0.8313969158       19.3787815334       -1.2161069216  W2        1361            0.0000000000
      4083      1361  TIP3      H2             -0.3708230842       19.2651115334       -2.1291469216  W2        1361            0.0000000000
      4084      1362  TIP3      OH2            11.1976069158       16.5421015334        3.7938430784  W2        1362            0.0000000000
      4085      1362  TIP3      H1             10.5090669158       17.2001715334        3.6985030784  W2        1362            0.0000000000
      4086      1362  TIP3      H2             11.2130669158       16.3448915334        4.7303830784  W2        1362            0.0000000000
      4087      1363  TIP3      OH2            -2.7511130842       14.8763715334        2.3712830784  W2        1363            0.0000000000
      4088      1363  TIP3      H1             -2.9699430842       15.4064315334        1.6048830784  W2        1363            0.0000000000
      4089      1363  TIP3      H2             -3.4190230842       15.1029215334        3.0184230784  W2        1363            0.0000000000
      4090      1364  TIP3      OH2             4.6178669158       24.3764815334       -4.0848069216  W2        1364            0.0000000000
      4091      1364  TIP3      H1              4.3223769158       24.0537115334       -4.9361169216  W2        1364            0.0000000000
      4092      1364  TIP3      H2              4.2936469158       25.2761515334       -4.0435469216  W2        1364            0.0000000000
      4093      1365  TIP3      OH2            -0.1819730842       22.5519415334        2.6586530784  W2        1365            0.0000000000
      4094      1365  TIP3      H1             -0.9220630842       23.1500915334        2.7621730784  W2        1365            0.0000000000
      4095      1365  TIP3      H2              0.5319769158       23.1059015334        2.3430130784  W2        1365            0.0000000000
      4096      1366  TIP3      OH2             7.9248069158       15.3800215334       -1.3213769216  W2        1366            0.0000000000
      4097      1366  TIP3      H1              7.7096069158       14.6143615334       -0.7887769216  W2        1366            0.0000000000
      4098      1366  TIP3      H2              8.5805469158       15.8524815334       -0.8085269216  W2        1366            0.0000000000
      4099      1367  TIP3      OH2            -3.1573830842       16.7685515334        0.3235030784  W2        1367            0.0000000000
      4100      1367  TIP3      H1             -2.5437530842       17.4013115334        0.6967430784  W2        1367            0.0000000000
      4101      1367  TIP3      H2             -2.6453130842       16.2960515334       -0.3328069216  W2        1367            0.0000000000
      4102      1368  TIP3      OH2            -1.7745430842       24.5162415334        3.4458030784  W2        1368            0.0000000000
      4103      1368  TIP3      H1             -1.7797830842       25.3955915334        3.0677330784  W2        1368            0.0000000000
      4104      1368  TIP3      H2             -2.6281330842       24.4326515334        3.8707930784  W2        1368            0.0000000000
      4105      1369  TIP3      OH2            -5.6534530842       24.1870315334       -5.7722669216  W2        1369            0.0000000000
      4106      1369  TIP3      H1             -5.9253630842       24.4161315334       -6.6609769216  W2        1369            0.0000000000
      4107      1369  TIP3      H2             -5.6078830842       25.0249115334       -5.3117369216  W2        1369            0.0000000000
      4108      1370  TIP3      OH2             7.9715169158       25.8086215334        0.9405830784  W2        1370            0.0000000000
      4109      1370  TIP3      H1              7.0298869158       25.8670115334        1.1022730784  W2        1370            0.0000000000
      4110      1370  TIP3      H2              8.2481269158       26.7146715334        0.8035530784  W2        1370            0.0000000000
      4111      1371  TIP3      OH2             8.2722169158       14.0951515334        2.3579730784  W2        1371            0.0000000000
      4112      1371  TIP3      H1              7.5361369158       14.7058615334        2.3201030784  W2        1371            0.0000000000
      4113      1371  TIP3      H2              8.9556169158       14.5100515334        1.8316130784  W2        1371            0.0000000000
      4114      1372  TIP3      OH2             1.2753569158       12.1818815334       -0.1762269216  W2        1372            0.0000000000
      4115      1372  TIP3      H1              1.1577769158       11.2334815334       -0.2303969216  W2        1372            0.0000000000
      4116      1372  TIP3      H2              0.4203669158       12.5144915334        0.0968830784  W2        1372            0.0000000000
      4117      1373  TIP3      OH2             7.3832869158       25.4908215334       -3.9255969216  W2        1373            0.0000000000
      4118      1373  TIP3      H1              7.1257669158       24.8008315334       -4.5370069216  W2        1373            0.0000000000
      4119      1373  TIP3      H2              7.4543669158       25.0479415334       -3.0800069216  W2        1373            0.0000000000
      4120      1374  TIP3      OH2             9.0693069158       24.0574915334        4.5517530784  W2        1374            0.0000000000
      4121      1374  TIP3      H1              9.2089369158       23.4657415334        3.8124530784  W2        1374            0.0000000000
      4122      1374  TIP3      H2              9.2365869158       24.9300815334        4.1956330784  W2        1374            0.0000000000
      4123      1375  TIP3      OH2             3.5418469158       21.0194415334       -5.6756469216  W2        1375            0.0000000000
      4124      1375  TIP3      H1              2.8303969158       21.5544115334       -6.0275969216  W2        1375            0.0000000000
      4125      1375  TIP3      H2              4.2328069158       21.0746515334       -6.3357569216  W2        1375            0.0000000000
      4126      1376  TIP3      OH2             3.5957669158       19.4768715334       -8.6371469216  W2        1376            0.0000000000
      4127      1376  TIP3      H1              4.2967569158       19.4995615334       -7.9857469216  W2        1376            0.0000000000
      4128      1376  TIP3      H2              3.8980569158       18.8488415334       -9.2932169216  W2        1376            0.0000000000
      4129      1377  TIP3      OH2            10.9112369158       20.3972915334        2.6177930784  W2        1377            0.0000000000
      4130      1377  TIP3      H1             10.2586469158       21.0918515334        2.7068830784  W2        1377            0.0000000000
      4131      1377  TIP3      H2             11.3762669158       20.6073815334        1.8079530784  W2        1377            0.0000000000
      4132      1378  TIP3      OH2             6.9476169158       21.2287715334       -4.7240569216  W2        1378            0.0000000000
      4133      1378  TIP3      H1              6.2157169158       21.4571415334       -4.1509969216  W2        1378            0.0000000000
      4134      1378  TIP3      H2              7.3948369158       20.5150415334       -4.2693069216  W2        1378            0.0000000000
      4135      1379  TIP3      OH2             6.8449669158       19.4030315334        4.3436430784  W2        1379            0.0000000000
      4136      1379  TIP3      H1              6.9248769158       20.1664715334        4.9154930784  W2        1379            0.0000000000
      4137      1379  TIP3      H2              6.2437369158       19.6822715334        3.6531530784  W2        1379            0.0000000000
      4138      1380  TIP3      OH2            -1.4070130842       21.8593915334       -2.8415569216  W2        1380            0.0000000000
      4139      1380  TIP3      H1             -1.7374930842       21.4887315334       -3.6598569216  W2        1380            0.0000000000
      4140      1380  TIP3      H2             -0.8186030842       21.1887915334       -2.4947269216  W2        1380            0.0000000000
      4141      1381  TIP3      OH2            -0.0402630842       25.2874515334       -0.1603369216  W2        1381            0.0000000000
      4142      1381  TIP3      H1             -0.1351330842       24.7087615334       -0.9168769216  W2        1381            0.0000000000
      4143      1381  TIP3      H2              0.6890969158       24.9160215334        0.3359430784  W2        1381            0.0000000000
      4144      1382  TIP3      OH2            -1.0404630842       20.6279515334        0.7919430784  W2        1382            0.0000000000
      4145      1382  TIP3      H1             -0.4752130842       20.7493715334        0.0290630784  W2        1382            0.0000000000
      4146      1382  TIP3      H2             -0.7215730842       21.2654515334        1.4307930784  W2        1382            0.0000000000
      4147      1383  TIP3      OH2            -0.1603930842       25.0272215334        5.5091330784  W2        1383            0.0000000000
      4148      1383  TIP3      H1             -0.4716430842       25.8095415334        5.9644530784  W2        1383            0.0000000000
      4149      1383  TIP3      H2             -0.8103730842       24.8741315334        4.8233330784  W2        1383            0.0000000000
      4150      1384  TIP3      OH2             5.8185669158       20.3910615334       -7.0389369216  W2        1384            0.0000000000
      4151      1384  TIP3      H1              6.3981169158       20.5410915334       -6.2920469216  W2        1384            0.0000000000
      4152      1384  TIP3      H2              6.2325669158       20.8618015334       -7.7622969216  W2        1384            0.0000000000
      4153      1385  TIP3      OH2            -3.2404030842       21.2253315334        4.7377030784  W2        1385            0.0000000000
      4154      1385  TIP3      H1             -3.1700830842       21.8760115334        5.4362030784  W2        1385            0.0000000000
      4155      1385  TIP3      H2             -4.1311830842       21.3280815334        4.4027930784  W2        1385            0.0000000000
      4156      1386  TIP3      OH2             9.5174069158       12.1411015334       -7.2259669216  W2        1386            0.0000000000
      4157      1386  TIP3      H1              8.6174769158       12.2800015334       -6.9309069216  W2        1386            0.0000000000
      4158      1386  TIP3      H2              9.7692469158       12.9725615334       -7.6277969216  W2        1386            0.0000000000
      4159      1387  TIP3      OH2            -2.4167430842       20.9288215334       -5.2522769216  W2        1387            0.0000000000
      4160      1387  TIP3      H1             -2.7086130842       21.6969915334       -5.7431469216  W2        1387            0.0000000000
      4161      1387  TIP3      H2             -3.0912230842       20.2694415334       -5.4151369216  W2        1387            0.0000000000
      4162      1388  TIP3      OH2            -6.3237330842       23.2917415334        3.5627030784  W2        1388            0.0000000000
      4163      1388  TIP3      H1             -6.8248930842       23.2636815334        2.7476730784  W2        1388            0.0000000000
      4164      1388  TIP3      H2             -6.3183630842       22.3860615334        3.8724330784  W2        1388            0.0000000000
      4165      1389  TIP3      OH2             8.7763669158       18.2313415334        6.6093130784  W2        1389            0.0000000000
      4166      1389  TIP3      H1              8.3690469158       18.7119015334        5.8886430784  W2        1389            0.0000000000
      4167      1389  TIP3      H2              8.8169369158       17.3259415334        6.3013930784  W2        1389            0.0000000000
      4168      1390  TIP3      OH2            -4.0746830842       24.6152815334        4.6059830784  W2        1390            0.0000000000
      4169      1390  TIP3      H1             -3.8585530842       24.2538415334        5.4655630784  W2        1390            0.0000000000
      4170      1390  TIP3      H2             -4.9302130842       24.2406615334        4.3963330784  W2        1390            0.0000000000
      4171      1391  TIP3      OH2            -1.4558830842       13.0853315334        0.6014030784  W2        1391            0.0000000000
      4172      1391  TIP3      H1             -2.3175130842       12.9981515334        0.1936930784  W2        1391            0.0000000000
      4173      1391  TIP3      H2             -1.4783130842       13.9413415334        1.0291630784  W2        1391            0.0000000000
      4174      1392  TIP3      OH2             3.2068969158       12.8073715334        3.9761030784  W2        1392            0.0000000000
      4175      1392  TIP3      H1              3.6272069158       12.3920815334        4.7291630784  W2        1392            0.0000000000
      4176      1392  TIP3      H2              2.2738569158       12.6287015334        4.0933030784  W2        1392            0.0000000000
      4177      1393  TIP3      OH2             6.5333869158       16.5628915334        4.8295530784  W2        1393            0.0000000000
      4178      1393  TIP3      H1              6.0193369158       16.4371115334        5.6271530784  W2        1393            0.0000000000
      4179      1393  TIP3      H2              6.3778569158       17.4752015334        4.5851730784  W2        1393            0.0000000000
      4180      1394  TIP3      OH2             7.2958769158       21.4238915334       -9.4091469216  W2        1394            0.0000000000
      4181      1394  TIP3      H1              7.3379569158       21.2012815334      -10.3391469216  W2        1394            0.0000000000
      4182      1394  TIP3      H2              8.1450869158       21.8226015334       -9.2191569216  W2        1394            0.0000000000
      4183      1395  TIP3      OH2             2.8686269158       15.2997115334       -8.7388169216  W2        1395            0.0000000000
      4184      1395  TIP3      H1              2.6151069158       15.3188715334       -7.8160069216  W2        1395            0.0000000000
      4185      1395  TIP3      H2              2.6118369158       14.4282515334       -9.0401969216  W2        1395            0.0000000000
      4186      1396  TIP3      OH2            -1.3648730842       18.0507815334        1.6964230784  W2        1396            0.0000000000
      4187      1396  TIP3      H1             -2.0066630842       18.0105115334        2.4054330784  W2        1396            0.0000000000
      4188      1396  TIP3      H2             -1.3276730842       18.9772515334        1.4587230784  W2        1396            0.0000000000
      4189      1397  TIP3      OH2            -1.3679630842       18.2717915334       -3.3915769216  W2        1397            0.0000000000
      4190      1397  TIP3      H1             -2.2606730842       17.9314015334       -3.4501969216  W2        1397            0.0000000000
      4191      1397  TIP3      H2             -0.9173030842       17.8948815334       -4.1472569216  W2        1397            0.0000000000
      4192      1398  TIP3      OH2             4.1675869158       18.6878215334       -4.5744969216  W2        1398            0.0000000000
      4193      1398  TIP3      H1              3.7586169158       19.5026815334       -4.8660169216  W2        1398            0.0000000000
      4194      1398  TIP3      H2              4.8882069158       18.5478315334       -5.1887869216  W2        1398            0.0000000000
      4195      1399  TIP3      OH2             3.2697469158       18.8634615334        6.9135730784  W2        1399            0.0000000000
      4196      1399  TIP3      H1              2.7071269158       18.1586215334        7.2343530784  W2        1399            0.0000000000
      4197      1399  TIP3      H2              4.0960869158       18.7426515334        7.3813330784  W2        1399            0.0000000000
      4198      1400  TIP3      OH2             5.1723569158       18.1338615334       -1.7605269216  W2        1400            0.0000000000
      4199      1400  TIP3      H1              4.9768069158       18.7395415334       -2.4754669216  W2        1400            0.0000000000
      4200      1400  TIP3      H2              5.3536169158       17.3003815334       -2.1948969216  W2        1400            0.0000000000
      4201      1401  TIP3      OH2            -3.6148230842       18.3711315334        3.5636230784  W2        1401            0.0000000000
      4202      1401  TIP3      H1             -3.6528830842       18.7712915334        4.4323330784  W2        1401            0.0000000000
      4203      1401  TIP3      H2             -4.1057130842       17.5543715334        3.6539130784  W2        1401            0.0000000000
      4204      1402  TIP3      OH2            -0.2490830842       15.7453615334       -9.6377769216  W2        1402            0.0000000000
      4205      1402  TIP3      H1             -0.6800130842       15.3003715334       -8.9080369216  W2        1402            0.0000000000
      4206      1402  TIP3      H2             -0.9672130842       16.1169915334      -10.1500269216  W2        1402            0.0000000000
      4207      1403  TIP3      OH2            -7.0067430842       15.4873115334       -2.5859069216  W2        1403            0.0000000000
      4208      1403  TIP3      H1             -6.3759730842       15.4585215334       -1.8665169216  W2        1403            0.0000000000
      4209      1403  TIP3      H2             -6.5573130842       15.0621815334       -3.3163169216  W2        1403            0.0000000000
      4210      1404  TIP3      OH2            -5.7325330842       16.2335115334       -7.1618669216  W2        1404            0.0000000000
      4211      1404  TIP3      H1             -5.2583630842       16.8245015334       -7.7467769216  W2        1404            0.0000000000
      4212      1404  TIP3      H2             -6.4498930842       16.7638015334       -6.8148569216  W2        1404            0.0000000000
      4213      1405  TIP3      OH2             4.4362769158       19.7719915334        2.9107130784  W2        1405            0.0000000000
      4214      1405  TIP3      H1              4.7597569158       19.1409615334        2.2677630784  W2        1405            0.0000000000
      4215      1405  TIP3      H2              3.9962069158       19.2372115334        3.5714530784  W2        1405            0.0000000000
      4216      1406  TIP3      OH2             1.2135669158       15.6995415334       -2.3051669216  W2        1406            0.0000000000
      4217      1406  TIP3      H1              0.3026769158       15.7562215334       -2.0165669216  W2        1406            0.0000000000
      4218      1406  TIP3      H2              1.7188569158       15.6390915334       -1.4944469216  W2        1406            0.0000000000
      4219      1407  TIP3      OH2            -3.9580930842       17.3281715334       -3.4784069216  W2        1407            0.0000000000
      4220      1407  TIP3      H1             -4.8472930842       17.4277215334       -3.8184469216  W2        1407            0.0000000000
      4221      1407  TIP3      H2             -3.6616030842       16.4864715334       -3.8246169216  W2        1407            0.0000000000
      4222      1408  TIP3      OH2            -0.3049130842       17.3284315334       -5.8219469216  W2        1408            0.0000000000
      4223      1408  TIP3      H1              0.6266369158       17.4574315334       -5.6436369216  W2        1408            0.0000000000
      4224      1408  TIP3      H2             -0.5198830842       17.9978615334       -6.4714769216  W2        1408            0.0000000000
      4225      1409  TIP3      OH2             5.6187569158       14.9341715334        0.9590130784  W2        1409            0.0000000000
      4226      1409  TIP3      H1              4.9419169158       15.0654815334        1.6229830784  W2        1409            0.0000000000
      4227      1409  TIP3      H2              5.1332469158       14.7791215334        0.1487830784  W2        1409            0.0000000000
      4228      1410  TIP3      OH2            -1.6308930842       18.5226515334       -8.2553369216  W2        1410            0.0000000000
      4229      1410  TIP3      H1             -2.1733830842       18.1430315334       -8.9465769216  W2        1410            0.0000000000
      4230      1410  TIP3      H2             -0.7974030842       18.7171215334       -8.6839269216  W2        1410            0.0000000000
      4231      1411  TIP3      OH2            -3.4957530842       23.0798415334        6.8438230784  W2        1411            0.0000000000
      4232      1411  TIP3      H1             -2.7635130842       23.3344315334        7.4052730784  W2        1411            0.0000000000
      4233      1411  TIP3      H2             -4.2758830842       23.2843815334        7.3593630784  W2        1411            0.0000000000
      4234      1412  TIP3      OH2             2.5335369158       18.4868415334       -0.4182069216  W2        1412            0.0000000000
      4235      1412  TIP3      H1              3.0978769158       17.9405015334       -0.9652469216  W2        1412            0.0000000000
      4236      1412  TIP3      H2              2.3858769158       17.9650315334        0.3705530784  W2        1412            0.0000000000
      4237      1413  TIP3      OH2            -2.4644930842       14.6234515334       -3.9997269216  W2        1413            0.0000000000
      4238      1413  TIP3      H1             -2.7815430842       13.7209815334       -4.0351869216  W2        1413            0.0000000000
      4239      1413  TIP3      H2             -1.6830830842       14.6251915334       -4.5525669216  W2        1413            0.0000000000
      4240      1414  TIP3      OH2             1.1601269158       16.8754515334        1.9958330784  W2        1414            0.0000000000
      4241      1414  TIP3      H1              0.3246569158       17.3294015334        2.1060730784  W2        1414            0.0000000000
      4242      1414  TIP3      H2              1.6841869158       17.1513015334        2.7478230784  W2        1414            0.0000000000
      4243      1415  TIP3      OH2             1.7043869158       23.0882215334       -6.3195269216  W2        1415            0.0000000000
      4244      1415  TIP3      H1              0.9594869158       22.5807515334       -6.6417369216  W2        1415            0.0000000000
      4245      1415  TIP3      H2              1.5701069158       23.1370215334       -5.3730469216  W2        1415            0.0000000000
      4246      1416  TIP3      OH2             8.8542769158       22.2210415334        2.4672330784  W2        1416            0.0000000000
      4247      1416  TIP3      H1              9.4961569158       22.6776715334        1.9234530784  W2        1416            0.0000000000
      4248      1416  TIP3      H2              8.0239669158       22.3342815334        2.0046430784  W2        1416            0.0000000000
      4249      1417  TIP3      OH2             5.6020669158       15.9022115334       -8.1202669216  W2        1417            0.0000000000
      4250      1417  TIP3      H1              4.6634869158       16.0137715334       -8.2713869216  W2        1417            0.0000000000
      4251      1417  TIP3      H2              5.8992769158       16.7589015334       -7.8136969216  W2        1417            0.0000000000
      4252      1418  TIP3      OH2             3.2235969158       23.2725515334        4.9173830784  W2        1418            0.0000000000
      4253      1418  TIP3      H1              2.8782069158       22.8907915334        5.7243430784  W2        1418            0.0000000000
      4254      1418  TIP3      H2              3.0236069158       24.2059115334        4.9886730784  W2        1418            0.0000000000
      4255      1419  TIP3      OH2             6.3204169158       17.7694815334       -6.4595269216  W2        1419            0.0000000000
      4256      1419  TIP3      H1              7.2123169158       17.6319815334       -6.1404069216  W2        1419            0.0000000000
      4257      1419  TIP3      H2              6.3767769158       18.5600915334       -6.9961769216  W2        1419            0.0000000000
      4258      1420  TIP3      OH2            -3.1707830842       22.3832215334       -0.5497369216  W2        1420            0.0000000000
      4259      1420  TIP3      H1             -2.4260630842       22.3807915334       -1.1510869216  W2        1420            0.0000000000
      4260      1420  TIP3      H2             -3.0931230842       21.5596015334       -0.0682269216  W2        1420            0.0000000000
      4261      1421  TIP3      OH2             3.8297969158       24.5466515334       -7.2940669216  W2        1421            0.0000000000
      4262      1421  TIP3      H1              3.5346369158       25.3734415334       -6.9125869216  W2        1421            0.0000000000
      4263      1421  TIP3      H2              3.1267969158       23.9273415334       -7.0979269216  W2        1421            0.0000000000
      4264      1422  TIP3      OH2            -6.1628130842       20.8439115334        4.7651130784  W2        1422            0.0000000000
      4265      1422  TIP3      H1             -5.9399530842       20.4258715334        5.5968630784  W2        1422            0.0000000000
      4266      1422  TIP3      H2             -6.7648030842       20.2314115334        4.3423930784  W2        1422            0.0000000000
      4267      1423  TIP3      OH2             0.8536769158       20.3609015334        6.9780830784  W2        1423            0.0000000000
      4268      1423  TIP3      H1              0.5577569158       20.1952015334        6.0829930784  W2        1423            0.0000000000
      4269      1423  TIP3      H2              1.7851969158       20.1409315334        6.9674730784  W2        1423            0.0000000000
      4270      1424  TIP3      OH2             5.4739569158       25.7341015334        4.8678830784  W2        1424            0.0000000000
      4271      1424  TIP3      H1              4.5733869158       25.9173615334        4.6002730784  W2        1424            0.0000000000
      4272      1424  TIP3      H2              5.5080669158       25.9930315334        5.7887630784  W2        1424            0.0000000000
      4273      1425  TIP3      OH2            11.2052869158       17.9788915334       -6.7648569216  W2        1425            0.0000000000
      4274      1425  TIP3      H1             10.6509169158       17.5826915334       -7.4371069216  W2        1425            0.0000000000
      4275      1425  TIP3      H2             11.3056469158       18.8894115334       -7.0425269216  W2        1425            0.0000000000
      4276      1426  TIP3      OH2            11.1684869158       23.7790615334        6.0722930784  W2        1426            0.0000000000
      4277      1426  TIP3      H1             10.3173369158       24.0174415334        5.7049330784  W2        1426            0.0000000000
      4278      1426  TIP3      H2             11.7588269158       23.7623815334        5.3190030784  W2        1426            0.0000000000
      4279      1427  TIP3      OH2             6.6608469158       21.5728815334        0.7215430784  W2        1427            0.0000000000
      4280      1427  TIP3      H1              5.7325369158       21.3410715334        0.6944730784  W2        1427            0.0000000000
      4281      1427  TIP3      H2              7.1119569158       20.7958615334        0.3914230784  W2        1427            0.0000000000
      4282      1428  TIP3      OH2            -0.7958430842       25.9010415334       -3.1455869216  W2        1428            0.0000000000
      4283      1428  TIP3      H1             -0.2686230842       26.6744815334       -3.3457069216  W2        1428            0.0000000000
      4284      1428  TIP3      H2             -1.6759930842       26.1259615334       -3.4471869216  W2        1428            0.0000000000
      4285      1429  TIP3      OH2            -5.0410730842       20.7634515334       -8.5583469216  W2        1429            0.0000000000
      4286      1429  TIP3      H1             -4.4250830842       21.3901715334       -8.1788669216  W2        1429            0.0000000000
      4287      1429  TIP3      H2             -5.9028130842       21.0794315334       -8.2866969216  W2        1429            0.0000000000
      4288      1430  TIP3      OH2             0.6313869158       23.5640315334       -3.5691569216  W2        1430            0.0000000000
      4289      1430  TIP3      H1              0.3903869158       24.4894715334       -3.5276269216  W2        1430            0.0000000000
      4290      1430  TIP3      H2             -0.1092530842       23.1051615334       -3.1727669216  W2        1430            0.0000000000
      4291      1431  TIP3      OH2             4.6901269158       23.8124615334        2.4465130784  W2        1431            0.0000000000
      4292      1431  TIP3      H1              4.2642569158       23.5846315334        3.2729130784  W2        1431            0.0000000000
      4293      1431  TIP3      H2              5.2707069158       23.0736415334        2.2640430784  W2        1431            0.0000000000
      4294      1432  TIP3      OH2             6.8930169158       24.7415115334       -8.4795869216  W2        1432            0.0000000000
      4295      1432  TIP3      H1              7.2463269158       24.3614915334       -7.6752369216  W2        1432            0.0000000000
      4296      1432  TIP3      H2              5.9443669158       24.6479915334       -8.3926569216  W2        1432            0.0000000000
      4297      1433  TIP3      OH2            -4.5288630842       15.5971815334        4.3232530784  W2        1433            0.0000000000
      4298      1433  TIP3      H1             -5.4216330842       15.9357215334        4.2556530784  W2        1433            0.0000000000
      4299      1433  TIP3      H2             -4.6275830842       14.7417915334        4.7413330784  W2        1433            0.0000000000
      4300      1434  TIP3      OH2             7.7589469158       23.4137115334       -6.2527969216  W2        1434            0.0000000000
      4301      1434  TIP3      H1              7.4817069158       22.6856415334       -5.6966869216  W2        1434            0.0000000000
      4302      1434  TIP3      H2              8.6862469158       23.5329115334       -6.0475369216  W2        1434            0.0000000000
      4303      1435  TIP3      OH2             0.9837969158       25.8531215334      -10.0325869216  W2        1435            0.0000000000
      4304      1435  TIP3      H1              1.2227769158       25.1049315334      -10.5796969216  W2        1435            0.0000000000
      4305      1435  TIP3      H2              0.7149269158       25.4652915334       -9.1998069216  W2        1435            0.0000000000
      4306      1436  TIP3      OH2            -0.0791430842       25.4235015334       -7.5763269216  W2        1436            0.0000000000
      4307      1436  TIP3      H1              0.0676569158       24.9034815334       -6.7862369216  W2        1436            0.0000000000
      4308      1436  TIP3      H2             -0.0819730842       26.3302615334       -7.2697369216  W2        1436            0.0000000000
      4309      1437  TIP3      OH2            -3.6260330842       22.6758315334       -7.0657869216  W2        1437            0.0000000000
      4310      1437  TIP3      H1             -4.3121030842       23.0280815334       -6.4988169216  W2        1437            0.0000000000
      4311      1437  TIP3      H2             -3.1032430842       23.4387915334       -7.3123569216  W2        1437            0.0000000000
      4312      1438  TIP3      OH2             4.2054769158       15.3382115334        3.2131130784  W2        1438            0.0000000000
      4313      1438  TIP3      H1              4.9042669158       15.4120815334        3.8630830784  W2        1438            0.0000000000
      4314      1438  TIP3      H2              3.8246169158       14.4737115334        3.3674030784  W2        1438            0.0000000000
      4315      1439  TIP3      OH2             4.9899669158       14.9903815334       -5.6896569216  W2        1439            0.0000000000
      4316      1439  TIP3      H1              5.2097969158       15.4619215334       -6.4931169216  W2        1439            0.0000000000
      4317      1439  TIP3      H2              5.5483669158       15.3846415334       -5.0195969216  W2        1439            0.0000000000
      4318      1440  TIP3      OH2             2.1899569158       16.7182615334       -4.8548169216  W2        1440            0.0000000000
      4319      1440  TIP3      H1              3.0022169158       17.2225815334       -4.8086469216  W2        1440            0.0000000000
      4320      1440  TIP3      H2              1.9452569158       16.5732315334       -3.9408569216  W2        1440            0.0000000000
      4321      1441  TIP3      OH2             2.7255969158       17.7045315334        4.3298430784  W2        1441            0.0000000000
      4322      1441  TIP3      H1              2.8446269158       18.2780715334        5.0868830784  W2        1441            0.0000000000
      4323      1441  TIP3      H2              3.3810569158       17.0164715334        4.4446230784  W2        1441            0.0000000000
      4324      1442  TIP3      OH2             3.0736269158       13.7995615334       -3.9167069216  W2        1442            0.0000000000
      4325      1442  TIP3      H1              2.7269769158       14.4166215334       -3.2722769216  W2        1442            0.0000000000
      4326      1442  TIP3      H2              3.7323169158       14.3001315334       -4.3981569216  W2        1442            0.0000000000
      4327      1443  TIP3      OH2            -1.2686730842       14.8625015334       -7.2294569216  W2        1443            0.0000000000
      4328      1443  TIP3      H1             -1.3521930842       15.7508115334       -6.8828169216  W2        1443            0.0000000000
      4329      1443  TIP3      H2             -0.3786430842       14.5971715334       -6.9977769216  W2        1443            0.0000000000
      4330      1444  TIP3      OH2             8.9301769158       15.6115615334        5.1648130784  W2        1444            0.0000000000
      4331      1444  TIP3      H1              8.0137569158       15.8737315334        5.0771830784  W2        1444            0.0000000000
      4332      1444  TIP3      H2              9.2656769158       15.6084615334        4.2683430784  W2        1444            0.0000000000
      4333      1445  TIP3      OH2             7.5322769158       19.3616615334       -0.7394569216  W2        1445            0.0000000000
      4334      1445  TIP3      H1              6.7347169158       18.9466815334       -1.0679569216  W2        1445            0.0000000000
      4335      1445  TIP3      H2              7.9773869158       18.6710315334       -0.2484069216  W2        1445            0.0000000000
      4336      1446  TIP3      OH2            -3.0101430842       25.2897215334       -8.1690069216  W2        1446            0.0000000000
      4337      1446  TIP3      H1             -2.4179930842       25.9892015334       -7.8927669216  W2        1446            0.0000000000
      4338      1446  TIP3      H2             -2.5508430842       24.8566715334       -8.8885469216  W2        1446            0.0000000000
      4339      1447  TIP3      OH2            -4.6942230842       17.9540215334       -9.0530669216  W2        1447            0.0000000000
      4340      1447  TIP3      H1             -4.7389630842       18.8933315334       -8.8743669216  W2        1447            0.0000000000
      4341      1447  TIP3      H2             -5.5819030842       17.7185115334       -9.3228569216  W2        1447            0.0000000000
      4342      1448  TIP3      OH2            -3.8860230842       12.7356815334       -0.3799669216  W2        1448            0.0000000000
      4343      1448  TIP3      H1             -4.1150430842       12.7949315334       -1.3074669216  W2        1448            0.0000000000
      4344      1448  TIP3      H2             -4.3286830842       11.9442315334       -0.0735569216  W2        1448            0.0000000000
      4345      1449  TIP3      OH2            -5.7603730842       23.0991715334        8.0648430784  W2        1449            0.0000000000
      4346      1449  TIP3      H1             -5.6163230842       22.1972415334        7.7785130784  W2        1449            0.0000000000
      4347      1449  TIP3      H2             -6.5326330842       23.3853815334        7.5770730784  W2        1449            0.0000000000
      4348      1450  TIP3      OH2            -1.4190030842       23.4427415334       -9.8026969216  W2        1450            0.0000000000
      4349      1450  TIP3      H1             -1.3545930842       22.6487015334       -9.2720569216  W2        1450            0.0000000000
      4350      1450  TIP3      H2             -0.7660830842       23.3240215334      -10.4924969216  W2        1450            0.0000000000
      4351      1451  TIP3      OH2             0.8952369158       23.0689815334        7.4974830784  W2        1451            0.0000000000
      4352      1451  TIP3      H1              0.5666169158       23.3397915334        6.6402230784  W2        1451            0.0000000000
      4353      1451  TIP3      H2              1.0470569158       22.1279615334        7.4099830784  W2        1451            0.0000000000
      4354      1452  TIP3      OH2             3.9333369158       24.4899115334      -10.0668969216  W2        1452            0.0000000000
      4355      1452  TIP3      H1              3.6647469158       24.6701215334       -9.1660069216  W2        1452            0.0000000000
      4356      1452  TIP3      H2              3.7268969158       23.5645315334      -10.1983169216  W2        1452            0.0000000000
      4357      1453  TIP3      OH2             6.6297569158       22.9847115334        4.8807130784  W2        1453            0.0000000000
      4358      1453  TIP3      H1              7.3752369158       23.5730815334        4.7611130784  W2        1453            0.0000000000
      4359      1453  TIP3      H2              5.8724369158       23.5666815334        4.9440230784  W2        1453            0.0000000000
      4360      1454  TIP3      OH2            -4.9277230842       20.2995015334        7.4847730784  W2        1454            0.0000000000
      4361      1454  TIP3      H1             -4.5196030842       19.4421615334        7.3638330784  W2        1454            0.0000000000
      4362      1454  TIP3      H2             -5.1879630842       20.3136315334        8.4058030784  W2        1454            0.0000000000
      4363      1455  TIP3      OH2            -0.2696230842       21.4153615334       -7.4968969216  W2        1455            0.0000000000
      4364      1455  TIP3      H1             -0.7294230842       20.9311915334       -6.8110469216  W2        1455            0.0000000000
      4365      1455  TIP3      H2             -0.0147530842       20.7469015334       -8.1328469216  W2        1455            0.0000000000
      4366      1456  TIP3      OH2            -0.9806930842       19.3080715334        4.8590630784  W2        1456            0.0000000000
      4367      1456  TIP3      H1             -1.5990830842       19.9827315334        5.1395330784  W2        1456            0.0000000000
      4368      1456  TIP3      H2             -0.6365730842       19.6294615334        4.0256830784  W2        1456            0.0000000000
      4369      1457  TIP3      OH2             0.8014169158       19.6585415334       -9.2345769216  W2        1457            0.0000000000
      4370      1457  TIP3      H1              0.6209169158       19.5036615334      -10.1617469216  W2        1457            0.0000000000
      4371      1457  TIP3      H2              1.7514669158       19.7664115334       -9.1897869216  W2        1457            0.0000000000
      4372      1458  TIP3      OH2             4.0391269158       21.7796015334        8.1365430784  W2        1458            0.0000000000
      4373      1458  TIP3      H1              4.9922469158       21.8635115334        8.1091430784  W2        1458            0.0000000000
      4374      1458  TIP3      H2              3.8785869158       21.0677815334        8.7560330784  W2        1458            0.0000000000
      4375      1459  TIP3      OH2            10.1912469158       22.0129615334       -9.7887669216  W2        1459            0.0000000000
      4376      1459  TIP3      H1              9.9177269158       21.5885115334      -10.6019369216  W2        1459            0.0000000000
      4377      1459  TIP3      H2             10.2306569158       22.9444115334      -10.0057269216  W2        1459            0.0000000000
      4378      1460  TIP3      OH2            -0.6413230842       16.6631515334        5.9413730784  W2        1460            0.0000000000
      4379      1460  TIP3      H1             -0.4912330842       15.9342815334        5.3393430784  W2        1460            0.0000000000
      4380      1460  TIP3      H2             -0.6390830842       17.4403215334        5.3825930784  W2        1460            0.0000000000
      4381      1461  TIP3      OH2            -0.2287530842       15.0327315334        3.4341130784  W2        1461            0.0000000000
      4382      1461  TIP3      H1              0.3069969158       15.4844015334        2.7820430784  W2        1461            0.0000000000
      4383      1461  TIP3      H2             -1.0807930842       14.9247115334        3.0115230784  W2        1461            0.0000000000
      4384      1462  TIP3      OH2             1.3530869158       20.4723515334        3.6736330784  W2        1462            0.0000000000
      4385      1462  TIP3      H1              2.1035669158       20.3161015334        3.1004130784  W2        1462            0.0000000000
      4386      1462  TIP3      H2              1.0139169158       21.3240115334        3.3981830784  W2        1462            0.0000000000
      4387      1463  TIP3      OH2             5.7687069158       18.2875315334        8.7021630784  W2        1463            0.0000000000
      4388      1463  TIP3      H1              5.9608369158       17.3564715334        8.5906130784  W2        1463            0.0000000000
      4389      1463  TIP3      H2              6.6263369158       18.7124815334        8.6917030784  W2        1463            0.0000000000
      4390      1464  TIP3      OH2             7.0854269158       21.0760515334        6.7794330784  W2        1464            0.0000000000
      4391      1464  TIP3      H1              6.8039269158       21.7855115334        6.2018130784  W2        1464            0.0000000000
      4392      1464  TIP3      H2              8.0278569158       21.0033515334        6.6285530784  W2        1464            0.0000000000
      4393      1465  TIP3      OH2            -2.1626930842       17.8615015334        7.8529330784  W2        1465            0.0000000000
      4394      1465  TIP3      H1             -2.9297930842       17.3289815334        7.6426930784  W2        1465            0.0000000000
      4395      1465  TIP3      H2             -1.4837930842       17.5515415334        7.2535630784  W2        1465            0.0000000000
      4396      1466  TIP3      OH2             0.5767969158       12.4893015334        3.8654730784  W2        1466            0.0000000000
      4397      1466  TIP3      H1              0.4787569158       13.4356215334        3.7600930784  W2        1466            0.0000000000
      4398      1466  TIP3      H2             -0.1655830842       12.1166815334        3.3898230784  W2        1466            0.0000000000
      4399      1467  TIP3      OH2             1.8408469158       16.8108415334        7.4293130784  W2        1467            0.0000000000
      4400      1467  TIP3      H1              1.6053869158       16.5915115334        8.3308030784  W2        1467            0.0000000000
      4401      1467  TIP3      H2              1.0575369158       16.6039615334        6.9195630784  W2        1467            0.0000000000
      4402      1468  TIP3      OH2             4.5565069158       15.9381915334        6.5046630784  W2        1468            0.0000000000
      4403      1468  TIP3      H1              3.6090469158       15.9701615334        6.6369930784  W2        1468            0.0000000000
      4404      1468  TIP3      H2              4.8691769158       15.3129015334        7.1584830784  W2        1468            0.0000000000
      4405      1469  TIP3      OH2             6.1906569158       14.5723015334        8.5098530784  W2        1469            0.0000000000
      4406      1469  TIP3      H1              6.0938369158       13.6200315334        8.5040430784  W2        1469            0.0000000000
      4407      1469  TIP3      H2              5.8689669158       14.8409815334        9.3704030784  W2        1469            0.0000000000
      4408      1470  TIP3      OH2            -3.9824130842       15.7818815334        7.5574030784  W2        1470            0.0000000000
      4409      1470  TIP3      H1             -3.7706730842       15.0754915334        6.9471530784  W2        1470            0.0000000000
      4410      1470  TIP3      H2             -4.0936630842       15.3444815334        8.4015230784  W2        1470            0.0000000000
      4411      1471  TIP3      OH2             0.7986069158       11.7830415334        6.5367530784  W2        1471            0.0000000000
      4412      1471  TIP3      H1              1.5104469158       11.1432615334        6.5226630784  W2        1471            0.0000000000
      4413      1471  TIP3      H2              0.6976469158       12.0498715334        5.6230630784  W2        1471            0.0000000000
      4414      1472  TIP3      OH2             1.1523569158       13.4658815334        8.5903830784  W2        1472            0.0000000000
      4415      1472  TIP3      H1              1.0205769158       12.9902615334        7.7702330784  W2        1472            0.0000000000
      4416      1472  TIP3      H2              0.5530969158       14.2102415334        8.5350930784  W2        1472            0.0000000000
      4417      1473  TIP3      OH2            -5.7329230842       24.9852915334       -8.7504069216  W2        1473            0.0000000000
      4418      1473  TIP3      H1             -4.8190030842       25.0641815334       -8.4770169216  W2        1473            0.0000000000
      4419      1473  TIP3      H2             -5.7256130842       24.2982515334       -9.4168469216  W2        1473            0.0000000000
      4420      1474  TIP3      OH2             9.3485569158       24.6254015334        8.6720230784  W2        1474            0.0000000000
      4421      1474  TIP3      H1              8.4826669158       24.5203715334        9.0662530784  W2        1474            0.0000000000
      4422      1474  TIP3      H2              9.7251469158       25.3837315334        9.1184930784  W2        1474            0.0000000000
      4423      1475  TIP3      OH2            10.6495269158       22.8817715334       -5.8137269216  W2        1475            0.0000000000
      4424      1475  TIP3      H1             11.4996669158       23.3028615334       -5.6865669216  W2        1475            0.0000000000
      4425      1475  TIP3      H2             10.6550369158       22.1417815334       -5.2065869216  W2        1475            0.0000000000
      4426      1476  TIP3      OH2            11.0440869158       20.9355115334       -3.9901569216  W2        1476            0.0000000000
      4427      1476  TIP3      H1             10.3175469158       20.4557715334       -3.5923969216  W2        1476            0.0000000000
      4428      1476  TIP3      H2             11.6254169158       21.1409815334       -3.2579969216  W2        1476            0.0000000000
      4429      1477  TIP3      OH2            10.8032069158       23.7202615334        0.9576030784  W2        1477            0.0000000000
      4430      1477  TIP3      H1             11.6366269158       23.3422615334        0.6769630784  W2        1477            0.0000000000
      4431      1477  TIP3      H2             10.9152369158       24.6633815334        0.8385130784  W2        1477            0.0000000000
      4432      1478  TIP3      OH2            11.3123969158       20.8363615334       -7.5990269216  W2        1478            0.0000000000
      4433      1478  TIP3      H1             10.7905069158       21.1927715334       -8.3179369216  W2        1478            0.0000000000
      4434      1478  TIP3      H2             11.2793169158       21.5111415334       -6.9209369216  W2        1478            0.0000000000
      4435      1479  TIP3      OH2             9.6612969158       18.0759215334       -9.0483169216  W2        1479            0.0000000000
      4436      1479  TIP3      H1              9.7577369158       18.7426215334       -9.7283469216  W2        1479            0.0000000000
      4437      1479  TIP3      H2              9.5212569158       17.2605515334       -9.5297669216  W2        1479            0.0000000000
      4438      1480  TIP3      OH2             8.8307669158       19.4561615334       -3.4272869216  W2        1480            0.0000000000
      4439      1480  TIP3      H1              8.6806469158       18.5110215334       -3.4475069216  W2        1480            0.0000000000
      4440      1480  TIP3      H2              8.4772169158       19.7373015334       -2.5833769216  W2        1480            0.0000000000
      4441      1481  TIP3      OH2            -6.1339930842       21.5343815334        0.5830930784  W2        1481            0.0000000000
      4442      1481  TIP3      H1             -5.9497030842       21.4525515334       -0.3526169216  W2        1481            0.0000000000
      4443      1481  TIP3      H2             -5.2847030842       21.4100815334        1.0067330784  W2        1481            0.0000000000
      4444      1482  TIP3      OH2             9.6870569158       21.4264915334        6.2115430784  W2        1482            0.0000000000
      4445      1482  TIP3      H1             10.2697869158       20.6917215334        6.4032630784  W2        1482            0.0000000000
      4446      1482  TIP3      H2             10.2509869158       22.1985215334        6.2581230784  W2        1482            0.0000000000
      4447      1483  TIP3      OH2            11.1837669158       19.3290715334        6.8960830784  W2        1483            0.0000000000
      4448      1483  TIP3      H1             10.3204369158       18.9502815334        6.7305530784  W2        1483            0.0000000000
      4449      1483  TIP3      H2             11.7881369158       18.5905515334        6.8216630784  W2        1483            0.0000000000
      4450      1484  TIP3      OH2             8.9086769158       15.4839015334       -9.9307669216  W2        1484            0.0000000000
      4451      1484  TIP3      H1              9.5192569158       15.1125815334       -9.2939469216  W2        1484            0.0000000000
      4452      1484  TIP3      H2              8.0718269158       15.0625915334       -9.7347669216  W2        1484            0.0000000000
      4453      1485  TIP3      OH2             8.5412469158       17.0387415334       -4.9647769216  W2        1485            0.0000000000
      4454      1485  TIP3      H1              8.8209569158       16.1317815334       -4.8406069216  W2        1485            0.0000000000
      4455      1485  TIP3      H2              9.3004169158       17.4728915334       -5.3538569216  W2        1485            0.0000000000
      4456      1486  TIP3      OH2             9.1530769158       17.6204815334        0.4711130784  W2        1486            0.0000000000
      4457      1486  TIP3      H1             10.0858769158       17.8324715334        0.4367130784  W2        1486            0.0000000000
      4458      1486  TIP3      H2              8.9178269158       17.7216915334        1.3934130784  W2        1486            0.0000000000
      4459      1487  TIP3      OH2             9.1822669158       18.3570115334        3.2470530784  W2        1487            0.0000000000
      4460      1487  TIP3      H1              8.3393969158       18.6250515334        3.6130330784  W2        1487            0.0000000000
      4461      1487  TIP3      H2              9.6246969158       19.1792015334        3.0361630784  W2        1487            0.0000000000
      4462      1488  TIP3      OH2            -6.5365130842       16.8048815334        6.7239730784  W2        1488            0.0000000000
      4463      1488  TIP3      H1             -5.6170230842       16.6827115334        6.9602830784  W2        1488            0.0000000000
      4464      1488  TIP3      H2             -6.9860630842       16.0548515334        7.1133230784  W2        1488            0.0000000000
      4465      1489  TIP3      OH2            11.4654269158       12.3370315334        8.6005530784  W2        1489            0.0000000000
      4466      1489  TIP3      H1             11.8151269158       11.6833815334        7.9950230784  W2        1489            0.0000000000
      4467      1489  TIP3      H2             11.6123769158       13.1744415334        8.1608130784  W2        1489            0.0000000000
      4468      1490  TIP3      OH2             9.1547269158       14.3016715334       -4.9165769216  W2        1490            0.0000000000
      4469      1490  TIP3      H1              9.3372269158       13.8528215334       -4.0910769216  W2        1490            0.0000000000
      4470      1490  TIP3      H2              8.5550169158       13.7171115334       -5.3801169216  W2        1490            0.0000000000
      4471      1491  TIP3      OH2            -5.3152630842       15.1170415334       -0.3847369216  W2        1491            0.0000000000
      4472      1491  TIP3      H1             -4.8701030842       14.3252915334       -0.0827669216  W2        1491            0.0000000000
      4473      1491  TIP3      H2             -4.8489630842       15.8335615334        0.0458230784  W2        1491            0.0000000000
      4474      1492  TIP3      OH2            -7.0112330842       18.1163415334        0.6842830784  W2        1492            0.0000000000
      4475      1492  TIP3      H1             -6.5192530842       17.8953915334       -0.1065169216  W2        1492            0.0000000000
      4476      1492  TIP3      H2             -6.6491430842       18.9566815334        0.9652330784  W2        1492            0.0000000000
      4477      1493  TIP3      OH2            10.9851469158       14.4464915334        6.9496830784  W2        1493            0.0000000000
      4478      1493  TIP3      H1             10.0677169158       14.7172015334        6.9140330784  W2        1493            0.0000000000
      4479      1493  TIP3      H2             11.1080869158       13.9113315334        6.1656530784  W2        1493            0.0000000000
      4480      1494  TIP3      OH2            11.0213469158       14.3694815334       -8.3885469216  W2        1494            0.0000000000
      4481      1494  TIP3      H1             11.4336069158       13.6480515334       -8.8637469216  W2        1494            0.0000000000
      4482      1494  TIP3      H2             11.7029969158       15.0389415334       -8.3301169216  W2        1494            0.0000000000
      4483      1495  TIP3      OH2            -6.6975830842       14.3742515334       -5.2614769216  W2        1495            0.0000000000
      4484      1495  TIP3      H1             -7.6227430842       14.5829115334       -5.3909269216  W2        1495            0.0000000000
      4485      1495  TIP3      H2             -6.2435930842       14.8583315334       -5.9512469216  W2        1495            0.0000000000
      4486      1496  TIP3      OH2            -6.7340430842       13.1121515334        3.0827730784  W2        1496            0.0000000000
      4487      1496  TIP3      H1             -7.3989930842       12.8661815334        3.7258630784  W2        1496            0.0000000000
      4488      1496  TIP3      H2             -7.1769130842       13.7341915334        2.5055730784  W2        1496            0.0000000000
      4489      1497  TIP3      OH2             9.9857369158       12.5361215334        4.7687630784  W2        1497            0.0000000000
      4490      1497  TIP3      H1              9.1730869158       12.8611515334        4.3812330784  W2        1497            0.0000000000
      4491      1497  TIP3      H2             10.2185869158       11.7759715334        4.2356730784  W2        1497            0.0000000000
      4492      1498  TIP3      OH2             3.4155869158       13.9851815334       -0.9084169216  W2        1498            0.0000000000
      4493      1498  TIP3      H1              2.7412669158       13.3557415334       -0.6528369216  W2        1498            0.0000000000
      4494      1498  TIP3      H2              3.9795069158       13.5010715334       -1.5116269216  W2        1498            0.0000000000
      4495      1499  TIP3      OH2             8.5583069158       12.0925815334       -0.7957069216  W2        1499            0.0000000000
      4496      1499  TIP3      H1              9.1620669158       12.6401215334       -1.2976069216  W2        1499            0.0000000000
      4497      1499  TIP3      H2              7.6885069158       12.4116215334       -1.0362969216  W2        1499            0.0000000000
      4498      1500  TIP3      OH2            10.2853469158       13.2314515334       -2.4626169216  W2        1500            0.0000000000
      4499      1500  TIP3      H1             10.8970969158       12.7170215334       -2.9892569216  W2        1500            0.0000000000
      4500      1500  TIP3      H2             10.6676869158       14.1086615334       -2.4391769216  W2        1500            0.0000000000
      4501      1501  TIP3      OH2            -4.2576630842       12.6192115334       -3.0864269216  W2        1501            0.0000000000
      4502      1501  TIP3      H1             -5.0346830842       12.3847015334       -3.5938369216  W2        1501            0.0000000000
      4503      1501  TIP3      H2             -3.7273030842       11.8224215334       -3.0776269216  W2        1501            0.0000000000
      4504      1502  TIP3      OH2            -5.4213230842       12.4170215334       -7.2828169216  W2        1502            0.0000000000
      4505      1502  TIP3      H1             -4.9822530842       13.0280715334       -7.8744669216  W2        1502            0.0000000000
      4506      1502  TIP3      H2             -6.0550830842       12.9554315334       -6.8088169216  W2        1502            0.0000000000
      4507      1503  TIP3      OH2             0.3215969158       12.5459215334       -3.2731169216  W2        1503            0.0000000000
      4508      1503  TIP3      H1              1.1959369158       12.9343515334       -3.3026869216  W2        1503            0.0000000000
      4509      1503  TIP3      H2              0.1856769158       12.3307015334       -2.3503969216  W2        1503            0.0000000000
      4510      1504  TIP3      OH2             5.8784369158       12.5759015334       -1.6239469216  W2        1504            0.0000000000
      4511      1504  TIP3      H1              5.9545969158       12.6710615334       -2.5733469216  W2        1504            0.0000000000
      4512      1504  TIP3      H2              5.6033569158       11.6681915334       -1.4950369216  W2        1504            0.0000000000
      4513      1505  TIP3      OH2             7.2316969158       12.6016815334       -5.9314469216  W2        1505            0.0000000000
      4514      1505  TIP3      H1              6.5288069158       13.2166015334       -6.1413069216  W2        1505            0.0000000000
      4515      1505  TIP3      H2              6.7868369158       11.7643515334       -5.8003569216  W2        1505            0.0000000000
      4516      1506  TIP3      OH2            -3.5604130842       14.3331715334       -8.8404069216  W2        1506            0.0000000000
      4517      1506  TIP3      H1             -3.0690730842       13.7034115334       -9.3678569216  W2        1506            0.0000000000
      4518      1506  TIP3      H2             -2.9367830842       14.6291115334       -8.1772869216  W2        1506            0.0000000000
      4519      1507  TIP3      OH2             1.4655969158       14.6263215334       -6.3833569216  W2        1507            0.0000000000
      4520      1507  TIP3      H1              1.6437269158       13.9796415334       -5.7004969216  W2        1507            0.0000000000
      4521      1507  TIP3      H2              1.4122169158       15.4600915334       -5.9162469216  W2        1507            0.0000000000
      4522      1508  TIP3      OH2            -4.2998630842       13.1334015334        6.4311930784  W2        1508            0.0000000000
      4523      1508  TIP3      H1             -4.6660430842       12.3676615334        6.8736630784  W2        1508            0.0000000000
      4524      1508  TIP3      H2             -3.3870130842       13.1624215334        6.7177030784  W2        1508            0.0000000000
      4525      1509  TIP3      OH2            -2.3267830842       12.4838415334        7.9669030784  W2        1509            0.0000000000
      4526      1509  TIP3      H1             -1.4284230842       12.2098615334        7.7822430784  W2        1509            0.0000000000
      4527      1509  TIP3      H2             -2.7134730842       11.7414415334        8.4311630784  W2        1509            0.0000000000
      4528      1510  TIP3      OH2             6.0944469158       11.8163715334        8.1491830784  W2        1510            0.0000000000
      4529      1510  TIP3      H1              6.1711669158       11.3904415334        9.0029530784  W2        1510            0.0000000000
      4530      1510  TIP3      H2              6.9881069158       11.8298415334        7.8065330784  W2        1510            0.0000000000
      4531      1511  TIP3      OH2            23.6765969158       21.7754415334       -3.1276769216  W2        1511            0.0000000000
      4532      1511  TIP3      H1             23.7657069158       22.7192615334       -3.2599669216  W2        1511            0.0000000000
      4533      1511  TIP3      H2             23.0383569158       21.5000815334       -3.7857369216  W2        1511            0.0000000000
      4534      1512  TIP3      OH2            22.6097269158       21.0305115334        0.2911430784  W2        1512            0.0000000000
      4535      1512  TIP3      H1             22.5714769158       20.3841415334        0.9961030784  W2        1512            0.0000000000
      4536      1512  TIP3      H2             22.2873769158       20.5639515334       -0.4799869216  W2        1512            0.0000000000
      4537      1513  TIP3      OH2            14.9782269158       20.6447215334        1.8841330784  W2        1513            0.0000000000
      4538      1513  TIP3      H1             15.0194369158       20.0190515334        2.6073730784  W2        1513            0.0000000000
      4539      1513  TIP3      H2             15.6809969158       21.2685815334        2.0661730784  W2        1513            0.0000000000
      4540      1514  TIP3      OH2            15.9015369158       25.0946115334        0.4190430784  W2        1514            0.0000000000
      4541      1514  TIP3      H1             15.5320569158       24.2926615334        0.0494730784  W2        1514            0.0000000000
      4542      1514  TIP3      H2             16.8426469158       24.9261015334        0.4653830784  W2        1514            0.0000000000
      4543      1515  TIP3      OH2            12.5115869158       18.7548715334       -4.1880769216  W2        1515            0.0000000000
      4544      1515  TIP3      H1             12.0639269158       19.6007415334       -4.2064269216  W2        1515            0.0000000000
      4545      1515  TIP3      H2             11.9507069158       18.1752915334       -4.7035669216  W2        1515            0.0000000000
      4546      1516  TIP3      OH2            13.2221969158       20.9168315334       -2.0622769216  W2        1516            0.0000000000
      4547      1516  TIP3      H1             13.4355469158       20.1469915334       -1.5349769216  W2        1516            0.0000000000
      4548      1516  TIP3      H2             13.9599569158       21.0065015334       -2.6655169216  W2        1516            0.0000000000
      4549      1517  TIP3      OH2            20.9991669158       23.4626515334        0.6972430784  W2        1517            0.0000000000
      4550      1517  TIP3      H1             21.3029569158       22.7767915334        0.1026530784  W2        1517            0.0000000000
      4551      1517  TIP3      H2             21.7205669158       23.5815215334        1.3150430784  W2        1517            0.0000000000
      4552      1518  TIP3      OH2            24.1398669158       17.8568915334        1.0247230784  W2        1518            0.0000000000
      4553      1518  TIP3      H1             24.2824569158       16.9105915334        1.0448830784  W2        1518            0.0000000000
      4554      1518  TIP3      H2             24.0337669158       18.0638715334        0.0962130784  W2        1518            0.0000000000
      4555      1519  TIP3      OH2            17.2946969158       15.9585315334       -1.7027969216  W2        1519            0.0000000000
      4556      1519  TIP3      H1             17.3378069158       16.8183815334       -2.1211669216  W2        1519            0.0000000000
      4557      1519  TIP3      H2             16.8371069158       15.4060015334       -2.3364769216  W2        1519            0.0000000000
      4558      1520  TIP3      OH2            25.0169669158       16.0890915334       -3.3019669216  W2        1520            0.0000000000
      4559      1520  TIP3      H1             25.6633969158       15.7604115334       -2.6772069216  W2        1520            0.0000000000
      4560      1520  TIP3      H2             25.5269069158       16.6069915334       -3.9248269216  W2        1520            0.0000000000
      4561      1521  TIP3      OH2            13.9148469158       18.3551115334       -0.9406569216  W2        1521            0.0000000000
      4562      1521  TIP3      H1             14.5685069158       17.8052815334       -0.5086469216  W2        1521            0.0000000000
      4563      1521  TIP3      H2             13.9387769158       18.0810115334       -1.8574569216  W2        1521            0.0000000000
      4564      1522  TIP3      OH2            19.0712969158       19.9052415334       -1.7255069216  W2        1522            0.0000000000
      4565      1522  TIP3      H1             19.6873969158       19.3787815334       -1.2161069216  W2        1522            0.0000000000
      4566      1522  TIP3      H2             18.4851769158       19.2651115334       -2.1291469216  W2        1522            0.0000000000
      4567      1523  TIP3      OH2            16.1048869158       14.8763715334        2.3712830784  W2        1523            0.0000000000
      4568      1523  TIP3      H1             15.8860569158       15.4064315334        1.6048830784  W2        1523            0.0000000000
      4569      1523  TIP3      H2             15.4369769158       15.1029215334        3.0184230784  W2        1523            0.0000000000
      4570      1524  TIP3      OH2            23.4738669158       24.3764815334       -4.0848069216  W2        1524            0.0000000000
      4571      1524  TIP3      H1             23.1783769158       24.0537115334       -4.9361169216  W2        1524            0.0000000000
      4572      1524  TIP3      H2             23.1496469158       25.2761515334       -4.0435469216  W2        1524            0.0000000000
      4573      1525  TIP3      OH2            18.6740269158       22.5519415334        2.6586530784  W2        1525            0.0000000000
      4574      1525  TIP3      H1             17.9339369158       23.1500915334        2.7621730784  W2        1525            0.0000000000
      4575      1525  TIP3      H2             19.3879769158       23.1059015334        2.3430130784  W2        1525            0.0000000000
      4576      1526  TIP3      OH2            15.6986169158       16.7685515334        0.3235030784  W2        1526            0.0000000000
      4577      1526  TIP3      H1             16.3122469158       17.4013115334        0.6967430784  W2        1526            0.0000000000
      4578      1526  TIP3      H2             16.2106869158       16.2960515334       -0.3328069216  W2        1526            0.0000000000
      4579      1527  TIP3      OH2            17.0814569158       24.5162415334        3.4458030784  W2        1527            0.0000000000
      4580      1527  TIP3      H1             17.0762169158       25.3955915334        3.0677330784  W2        1527            0.0000000000
      4581      1527  TIP3      H2             16.2278669158       24.4326515334        3.8707930784  W2        1527            0.0000000000
      4582      1528  TIP3      OH2            13.2025469158       24.1870315334       -5.7722669216  W2        1528            0.0000000000
      4583      1528  TIP3      H1             12.9306369158       24.4161315334       -6.6609769216  W2        1528            0.0000000000
      4584      1528  TIP3      H2             13.2481169158       25.0249115334       -5.3117369216  W2        1528            0.0000000000
      4585      1529  TIP3      OH2            20.1313569158       12.1818815334       -0.1762269216  W2        1529            0.0000000000
      4586      1529  TIP3      H1             20.0137769158       11.2334815334       -0.2303969216  W2        1529            0.0000000000
      4587      1529  TIP3      H2             19.2763669158       12.5144915334        0.0968830784  W2        1529            0.0000000000
      4588      1530  TIP3      OH2            22.3978469158       21.0194415334       -5.6756469216  W2        1530            0.0000000000
      4589      1530  TIP3      H1             21.6863969158       21.5544115334       -6.0275969216  W2        1530            0.0000000000
      4590      1530  TIP3      H2             23.0888069158       21.0746515334       -6.3357569216  W2        1530            0.0000000000
      4591      1531  TIP3      OH2            22.4517669158       19.4768715334       -8.6371469216  W2        1531            0.0000000000
      4592      1531  TIP3      H1             23.1527569158       19.4995615334       -7.9857469216  W2        1531            0.0000000000
      4593      1531  TIP3      H2             22.7540569158       18.8488415334       -9.2932169216  W2        1531            0.0000000000
      4594      1532  TIP3      OH2            25.8036169158       21.2287715334       -4.7240569216  W2        1532            0.0000000000
      4595      1532  TIP3      H1             25.0717169158       21.4571415334       -4.1509969216  W2        1532            0.0000000000
      4596      1532  TIP3      H2             26.2508369158       20.5150415334       -4.2693069216  W2        1532            0.0000000000
      4597      1533  TIP3      OH2            25.7009669158       19.4030315334        4.3436430784  W2        1533            0.0000000000
      4598      1533  TIP3      H1             25.7808769158       20.1664715334        4.9154930784  W2        1533            0.0000000000
      4599      1533  TIP3      H2             25.0997369158       19.6822715334        3.6531530784  W2        1533            0.0000000000
      4600      1534  TIP3      OH2            17.4489869158       21.8593915334       -2.8415569216  W2        1534            0.0000000000
      4601      1534  TIP3      H1             17.1185069158       21.4887315334       -3.6598569216  W2        1534            0.0000000000
      4602      1534  TIP3      H2             18.0373969158       21.1887915334       -2.4947269216  W2        1534            0.0000000000
      4603      1535  TIP3      OH2            18.8157369158       25.2874515334       -0.1603369216  W2        1535            0.0000000000
      4604      1535  TIP3      H1             18.7208669158       24.7087615334       -0.9168769216  W2        1535            0.0000000000
      4605      1535  TIP3      H2             19.5450969158       24.9160215334        0.3359430784  W2        1535            0.0000000000
      4606      1536  TIP3      OH2            17.8155369158       20.6279515334        0.7919430784  W2        1536            0.0000000000
      4607      1536  TIP3      H1             18.3807869158       20.7493715334        0.0290630784  W2        1536            0.0000000000
      4608      1536  TIP3      H2             18.1344269158       21.2654515334        1.4307930784  W2        1536            0.0000000000
      4609      1537  TIP3      OH2            18.6956069158       25.0272215334        5.5091330784  W2        1537            0.0000000000
      4610      1537  TIP3      H1             18.3843569158       25.8095415334        5.9644530784  W2        1537            0.0000000000
      4611      1537  TIP3      H2             18.0456269158       24.8741315334        4.8233330784  W2        1537            0.0000000000
      4612      1538  TIP3      OH2            24.6745669158       20.3910615334       -7.0389369216  W2        1538            0.0000000000
      4613      1538  TIP3      H1             25.2541169158       20.5410915334       -6.2920469216  W2        1538            0.0000000000
      4614      1538  TIP3      H2             25.0885669158       20.8618015334       -7.7622969216  W2        1538            0.0000000000
      4615      1539  TIP3      OH2            15.6155969158       21.2253315334        4.7377030784  W2        1539            0.0000000000
      4616      1539  TIP3      H1             15.6859169158       21.8760115334        5.4362030784  W2        1539            0.0000000000
      4617      1539  TIP3      H2             14.7248169158       21.3280815334        4.4027930784  W2        1539            0.0000000000
      4618      1540  TIP3      OH2            16.4392569158       20.9288215334       -5.2522769216  W2        1540            0.0000000000
      4619      1540  TIP3      H1             16.1473869158       21.6969915334       -5.7431469216  W2        1540            0.0000000000
      4620      1540  TIP3      H2             15.7647769158       20.2694415334       -5.4151369216  W2        1540            0.0000000000
      4621      1541  TIP3      OH2            12.5322669158       23.2917415334        3.5627030784  W2        1541            0.0000000000
      4622      1541  TIP3      H1             12.0311069158       23.2636815334        2.7476730784  W2        1541            0.0000000000
      4623      1541  TIP3      H2             12.5376369158       22.3860615334        3.8724330784  W2        1541            0.0000000000
      4624      1542  TIP3      OH2            14.7813169158       24.6152815334        4.6059830784  W2        1542            0.0000000000
      4625      1542  TIP3      H1             14.9974469158       24.2538415334        5.4655630784  W2        1542            0.0000000000
      4626      1542  TIP3      H2             13.9257869158       24.2406615334        4.3963330784  W2        1542            0.0000000000
      4627      1543  TIP3      OH2            17.4001169158       13.0853315334        0.6014030784  W2        1543            0.0000000000
      4628      1543  TIP3      H1             16.5384869158       12.9981515334        0.1936930784  W2        1543            0.0000000000
      4629      1543  TIP3      H2             17.3776869158       13.9413415334        1.0291630784  W2        1543            0.0000000000
      4630      1544  TIP3      OH2            22.0628969158       12.8073715334        3.9761030784  W2        1544            0.0000000000
      4631      1544  TIP3      H1             22.4832069158       12.3920815334        4.7291630784  W2        1544            0.0000000000
      4632      1544  TIP3      H2             21.1298569158       12.6287015334        4.0933030784  W2        1544            0.0000000000
      4633      1545  TIP3      OH2            25.3893869158       16.5628915334        4.8295530784  W2        1545            0.0000000000
      4634      1545  TIP3      H1             24.8753369158       16.4371115334        5.6271530784  W2        1545            0.0000000000
      4635      1545  TIP3      H2             25.2338569158       17.4752015334        4.5851730784  W2        1545            0.0000000000
      4636      1546  TIP3      OH2            21.7246269158       15.2997115334       -8.7388169216  W2        1546            0.0000000000
      4637      1546  TIP3      H1             21.4711069158       15.3188715334       -7.8160069216  W2        1546            0.0000000000
      4638      1546  TIP3      H2             21.4678369158       14.4282515334       -9.0401969216  W2        1546            0.0000000000
      4639      1547  TIP3      OH2            17.4911269158       18.0507815334        1.6964230784  W2        1547            0.0000000000
      4640      1547  TIP3      H1             16.8493369158       18.0105115334        2.4054330784  W2        1547            0.0000000000
      4641      1547  TIP3      H2             17.5283269158       18.9772515334        1.4587230784  W2        1547            0.0000000000
      4642      1548  TIP3      OH2            17.4880369158       18.2717915334       -3.3915769216  W2        1548            0.0000000000
      4643      1548  TIP3      H1             16.5953269158       17.9314015334       -3.4501969216  W2        1548            0.0000000000
      4644      1548  TIP3      H2             17.9386969158       17.8948815334       -4.1472569216  W2        1548            0.0000000000
      4645      1549  TIP3      OH2            23.0235869158       18.6878215334       -4.5744969216  W2        1549            0.0000000000
      4646      1549  TIP3      H1             22.6146169158       19.5026815334       -4.8660169216  W2        1549            0.0000000000
      4647      1549  TIP3      H2             23.7442069158       18.5478315334       -5.1887869216  W2        1549            0.0000000000
      4648      1550  TIP3      OH2            22.1257469158       18.8634615334        6.9135730784  W2        1550            0.0000000000
      4649      1550  TIP3      H1             21.5631269158       18.1586215334        7.2343530784  W2        1550            0.0000000000
      4650      1550  TIP3      H2             22.9520869158       18.7426515334        7.3813330784  W2        1550            0.0000000000
      4651      1551  TIP3      OH2            24.0283569158       18.1338615334       -1.7605269216  W2        1551            0.0000000000
      4652      1551  TIP3      H1             23.8328069158       18.7395415334       -2.4754669216  W2        1551            0.0000000000
      4653      1551  TIP3      H2             24.2096169158       17.3003815334       -2.1948969216  W2        1551            0.0000000000
      4654      1552  TIP3      OH2            15.2411769158       18.3711315334        3.5636230784  W2        1552            0.0000000000
      4655      1552  TIP3      H1             15.2031169158       18.7712915334        4.4323330784  W2        1552            0.0000000000
      4656      1552  TIP3      H2             14.7502869158       17.5543715334        3.6539130784  W2        1552            0.0000000000
      4657      1553  TIP3      OH2            18.6069169158       15.7453615334       -9.6377769216  W2        1553            0.0000000000
      4658      1553  TIP3      H1             18.1759869158       15.3003715334       -8.9080369216  W2        1553            0.0000000000
      4659      1553  TIP3      H2             17.8887869158       16.1169915334      -10.1500269216  W2        1553            0.0000000000
      4660      1554  TIP3      OH2            11.8492569158       15.4873115334       -2.5859069216  W2        1554            0.0000000000
      4661      1554  TIP3      H1             12.4800269158       15.4585215334       -1.8665169216  W2        1554            0.0000000000
      4662      1554  TIP3      H2             12.2986869158       15.0621815334       -3.3163169216  W2        1554            0.0000000000
      4663      1555  TIP3      OH2            13.1234669158       16.2335115334       -7.1618669216  W2        1555            0.0000000000
      4664      1555  TIP3      H1             13.5976369158       16.8245015334       -7.7467769216  W2        1555            0.0000000000
      4665      1555  TIP3      H2             12.4061069158       16.7638015334       -6.8148569216  W2        1555            0.0000000000
      4666      1556  TIP3      OH2            23.2922769158       19.7719915334        2.9107130784  W2        1556            0.0000000000
      4667      1556  TIP3      H1             23.6157569158       19.1409615334        2.2677630784  W2        1556            0.0000000000
      4668      1556  TIP3      H2             22.8522069158       19.2372115334        3.5714530784  W2        1556            0.0000000000
      4669      1557  TIP3      OH2            20.0695669158       15.6995415334       -2.3051669216  W2        1557            0.0000000000
      4670      1557  TIP3      H1             19.1586769158       15.7562215334       -2.0165669216  W2        1557            0.0000000000
      4671      1557  TIP3      H2             20.5748569158       15.6390915334       -1.4944469216  W2        1557            0.0000000000
      4672      1558  TIP3      OH2            14.8979069158       17.3281715334       -3.4784069216  W2        1558            0.0000000000
      4673      1558  TIP3      H1             14.0087069158       17.4277215334       -3.8184469216  W2        1558            0.0000000000
      4674      1558  TIP3      H2             15.1943969158       16.4864715334       -3.8246169216  W2        1558            0.0000000000
      4675      1559  TIP3      OH2            18.5510869158       17.3284315334       -5.8219469216  W2        1559            0.0000000000
      4676      1559  TIP3      H1             19.4826369158       17.4574315334       -5.6436369216  W2        1559            0.0000000000
      4677      1559  TIP3      H2             18.3361169158       17.9978615334       -6.4714769216  W2        1559            0.0000000000
      4678      1560  TIP3      OH2            24.4747569158       14.9341715334        0.9590130784  W2        1560            0.0000000000
      4679      1560  TIP3      H1             23.7979169158       15.0654815334        1.6229830784  W2        1560            0.0000000000
      4680      1560  TIP3      H2             23.9892469158       14.7791215334        0.1487830784  W2        1560            0.0000000000
      4681      1561  TIP3      OH2            17.2251069158       18.5226515334       -8.2553369216  W2        1561            0.0000000000
      4682      1561  TIP3      H1             16.6826169158       18.1430315334       -8.9465769216  W2        1561            0.0000000000
      4683      1561  TIP3      H2             18.0585969158       18.7171215334       -8.6839269216  W2        1561            0.0000000000
      4684      1562  TIP3      OH2            15.3602469158       23.0798415334        6.8438230784  W2        1562            0.0000000000
      4685      1562  TIP3      H1             16.0924869158       23.3344315334        7.4052730784  W2        1562            0.0000000000
      4686      1562  TIP3      H2             14.5801169158       23.2843815334        7.3593630784  W2        1562            0.0000000000
      4687      1563  TIP3      OH2            21.3895369158       18.4868415334       -0.4182069216  W2        1563            0.0000000000
      4688      1563  TIP3      H1             21.9538769158       17.9405015334       -0.9652469216  W2        1563            0.0000000000
      4689      1563  TIP3      H2             21.2418769158       17.9650315334        0.3705530784  W2        1563            0.0000000000
      4690      1564  TIP3      OH2            16.3915069158       14.6234515334       -3.9997269216  W2        1564            0.0000000000
      4691      1564  TIP3      H1             16.0744569158       13.7209815334       -4.0351869216  W2        1564            0.0000000000
      4692      1564  TIP3      H2             17.1729169158       14.6251915334       -4.5525669216  W2        1564            0.0000000000
      4693      1565  TIP3      OH2            20.0161269158       16.8754515334        1.9958330784  W2        1565            0.0000000000
      4694      1565  TIP3      H1             19.1806569158       17.3294015334        2.1060730784  W2        1565            0.0000000000
      4695      1565  TIP3      H2             20.5401869158       17.1513015334        2.7478230784  W2        1565            0.0000000000
      4696      1566  TIP3      OH2            20.5603869158       23.0882215334       -6.3195269216  W2        1566            0.0000000000
      4697      1566  TIP3      H1             19.8154869158       22.5807515334       -6.6417369216  W2        1566            0.0000000000
      4698      1566  TIP3      H2             20.4261069158       23.1370215334       -5.3730469216  W2        1566            0.0000000000
      4699      1567  TIP3      OH2            24.4580669158       15.9022115334       -8.1202669216  W2        1567            0.0000000000
      4700      1567  TIP3      H1             23.5194869158       16.0137715334       -8.2713869216  W2        1567            0.0000000000
      4701      1567  TIP3      H2             24.7552769158       16.7589015334       -7.8136969216  W2        1567            0.0000000000
      4702      1568  TIP3      OH2            22.0795969158       23.2725515334        4.9173830784  W2        1568            0.0000000000
      4703      1568  TIP3      H1             21.7342069158       22.8907915334        5.7243430784  W2        1568            0.0000000000
      4704      1568  TIP3      H2             21.8796069158       24.2059115334        4.9886730784  W2        1568            0.0000000000
      4705      1569  TIP3      OH2            25.1764169158       17.7694815334       -6.4595269216  W2        1569            0.0000000000
      4706      1569  TIP3      H1             26.0683169158       17.6319815334       -6.1404069216  W2        1569            0.0000000000
      4707      1569  TIP3      H2             25.2327769158       18.5600915334       -6.9961769216  W2        1569            0.0000000000
      4708      1570  TIP3      OH2            15.6852169158       22.3832215334       -0.5497369216  W2        1570            0.0000000000
      4709      1570  TIP3      H1             16.4299369158       22.3807915334       -1.1510869216  W2        1570            0.0000000000
      4710      1570  TIP3      H2             15.7628769158       21.5596015334       -0.0682269216  W2        1570            0.0000000000
      4711      1571  TIP3      OH2            22.6857969158       24.5466515334       -7.2940669216  W2        1571            0.0000000000
      4712      1571  TIP3      H1             22.3906369158       25.3734415334       -6.9125869216  W2        1571            0.0000000000
      4713      1571  TIP3      H2             21.9827969158       23.9273415334       -7.0979269216  W2        1571            0.0000000000
      4714      1572  TIP3      OH2            12.6931869158       20.8439115334        4.7651130784  W2        1572            0.0000000000
      4715      1572  TIP3      H1             12.9160469158       20.4258715334        5.5968630784  W2        1572            0.0000000000
      4716      1572  TIP3      H2             12.0911969158       20.2314115334        4.3423930784  W2        1572            0.0000000000
      4717      1573  TIP3      OH2            19.7096769158       20.3609015334        6.9780830784  W2        1573            0.0000000000
      4718      1573  TIP3      H1             19.4137569158       20.1952015334        6.0829930784  W2        1573            0.0000000000
      4719      1573  TIP3      H2             20.6411969158       20.1409315334        6.9674730784  W2        1573            0.0000000000
      4720      1574  TIP3      OH2            24.3299569158       25.7341015334        4.8678830784  W2        1574            0.0000000000
      4721      1574  TIP3      H1             23.4293869158       25.9173615334        4.6002730784  W2        1574            0.0000000000
      4722      1574  TIP3      H2             24.3640669158       25.9930315334        5.7887630784  W2        1574            0.0000000000
      4723      1575  TIP3      OH2            25.5168469158       21.5728815334        0.7215430784  W2        1575            0.0000000000
      4724      1575  TIP3      H1             24.5885369158       21.3410715334        0.6944730784  W2        1575            0.0000000000
      4725      1575  TIP3      H2             25.9679569158       20.7958615334        0.3914230784  W2        1575            0.0000000000
      4726      1576  TIP3      OH2            18.0601569158       25.9010415334       -3.1455869216  W2        1576            0.0000000000
      4727      1576  TIP3      H1             18.5873769158       26.6744815334       -3.3457069216  W2        1576            0.0000000000
      4728      1576  TIP3      H2             17.1800069158       26.1259615334       -3.4471869216  W2        1576            0.0000000000
      4729      1577  TIP3      OH2            13.8149269158       20.7634515334       -8.5583469216  W2        1577            0.0000000000
      4730      1577  TIP3      H1             14.4309169158       21.3901715334       -8.1788669216  W2        1577            0.0000000000
      4731      1577  TIP3      H2             12.9531869158       21.0794315334       -8.2866969216  W2        1577            0.0000000000
      4732      1578  TIP3      OH2            19.4873869158       23.5640315334       -3.5691569216  W2        1578            0.0000000000
      4733      1578  TIP3      H1             19.2463869158       24.4894715334       -3.5276269216  W2        1578            0.0000000000
      4734      1578  TIP3      H2             18.7467469158       23.1051615334       -3.1727669216  W2        1578            0.0000000000
      4735      1579  TIP3      OH2            23.5461269158       23.8124615334        2.4465130784  W2        1579            0.0000000000
      4736      1579  TIP3      H1             23.1202569158       23.5846315334        3.2729130784  W2        1579            0.0000000000
      4737      1579  TIP3      H2             24.1267069158       23.0736415334        2.2640430784  W2        1579            0.0000000000
      4738      1580  TIP3      OH2            25.7490169158       24.7415115334       -8.4795869216  W2        1580            0.0000000000
      4739      1580  TIP3      H1             26.1023269158       24.3614915334       -7.6752369216  W2        1580            0.0000000000
      4740      1580  TIP3      H2             24.8003669158       24.6479915334       -8.3926569216  W2        1580            0.0000000000
      4741      1581  TIP3      OH2            14.3271369158       15.5971815334        4.3232530784  W2        1581            0.0000000000
      4742      1581  TIP3      H1             13.4343669158       15.9357215334        4.2556530784  W2        1581            0.0000000000
      4743      1581  TIP3      H2             14.2284169158       14.7417915334        4.7413330784  W2        1581            0.0000000000
      4744      1582  TIP3      OH2            19.8397969158       25.8531215334      -10.0325869216  W2        1582            0.0000000000
      4745      1582  TIP3      H1             20.0787769158       25.1049315334      -10.5796969216  W2        1582            0.0000000000
      4746      1582  TIP3      H2             19.5709269158       25.4652915334       -9.1998069216  W2        1582            0.0000000000
      4747      1583  TIP3      OH2            18.7768569158       25.4235015334       -7.5763269216  W2        1583            0.0000000000
      4748      1583  TIP3      H1             18.9236569158       24.9034815334       -6.7862369216  W2        1583            0.0000000000
      4749      1583  TIP3      H2             18.7740269158       26.3302615334       -7.2697369216  W2        1583            0.0000000000
      4750      1584  TIP3      OH2            15.2299669158       22.6758315334       -7.0657869216  W2        1584            0.0000000000
      4751      1584  TIP3      H1             14.5438969158       23.0280815334       -6.4988169216  W2        1584            0.0000000000
      4752      1584  TIP3      H2             15.7527569158       23.4387915334       -7.3123569216  W2        1584            0.0000000000
      4753      1585  TIP3      OH2            23.0614769158       15.3382115334        3.2131130784  W2        1585            0.0000000000
      4754      1585  TIP3      H1             23.7602669158       15.4120815334        3.8630830784  W2        1585            0.0000000000
      4755      1585  TIP3      H2             22.6806169158       14.4737115334        3.3674030784  W2        1585            0.0000000000
      4756      1586  TIP3      OH2            23.8459669158       14.9903815334       -5.6896569216  W2        1586            0.0000000000
      4757      1586  TIP3      H1             24.0657969158       15.4619215334       -6.4931169216  W2        1586            0.0000000000
      4758      1586  TIP3      H2             24.4043669158       15.3846415334       -5.0195969216  W2        1586            0.0000000000
      4759      1587  TIP3      OH2            21.0459569158       16.7182615334       -4.8548169216  W2        1587            0.0000000000
      4760      1587  TIP3      H1             21.8582169158       17.2225815334       -4.8086469216  W2        1587            0.0000000000
      4761      1587  TIP3      H2             20.8012569158       16.5732315334       -3.9408569216  W2        1587            0.0000000000
      4762      1588  TIP3      OH2            21.5815969158       17.7045315334        4.3298430784  W2        1588            0.0000000000
      4763      1588  TIP3      H1             21.7006269158       18.2780715334        5.0868830784  W2        1588            0.0000000000
      4764      1588  TIP3      H2             22.2370569158       17.0164715334        4.4446230784  W2        1588            0.0000000000
      4765      1589  TIP3      OH2            21.9296269158       13.7995615334       -3.9167069216  W2        1589            0.0000000000
      4766      1589  TIP3      H1             21.5829769158       14.4166215334       -3.2722769216  W2        1589            0.0000000000
      4767      1589  TIP3      H2             22.5883169158       14.3001315334       -4.3981569216  W2        1589            0.0000000000
      4768      1590  TIP3      OH2            17.5873269158       14.8625015334       -7.2294569216  W2        1590            0.0000000000
      4769      1590  TIP3      H1             17.5038069158       15.7508115334       -6.8828169216  W2        1590            0.0000000000
      4770      1590  TIP3      H2             18.4773569158       14.5971715334       -6.9977769216  W2        1590            0.0000000000
      4771      1591  TIP3      OH2            15.8458569158       25.2897215334       -8.1690069216  W2        1591            0.0000000000
      4772      1591  TIP3      H1             16.4380069158       25.9892015334       -7.8927669216  W2        1591            0.0000000000
      4773      1591  TIP3      H2             16.3051569158       24.8566715334       -8.8885469216  W2        1591            0.0000000000
      4774      1592  TIP3      OH2            14.1617769158       17.9540215334       -9.0530669216  W2        1592            0.0000000000
      4775      1592  TIP3      H1             14.1170369158       18.8933315334       -8.8743669216  W2        1592            0.0000000000
      4776      1592  TIP3      H2             13.2740969158       17.7185115334       -9.3228569216  W2        1592            0.0000000000
      4777      1593  TIP3      OH2            14.9699769158       12.7356815334       -0.3799669216  W2        1593            0.0000000000
      4778      1593  TIP3      H1             14.7409569158       12.7949315334       -1.3074669216  W2        1593            0.0000000000
      4779      1593  TIP3      H2             14.5273169158       11.9442315334       -0.0735569216  W2        1593            0.0000000000
      4780      1594  TIP3      OH2            13.0956269158       23.0991715334        8.0648430784  W2        1594            0.0000000000
      4781      1594  TIP3      H1             13.2396769158       22.1972415334        7.7785130784  W2        1594            0.0000000000
      4782      1594  TIP3      H2             12.3233669158       23.3853815334        7.5770730784  W2        1594            0.0000000000
      4783      1595  TIP3      OH2            17.4369969158       23.4427415334       -9.8026969216  W2        1595            0.0000000000
      4784      1595  TIP3      H1             17.5014069158       22.6487015334       -9.2720569216  W2        1595            0.0000000000
      4785      1595  TIP3      H2             18.0899169158       23.3240215334      -10.4924969216  W2        1595            0.0000000000
      4786      1596  TIP3      OH2            19.7512369158       23.0689815334        7.4974830784  W2        1596            0.0000000000
      4787      1596  TIP3      H1             19.4226169158       23.3397915334        6.6402230784  W2        1596            0.0000000000
      4788      1596  TIP3      H2             19.9030569158       22.1279615334        7.4099830784  W2        1596            0.0000000000
      4789      1597  TIP3      OH2            22.7893369158       24.4899115334      -10.0668969216  W2        1597            0.0000000000
      4790      1597  TIP3      H1             22.5207469158       24.6701215334       -9.1660069216  W2        1597            0.0000000000
      4791      1597  TIP3      H2             22.5828969158       23.5645315334      -10.1983169216  W2        1597            0.0000000000
      4792      1598  TIP3      OH2            25.4857569158       22.9847115334        4.8807130784  W2        1598            0.0000000000
      4793      1598  TIP3      H1             26.2312369158       23.5730815334        4.7611130784  W2        1598            0.0000000000
      4794      1598  TIP3      H2             24.7284369158       23.5666815334        4.9440230784  W2        1598            0.0000000000
      4795      1599  TIP3      OH2            13.9282769158       20.2995015334        7.4847730784  W2        1599            0.0000000000
      4796      1599  TIP3      H1             14.3363969158       19.4421615334        7.3638330784  W2        1599            0.0000000000
      4797      1599  TIP3      H2             13.6680369158       20.3136315334        8.4058030784  W2        1599            0.0000000000
      4798      1600  TIP3      OH2            18.5863769158       21.4153615334       -7.4968969216  W2        1600            0.0000000000
      4799      1600  TIP3      H1             18.1265769158       20.9311915334       -6.8110469216  W2        1600            0.0000000000
      4800      1600  TIP3      H2             18.8412469158       20.7469015334       -8.1328469216  W2        1600            0.0000000000
      4801      1601  TIP3      OH2            17.8753069158       19.3080715334        4.8590630784  W2        1601            0.0000000000
      4802      1601  TIP3      H1             17.2569169158       19.9827315334        5.1395330784  W2        1601            0.0000000000
      4803      1601  TIP3      H2             18.2194269158       19.6294615334        4.0256830784  W2        1601            0.0000000000
      4804      1602  TIP3      OH2            19.6574169158       19.6585415334       -9.2345769216  W2        1602            0.0000000000
      4805      1602  TIP3      H1             19.4769169158       19.5036615334      -10.1617469216  W2        1602            0.0000000000
      4806      1602  TIP3      H2             20.6074669158       19.7664115334       -9.1897869216  W2        1602            0.0000000000
      4807      1603  TIP3      OH2            22.8951269158       21.7796015334        8.1365430784  W2        1603            0.0000000000
      4808      1603  TIP3      H1             23.8482469158       21.8635115334        8.1091430784  W2        1603            0.0000000000
      4809      1603  TIP3      H2             22.7345869158       21.0677815334        8.7560330784  W2        1603            0.0000000000
      4810      1604  TIP3      OH2            18.2146769158       16.6631515334        5.9413730784  W2        1604            0.0000000000
      4811      1604  TIP3      H1             18.3647669158       15.9342815334        5.3393430784  W2        1604            0.0000000000
      4812      1604  TIP3      H2             18.2169169158       17.4403215334        5.3825930784  W2        1604            0.0000000000
      4813      1605  TIP3      OH2            18.6272469158       15.0327315334        3.4341130784  W2        1605            0.0000000000
      4814      1605  TIP3      H1             19.1629969158       15.4844015334        2.7820430784  W2        1605            0.0000000000
      4815      1605  TIP3      H2             17.7752069158       14.9247115334        3.0115230784  W2        1605            0.0000000000
      4816      1606  TIP3      OH2            20.2090869158       20.4723515334        3.6736330784  W2        1606            0.0000000000
      4817      1606  TIP3      H1             20.9595669158       20.3161015334        3.1004130784  W2        1606            0.0000000000
      4818      1606  TIP3      H2             19.8699169158       21.3240115334        3.3981830784  W2        1606            0.0000000000
      4819      1607  TIP3      OH2            24.6247069158       18.2875315334        8.7021630784  W2        1607            0.0000000000
      4820      1607  TIP3      H1             24.8168369158       17.3564715334        8.5906130784  W2        1607            0.0000000000
      4821      1607  TIP3      H2             25.4823369158       18.7124815334        8.6917030784  W2        1607            0.0000000000
      4822      1608  TIP3      OH2            16.6933069158       17.8615015334        7.8529330784  W2        1608            0.0000000000
      4823      1608  TIP3      H1             15.9262069158       17.3289815334        7.6426930784  W2        1608            0.0000000000
      4824      1608  TIP3      H2             17.3722069158       17.5515415334        7.2535630784  W2        1608            0.0000000000
      4825      1609  TIP3      OH2            19.4327969158       12.4893015334        3.8654730784  W2        1609            0.0000000000
      4826      1609  TIP3      H1             19.3347569158       13.4356215334        3.7600930784  W2        1609            0.0000000000
      4827      1609  TIP3      H2             18.6904169158       12.1166815334        3.3898230784  W2        1609            0.0000000000
      4828      1610  TIP3      OH2            20.6968469158       16.8108415334        7.4293130784  W2        1610            0.0000000000
      4829      1610  TIP3      H1             20.4613869158       16.5915115334        8.3308030784  W2        1610            0.0000000000
      4830      1610  TIP3      H2             19.9135369158       16.6039615334        6.9195630784  W2        1610            0.0000000000
      4831      1611  TIP3      OH2            23.4125069158       15.9381915334        6.5046630784  W2        1611            0.0000000000
      4832      1611  TIP3      H1             22.4650469158       15.9701615334        6.6369930784  W2        1611            0.0000000000
      4833      1611  TIP3      H2             23.7251769158       15.3129015334        7.1584830784  W2        1611            0.0000000000
      4834      1612  TIP3      OH2            25.0466569158       14.5723015334        8.5098530784  W2        1612            0.0000000000
      4835      1612  TIP3      H1             24.9498369158       13.6200315334        8.5040430784  W2        1612            0.0000000000
      4836      1612  TIP3      H2             24.7249669158       14.8409815334        9.3704030784  W2        1612            0.0000000000
      4837      1613  TIP3      OH2            14.8735869158       15.7818815334        7.5574030784  W2        1613            0.0000000000
      4838      1613  TIP3      H1             15.0853269158       15.0754915334        6.9471530784  W2        1613            0.0000000000
      4839      1613  TIP3      H2             14.7623369158       15.3444815334        8.4015230784  W2        1613            0.0000000000
      4840      1614  TIP3      OH2            19.6546069158       11.7830415334        6.5367530784  W2        1614            0.0000000000
      4841      1614  TIP3      H1             20.3664469158       11.1432615334        6.5226630784  W2        1614            0.0000000000
      4842      1614  TIP3      H2             19.5536469158       12.0498715334        5.6230630784  W2        1614            0.0000000000
      4843      1615  TIP3      OH2            20.0083569158       13.4658815334        8.5903830784  W2        1615            0.0000000000
      4844      1615  TIP3      H1             19.8765769158       12.9902615334        7.7702330784  W2        1615            0.0000000000
      4845      1615  TIP3      H2             19.4090969158       14.2102415334        8.5350930784  W2        1615            0.0000000000
      4846      1616  TIP3      OH2            13.1230769158       24.9852915334       -8.7504069216  W2        1616            0.0000000000
      4847      1616  TIP3      H1             14.0369969158       25.0641815334       -8.4770169216  W2        1616            0.0000000000
      4848      1616  TIP3      H2             13.1303869158       24.2982515334       -9.4168469216  W2        1616            0.0000000000
      4849      1617  TIP3      OH2            12.7220069158       21.5343815334        0.5830930784  W2        1617            0.0000000000
      4850      1617  TIP3      H1             12.9062969158       21.4525515334       -0.3526169216  W2        1617            0.0000000000
      4851      1617  TIP3      H2             13.5712969158       21.4100815334        1.0067330784  W2        1617            0.0000000000
      4852      1618  TIP3      OH2            12.3194869158       16.8048815334        6.7239730784  W2        1618            0.0000000000
      4853      1618  TIP3      H1             13.2389769158       16.6827115334        6.9602830784  W2        1618            0.0000000000
      4854      1618  TIP3      H2             11.8699369158       16.0548515334        7.1133230784  W2        1618            0.0000000000
      4855      1619  TIP3      OH2            13.5407369158       15.1170415334       -0.3847369216  W2        1619            0.0000000000
      4856      1619  TIP3      H1             13.9858969158       14.3252915334       -0.0827669216  W2        1619            0.0000000000
      4857      1619  TIP3      H2             14.0070369158       15.8335615334        0.0458230784  W2        1619            0.0000000000
      4858      1620  TIP3      OH2            11.8447669158       18.1163415334        0.6842830784  W2        1620            0.0000000000
      4859      1620  TIP3      H1             12.3367469158       17.8953915334       -0.1065169216  W2        1620            0.0000000000
      4860      1620  TIP3      H2             12.2068569158       18.9566815334        0.9652330784  W2        1620            0.0000000000
      4861      1621  TIP3      OH2            12.1584169158       14.3742515334       -5.2614769216  W2        1621            0.0000000000
      4862      1621  TIP3      H1             11.2332569158       14.5829115334       -5.3909269216  W2        1621            0.0000000000
      4863      1621  TIP3      H2             12.6124069158       14.8583315334       -5.9512469216  W2        1621            0.0000000000
      4864      1622  TIP3      OH2            12.1219569158       13.1121515334        3.0827730784  W2        1622            0.0000000000
      4865      1622  TIP3      H1             11.4570069158       12.8661815334        3.7258630784  W2        1622            0.0000000000
      4866      1622  TIP3      H2             11.6790869158       13.7341915334        2.5055730784  W2        1622            0.0000000000
      4867      1623  TIP3      OH2            22.2715869158       13.9851815334       -0.9084169216  W2        1623            0.0000000000
      4868      1623  TIP3      H1             21.5972669158       13.3557415334       -0.6528369216  W2        1623            0.0000000000
      4869      1623  TIP3      H2             22.8355069158       13.5010715334       -1.5116269216  W2        1623            0.0000000000
      4870      1624  TIP3      OH2            14.5983369158       12.6192115334       -3.0864269216  W2        1624            0.0000000000
      4871      1624  TIP3      H1             13.8213169158       12.3847015334       -3.5938369216  W2        1624            0.0000000000
      4872      1624  TIP3      H2             15.1286969158       11.8224215334       -3.0776269216  W2        1624            0.0000000000
      4873      1625  TIP3      OH2            13.4346769158       12.4170215334       -7.2828169216  W2        1625            0.0000000000
      4874      1625  TIP3      H1             13.8737469158       13.0280715334       -7.8744669216  W2        1625            0.0000000000
      4875      1625  TIP3      H2             12.8009169158       12.9554315334       -6.8088169216  W2        1625            0.0000000000
      4876      1626  TIP3      OH2            19.1775969158       12.5459215334       -3.2731169216  W2        1626            0.0000000000
      4877      1626  TIP3      H1             20.0519369158       12.9343515334       -3.3026869216  W2        1626            0.0000000000
      4878      1626  TIP3      H2             19.0416769158       12.3307015334       -2.3503969216  W2        1626            0.0000000000
      4879      1627  TIP3      OH2            24.7344369158       12.5759015334       -1.6239469216  W2        1627            0.0000000000
      4880      1627  TIP3      H1             24.8105969158       12.6710615334       -2.5733469216  W2        1627            0.0000000000
      4881      1627  TIP3      H2             24.4593569158       11.6681915334       -1.4950369216  W2        1627            0.0000000000
      4882      1628  TIP3      OH2            15.2955869158       14.3331715334       -8.8404069216  W2        1628            0.0000000000
      4883      1628  TIP3      H1             15.7869269158       13.7034115334       -9.3678569216  W2        1628            0.0000000000
      4884      1628  TIP3      H2             15.9192169158       14.6291115334       -8.1772869216  W2        1628            0.0000000000
      4885      1629  TIP3      OH2            20.3215969158       14.6263215334       -6.3833569216  W2        1629            0.0000000000
      4886      1629  TIP3      H1             20.4997269158       13.9796415334       -5.7004969216  W2        1629            0.0000000000
      4887      1629  TIP3      H2             20.2682169158       15.4600915334       -5.9162469216  W2        1629            0.0000000000
      4888      1630  TIP3      OH2            14.5561369158       13.1334015334        6.4311930784  W2        1630            0.0000000000
      4889      1630  TIP3      H1             14.1899569158       12.3676615334        6.8736630784  W2        1630            0.0000000000
      4890      1630  TIP3      H2             15.4689869158       13.1624215334        6.7177030784  W2        1630            0.0000000000
      4891      1631  TIP3      OH2            16.5292169158       12.4838415334        7.9669030784  W2        1631            0.0000000000
      4892      1631  TIP3      H1             17.4275769158       12.2098615334        7.7822430784  W2        1631            0.0000000000
      4893      1631  TIP3      H2             16.1425269158       11.7414415334        8.4311630784  W2        1631            0.0000000000
      4894      1632  TIP3      OH2            24.9504469158       11.8163715334        8.1491830784  W2        1632            0.0000000000
      4895      1632  TIP3      H1             25.0271669158       11.3904415334        9.0029530784  W2        1632            0.0000000000
      4896      1632  TIP3      H2             25.8441069158       11.8298415334        7.8065330784  W2        1632            0.0000000000
      4897      1633  TIP3      OH2           -11.5601230842      -16.2881084666        9.4468530784  W2        1692            0.0000000000
      4898      1633  TIP3      H1            -11.5180430842      -16.5107184666        8.5168530784  W2        1692            0.0000000000
      4899      1633  TIP3      H2            -10.7109130842      -15.8893984666        9.6368430784  W2        1692            0.0000000000
      4900      1634  TIP3      OH2           -19.1050830842      -21.9666384666        9.2182230784  W2        1700            0.0000000000
      4901      1634  TIP3      H1            -19.5360130842      -22.4116284666        9.9479630784  W2        1700            0.0000000000
      4902      1634  TIP3      H2            -19.8232130842      -21.5950084666        8.7059730784  W2        1700            0.0000000000
      4903      1635  TIP3      OH2           -17.8722030842      -11.8588784666        8.8234130784  W2        1740            0.0000000000
      4904      1635  TIP3      H1            -17.6332230842      -12.6070684666        8.2763030784  W2        1740            0.0000000000
      4905      1635  TIP3      H2            -18.1410730842      -12.2467084666        9.6561930784  W2        1740            0.0000000000
      4906      1636  TIP3      OH2           -23.5502230842      -19.7579784666        9.8029330784  W2        1754            0.0000000000
      4907      1636  TIP3      H1            -23.5949630842      -18.8186684666        9.9816330784  W2        1754            0.0000000000
      4908      1636  TIP3      H2            -24.4379030842      -19.9934884666        9.5331430784  W2        1754            0.0000000000
      4909      1637  TIP3      OH2           -15.8340230842       -9.9957384666        8.9620130784  W2        1760            0.0000000000
      4910      1637  TIP3      H1            -16.4779230842      -10.6268784666        9.2833830784  W2        1760            0.0000000000
      4911      1637  TIP3      H2            -15.0721930842      -10.5269384666        8.7303630784  W2        1760            0.0000000000
      4912      1638  TIP3      OH2           -11.2297330842      -10.1787484666        9.1958130784  W2        1762            0.0000000000
      4913      1638  TIP3      H1            -10.9466930842      -10.9732284666        9.6485030784  W2        1762            0.0000000000
      4914      1638  TIP3      H2            -10.4899430842       -9.9456484666        8.6349230784  W2        1762            0.0000000000
      4915      1639  TIP3      OH2           -20.2750030842      -14.2692584666        9.0533030784  W2        1764            0.0000000000
      4916      1639  TIP3      H1            -20.2105930842      -15.0632984666        9.5839430784  W2        1764            0.0000000000
      4917      1639  TIP3      H2            -19.6220830842      -14.3879784666        8.3635030784  W2        1764            0.0000000000
      4918      1640  TIP3      OH2           -14.9226630842      -13.2220884666        8.7891030784  W2        1766            0.0000000000
      4919      1640  TIP3      H1            -15.1912530842      -13.0418784666        9.6899930784  W2        1766            0.0000000000
      4920      1640  TIP3      H2            -15.1291030842      -14.1474684666        8.6576830784  W2        1766            0.0000000000
      4921      1641  TIP3      OH2           -18.0545830842      -18.0534584666        9.6214230784  W2        1771            0.0000000000
      4922      1641  TIP3      H1            -18.2350830842      -18.2083384666        8.6942530784  W2        1771            0.0000000000
      4923      1641  TIP3      H2            -17.1045330842      -17.9455884666        9.6662130784  W2        1771            0.0000000000
      4924      1642  TIP3      OH2            -8.6647530842      -15.6990384666        9.0672330784  W2        1773            0.0000000000
      4925      1642  TIP3      H1             -8.9382730842      -16.1234884666        8.2540630784  W2        1773            0.0000000000
      4926      1642  TIP3      H2             -8.6253430842      -14.7675884666        8.8502730784  W2        1773            0.0000000000
      4927      1643  TIP3      OH2            -9.1947030842      -19.6360784666        9.8076830784  W2        1799            0.0000000000
      4928      1643  TIP3      H1             -9.0982630842      -18.9693784666        9.1276530784  W2        1799            0.0000000000
      4929      1643  TIP3      H2             -9.3347430842      -20.4514484666        9.3262330784  W2        1799            0.0000000000
      4930      1644  TIP3      OH2            -9.9473230842      -22.2280984666        8.9252330784  W2        1804            0.0000000000
      4931      1644  TIP3      H1             -9.3367430842      -22.5994184666        9.5620530784  W2        1804            0.0000000000
      4932      1644  TIP3      H2            -10.7841730842      -22.6494084666        9.1212330784  W2        1804            0.0000000000
      4933      1645  TIP3      OH2           -22.5582530842       -8.4266784666        9.4959030784  W2        1846            0.0000000000
      4934      1645  TIP3      H1            -22.8257930842       -8.1403884666       10.3692130784  W2        1846            0.0000000000
      4935      1645  TIP3      H2            -21.7869930842       -8.9727584666        9.6481530784  W2        1846            0.0000000000
      4936      1646  TIP3      OH2             7.2958769158      -16.2881084666        9.4468530784  W2        1908            0.0000000000
      4937      1646  TIP3      H1              7.3379569158      -16.5107184666        8.5168530784  W2        1908            0.0000000000
      4938      1646  TIP3      H2              8.1450869158      -15.8893984666        9.6368430784  W2        1908            0.0000000000
      4939      1647  TIP3      OH2            -0.2490830842      -21.9666384666        9.2182230784  W2        1916            0.0000000000
      4940      1647  TIP3      H1             -0.6800130842      -22.4116284666        9.9479630784  W2        1916            0.0000000000
      4941      1647  TIP3      H2             -0.9672130842      -21.5950084666        8.7059730784  W2        1916            0.0000000000
      4942      1648  TIP3      OH2             0.9837969158      -11.8588784666        8.8234130784  W2        1956            0.0000000000
      4943      1648  TIP3      H1              1.2227769158      -12.6070684666        8.2763030784  W2        1956            0.0000000000
      4944      1648  TIP3      H2              0.7149269158      -12.2467084666        9.6561930784  W2        1956            0.0000000000
      4945      1649  TIP3      OH2            -4.6942230842      -19.7579784666        9.8029330784  W2        1970            0.0000000000
      4946      1649  TIP3      H1             -4.7389630842      -18.8186684666        9.9816330784  W2        1970            0.0000000000
      4947      1649  TIP3      H2             -5.5819030842      -19.9934884666        9.5331430784  W2        1970            0.0000000000
      4948      1650  TIP3      OH2             3.0219769158       -9.9957384666        8.9620130784  W2        1976            0.0000000000
      4949      1650  TIP3      H1              2.3780769158      -10.6268784666        9.2833830784  W2        1976            0.0000000000
      4950      1650  TIP3      H2              3.7838069158      -10.5269384666        8.7303630784  W2        1976            0.0000000000
      4951      1651  TIP3      OH2             7.6262669158      -10.1787484666        9.1958130784  W2        1978            0.0000000000
      4952      1651  TIP3      H1              7.9093069158      -10.9732284666        9.6485030784  W2        1978            0.0000000000
      4953      1651  TIP3      H2              8.3660569158       -9.9456484666        8.6349230784  W2        1978            0.0000000000
      4954      1652  TIP3      OH2            -1.4190030842      -14.2692584666        9.0533030784  W2        1980            0.0000000000
      4955      1652  TIP3      H1             -1.3545930842      -15.0632984666        9.5839430784  W2        1980            0.0000000000
      4956      1652  TIP3      H2             -0.7660830842      -14.3879784666        8.3635030784  W2        1980            0.0000000000
      4957      1653  TIP3      OH2             3.9333369158      -13.2220884666        8.7891030784  W2        1982            0.0000000000
      4958      1653  TIP3      H1              3.6647469158      -13.0418784666        9.6899930784  W2        1982            0.0000000000
      4959      1653  TIP3      H2              3.7268969158      -14.1474684666        8.6576830784  W2        1982            0.0000000000
      4960      1654  TIP3      OH2             0.8014169158      -18.0534584666        9.6214230784  W2        1987            0.0000000000
      4961      1654  TIP3      H1              0.6209169158      -18.2083384666        8.6942530784  W2        1987            0.0000000000
      4962      1654  TIP3      H2              1.7514669158      -17.9455884666        9.6662130784  W2        1987            0.0000000000
      4963      1655  TIP3      OH2            10.1912469158      -15.6990384666        9.0672330784  W2        1989            0.0000000000
      4964      1655  TIP3      H1              9.9177269158      -16.1234884666        8.2540630784  W2        1989            0.0000000000
      4965      1655  TIP3      H2             10.2306569158      -14.7675884666        8.8502730784  W2        1989            0.0000000000
      4966      1656  TIP3      OH2             9.6612969158      -19.6360784666        9.8076830784  W2        2015            0.0000000000
      4967      1656  TIP3      H1              9.7577369158      -18.9693784666        9.1276530784  W2        2015            0.0000000000
      4968      1656  TIP3      H2              9.5212569158      -20.4514484666        9.3262330784  W2        2015            0.0000000000
      4969      1657  TIP3      OH2             8.9086769158      -22.2280984666        8.9252330784  W2        2020            0.0000000000
      4970      1657  TIP3      H1              9.5192569158      -22.5994184666        9.5620530784  W2        2020            0.0000000000
      4971      1657  TIP3      H2              8.0718269158      -22.6494084666        9.1212330784  W2        2020            0.0000000000
      4972      1658  TIP3      OH2            -3.7022530842       -8.4266784666        9.4959030784  W2        2062            0.0000000000
      4973      1658  TIP3      H1             -3.9697930842       -8.1403884666       10.3692130784  W2        2062            0.0000000000
      4974      1658  TIP3      H2             -2.9309930842       -8.9727584666        9.6481530784  W2        2062            0.0000000000
      4975      1659  TIP3      OH2            18.6069169158      -21.9666384666        9.2182230784  W2        2118            0.0000000000
      4976      1659  TIP3      H1             18.1759869158      -22.4116284666        9.9479630784  W2        2118            0.0000000000
      4977      1659  TIP3      H2             17.8887869158      -21.5950084666        8.7059730784  W2        2118            0.0000000000
      4978      1660  TIP3      OH2            19.8397969158      -11.8588784666        8.8234130784  W2        2150            0.0000000000
      4979      1660  TIP3      H1             20.0787769158      -12.6070684666        8.2763030784  W2        2150            0.0000000000
      4980      1660  TIP3      H2             19.5709269158      -12.2467084666        9.6561930784  W2        2150            0.0000000000
      4981      1661  TIP3      OH2            14.1617769158      -19.7579784666        9.8029330784  W2        2162            0.0000000000
      4982      1661  TIP3      H1             14.1170369158      -18.8186684666        9.9816330784  W2        2162            0.0000000000
      4983      1661  TIP3      H2             13.2740969158      -19.9934884666        9.5331430784  W2        2162            0.0000000000
      4984      1662  TIP3      OH2            21.8779769158       -9.9957384666        8.9620130784  W2        2167            0.0000000000
      4985      1662  TIP3      H1             21.2340769158      -10.6268784666        9.2833830784  W2        2167            0.0000000000
      4986      1662  TIP3      H2             22.6398069158      -10.5269384666        8.7303630784  W2        2167            0.0000000000
      4987      1663  TIP3      OH2            17.4369969158      -14.2692584666        9.0533030784  W2        2170            0.0000000000
      4988      1663  TIP3      H1             17.5014069158      -15.0632984666        9.5839430784  W2        2170            0.0000000000
      4989      1663  TIP3      H2             18.0899169158      -14.3879784666        8.3635030784  W2        2170            0.0000000000
      4990      1664  TIP3      OH2            22.7893369158      -13.2220884666        8.7891030784  W2        2172            0.0000000000
      4991      1664  TIP3      H1             22.5207469158      -13.0418784666        9.6899930784  W2        2172            0.0000000000
      4992      1664  TIP3      H2             22.5828969158      -14.1474684666        8.6576830784  W2        2172            0.0000000000
      4993      1665  TIP3      OH2            19.6574169158      -18.0534584666        9.6214230784  W2        2177            0.0000000000
      4994      1665  TIP3      H1             19.4769169158      -18.2083384666        8.6942530784  W2        2177            0.0000000000
      4995      1665  TIP3      H2             20.6074669158      -17.9455884666        9.6662130784  W2        2177            0.0000000000
      4996      1666  TIP3      OH2            15.1537469158       -8.4266784666        9.4959030784  W2        2223            0.0000000000
      4997      1666  TIP3      H1             14.8862069158       -8.1403884666       10.3692130784  W2        2223            0.0000000000
      4998      1666  TIP3      H2             15.9250069158       -8.9727584666        9.6481530784  W2        2223            0.0000000000
      4999      1667  TIP3      OH2           -11.5601230842        2.5678915334        9.4468530784  W2        2284            0.0000000000
      5000      1667  TIP3      H1            -11.5180430842        2.3452815334        8.5168530784  W2        2284            0.0000000000
      5001      1667  TIP3      H2            -10.7109130842        2.9666015334        9.6368430784  W2        2284            0.0000000000
      5002      1668  TIP3      OH2           -19.1050830842       -3.1106384666        9.2182230784  W2        2292            0.0000000000
      5003      1668  TIP3      H1            -19.5360130842       -3.5556284666        9.9479630784  W2        2292            0.0000000000
      5004      1668  TIP3      H2            -19.8232130842       -2.7390084666        8.7059730784  W2        2292            0.0000000000
      5005      1669  TIP3      OH2           -17.8722030842        6.9971215334        8.8234130784  W2        2332            0.0000000000
      5006      1669  TIP3      H1            -17.6332230842        6.2489315334        8.2763030784  W2        2332            0.0000000000
      5007      1669  TIP3      H2            -18.1410730842        6.6092915334        9.6561930784  W2        2332            0.0000000000
      5008      1670  TIP3      OH2           -23.5502230842       -0.9019784666        9.8029330784  W2        2346            0.0000000000
      5009      1670  TIP3      H1            -23.5949630842        0.0373315334        9.9816330784  W2        2346            0.0000000000
      5010      1670  TIP3      H2            -24.4379030842       -1.1374884666        9.5331430784  W2        2346            0.0000000000
      5011      1671  TIP3      OH2           -15.8340230842        8.8602615334        8.9620130784  W2        2352            0.0000000000
      5012      1671  TIP3      H1            -16.4779230842        8.2291215334        9.2833830784  W2        2352            0.0000000000
      5013      1671  TIP3      H2            -15.0721930842        8.3290615334        8.7303630784  W2        2352            0.0000000000
      5014      1672  TIP3      OH2           -11.2297330842        8.6772515334        9.1958130784  W2        2354            0.0000000000
      5015      1672  TIP3      H1            -10.9466930842        7.8827715334        9.6485030784  W2        2354            0.0000000000
      5016      1672  TIP3      H2            -10.4899430842        8.9103515334        8.6349230784  W2        2354            0.0000000000
      5017      1673  TIP3      OH2           -20.2750030842        4.5867415334        9.0533030784  W2        2356            0.0000000000
      5018      1673  TIP3      H1            -20.2105930842        3.7927015334        9.5839430784  W2        2356            0.0000000000
      5019      1673  TIP3      H2            -19.6220830842        4.4680215334        8.3635030784  W2        2356            0.0000000000
      5020      1674  TIP3      OH2           -14.9226630842        5.6339115334        8.7891030784  W2        2358            0.0000000000
      5021      1674  TIP3      H1            -15.1912530842        5.8141215334        9.6899930784  W2        2358            0.0000000000
      5022      1674  TIP3      H2            -15.1291030842        4.7085315334        8.6576830784  W2        2358            0.0000000000
      5023      1675  TIP3      OH2           -18.0545830842        0.8025415334        9.6214230784  W2        2363            0.0000000000
      5024      1675  TIP3      H1            -18.2350830842        0.6476615334        8.6942530784  W2        2363            0.0000000000
      5025      1675  TIP3      H2            -17.1045330842        0.9104115334        9.6662130784  W2        2363            0.0000000000
      5026      1676  TIP3      OH2            -8.6647530842        3.1569615334        9.0672330784  W2        2365            0.0000000000
      5027      1676  TIP3      H1             -8.9382730842        2.7325115334        8.2540630784  W2        2365            0.0000000000
      5028      1676  TIP3      H2             -8.6253430842        4.0884115334        8.8502730784  W2        2365            0.0000000000
      5029      1677  TIP3      OH2            -9.1947030842       -0.7800784666        9.8076830784  W2        2391            0.0000000000
      5030      1677  TIP3      H1             -9.0982630842       -0.1133784666        9.1276530784  W2        2391            0.0000000000
      5031      1677  TIP3      H2             -9.3347430842       -1.5954484666        9.3262330784  W2        2391            0.0000000000
      5032      1678  TIP3      OH2            -9.9473230842       -3.3720984666        8.9252330784  W2        2396            0.0000000000
      5033      1678  TIP3      H1             -9.3367430842       -3.7434184666        9.5620530784  W2        2396            0.0000000000
      5034      1678  TIP3      H2            -10.7841730842       -3.7934084666        9.1212330784  W2        2396            0.0000000000
      5035      1679  TIP3      OH2           -22.5582530842       10.4293215334        9.4959030784  W2        2438            0.0000000000
      5036      1679  TIP3      H1            -22.8257930842       10.7156115334       10.3692130784  W2        2438            0.0000000000
      5037      1679  TIP3      H2            -21.7869930842        9.8832415334        9.6481530784  W2        2438            0.0000000000
      5038      1680  TIP3      OH2             7.2958769158        2.5678915334        9.4468530784  W2        2500            0.0000000000
      5039      1680  TIP3      H1              7.3379569158        2.3452815334        8.5168530784  W2        2500            0.0000000000
      5040      1680  TIP3      H2              8.1450869158        2.9666015334        9.6368430784  W2        2500            0.0000000000
      5041      1681  TIP3      OH2            -0.2490830842       -3.1106384666        9.2182230784  W2        2508            0.0000000000
      5042      1681  TIP3      H1             -0.6800130842       -3.5556284666        9.9479630784  W2        2508            0.0000000000
      5043      1681  TIP3      H2             -0.9672130842       -2.7390084666        8.7059730784  W2        2508            0.0000000000
      5044      1682  TIP3      OH2             0.9837969158        6.9971215334        8.8234130784  W2        2548            0.0000000000
      5045      1682  TIP3      H1              1.2227769158        6.2489315334        8.2763030784  W2        2548            0.0000000000
      5046      1682  TIP3      H2              0.7149269158        6.6092915334        9.6561930784  W2        2548            0.0000000000
      5047      1683  TIP3      OH2            -4.6942230842       -0.9019784666        9.8029330784  W2        2562            0.0000000000
      5048      1683  TIP3      H1             -4.7389630842        0.0373315334        9.9816330784  W2        2562            0.0000000000
      5049      1683  TIP3      H2             -5.5819030842       -1.1374884666        9.5331430784  W2        2562            0.0000000000
      5050      1684  TIP3      OH2             3.0219769158        8.8602615334        8.9620130784  W2        2568            0.0000000000
      5051      1684  TIP3      H1              2.3780769158        8.2291215334        9.2833830784  W2        2568            0.0000000000
      5052      1684  TIP3      H2              3.7838069158        8.3290615334        8.7303630784  W2        2568            0.0000000000
      5053      1685  TIP3      OH2             7.6262669158        8.6772515334        9.1958130784  W2        2570            0.0000000000
      5054      1685  TIP3      H1              7.9093069158        7.8827715334        9.6485030784  W2        2570            0.0000000000
      5055      1685  TIP3      H2              8.3660569158        8.9103515334        8.6349230784  W2        2570            0.0000000000
      5056      1686  TIP3      OH2            -1.4190030842        4.5867415334        9.0533030784  W2        2572            0.0000000000
      5057      1686  TIP3      H1             -1.3545930842        3.7927015334        9.5839430784  W2        2572            0.0000000000
      5058      1686  TIP3      H2             -0.7660830842        4.4680215334        8.3635030784  W2        2572            0.0000000000
      5059      1687  TIP3      OH2             3.9333369158        5.6339115334        8.7891030784  W2        2574            0.0000000000
      5060      1687  TIP3      H1              3.6647469158        5.8141215334        9.6899930784  W2        2574            0.0000000000
      5061      1687  TIP3      H2              3.7268969158        4.7085315334        8.6576830784  W2        2574            0.0000000000
      5062      1688  TIP3      OH2             0.8014169158        0.8025415334        9.6214230784  W2        2579            0.0000000000
      5063      1688  TIP3      H1              0.6209169158        0.6476615334        8.6942530784  W2        2579            0.0000000000
      5064      1688  TIP3      H2              1.7514669158        0.9104115334        9.6662130784  W2        2579            0.0000000000
      5065      1689  TIP3      OH2            10.1912469158        3.1569615334        9.0672330784  W2        2581            0.0000000000
      5066      1689  TIP3      H1              9.9177269158        2.7325115334        8.2540630784  W2        2581            0.0000000000
      5067      1689  TIP3      H2             10.2306569158        4.0884115334        8.8502730784  W2        2581            0.0000000000
      5068      1690  TIP3      OH2             9.6612969158       -0.7800784666        9.8076830784  W2        2607            0.0000000000
      5069      1690  TIP3      H1              9.7577369158       -0.1133784666        9.1276530784  W2        2607            0.0000000000
      5070      1690  TIP3      H2              9.5212569158       -1.5954484666        9.3262330784  W2        2607            0.0000000000
      5071      1691  TIP3      OH2             8.9086769158       -3.3720984666        8.9252330784  W2        2612            0.0000000000
      5072      1691  TIP3      H1              9.5192569158       -3.7434184666        9.5620530784  W2        2612            0.0000000000
      5073      1691  TIP3      H2              8.0718269158       -3.7934084666        9.1212330784  W2        2612            0.0000000000
      5074      1692  TIP3      OH2            -3.7022530842       10.4293215334        9.4959030784  W2        2654            0.0000000000
      5075      1692  TIP3      H1             -3.9697930842       10.7156115334       10.3692130784  W2        2654            0.0000000000
      5076      1692  TIP3      H2             -2.9309930842        9.8832415334        9.6481530784  W2        2654            0.0000000000
      5077      1693  TIP3      OH2            18.6069169158       -3.1106384666        9.2182230784  W2        2710            0.0000000000
      5078      1693  TIP3      H1             18.1759869158       -3.5556284666        9.9479630784  W2        2710            0.0000000000
      5079      1693  TIP3      H2             17.8887869158       -2.7390084666        8.7059730784  W2        2710            0.0000000000
      5080      1694  TIP3      OH2            19.8397969158        6.9971215334        8.8234130784  W2        2742            0.0000000000
      5081      1694  TIP3      H1             20.0787769158        6.2489315334        8.2763030784  W2        2742            0.0000000000
      5082      1694  TIP3      H2             19.5709269158        6.6092915334        9.6561930784  W2        2742            0.0000000000
      5083      1695  TIP3      OH2            14.1617769158       -0.9019784666        9.8029330784  W2        2754            0.0000000000
      5084      1695  TIP3      H1             14.1170369158        0.0373315334        9.9816330784  W2        2754            0.0000000000
      5085      1695  TIP3      H2             13.2740969158       -1.1374884666        9.5331430784  W2        2754            0.0000000000
      5086      1696  TIP3      OH2            21.8779769158        8.8602615334        8.9620130784  W2        2759            0.0000000000
      5087      1696  TIP3      H1             21.2340769158        8.2291215334        9.2833830784  W2        2759            0.0000000000
      5088      1696  TIP3      H2             22.6398069158        8.3290615334        8.7303630784  W2        2759            0.0000000000
      5089      1697  TIP3      OH2            17.4369969158        4.5867415334        9.0533030784  W2        2762            0.0000000000
      5090      1697  TIP3      H1             17.5014069158        3.7927015334        9.5839430784  W2        2762            0.0000000000
      5091      1697  TIP3      H2             18.0899169158        4.4680215334        8.3635030784  W2        2762            0.0000000000
      5092      1698  TIP3      OH2            22.7893369158        5.6339115334        8.7891030784  W2        2764            0.0000000000
      5093      1698  TIP3      H1             22.5207469158        5.8141215334        9.6899930784  W2        2764            0.0000000000
      5094      1698  TIP3      H2             22.5828969158        4.7085315334        8.6576830784  W2        2764            0.0000000000
      5095      1699  TIP3      OH2            19.6574169158        0.8025415334        9.6214230784  W2        2769            0.0000000000
      5096      1699  TIP3      H1             19.4769169158        0.6476615334        8.6942530784  W2        2769            0.0000000000
      5097      1699  TIP3      H2             20.6074669158        0.9104115334        9.6662130784  W2        2769            0.0000000000
      5098      1700  TIP3      OH2            15.1537469158       10.4293215334        9.4959030784  W2        2815            0.0000000000
      5099      1700  TIP3      H1             14.8862069158       10.7156115334       10.3692130784  W2        2815            0.0000000000
      5100      1700  TIP3      H2             15.9250069158        9.8832415334        9.6481530784  W2        2815            0.0000000000
      5101      1701  TIP3      OH2           -11.5601230842       21.4238915334        9.4468530784  W2        2863            0.0000000000
      5102      1701  TIP3      H1            -11.5180430842       21.2012815334        8.5168530784  W2        2863            0.0000000000
      5103      1701  TIP3      H2            -10.7109130842       21.8226015334        9.6368430784  W2        2863            0.0000000000
      5104      1702  TIP3      OH2           -19.1050830842       15.7453615334        9.2182230784  W2        2871            0.0000000000
      5105      1702  TIP3      H1            -19.5360130842       15.3003715334        9.9479630784  W2        2871            0.0000000000
      5106      1702  TIP3      H2            -19.8232130842       16.1169915334        8.7059730784  W2        2871            0.0000000000
      5107      1703  TIP3      OH2           -17.8722030842       25.8531215334        8.8234130784  W2        2904            0.0000000000
      5108      1703  TIP3      H1            -17.6332230842       25.1049315334        8.2763030784  W2        2904            0.0000000000
      5109      1703  TIP3      H2            -18.1410730842       25.4652915334        9.6561930784  W2        2904            0.0000000000
      5110      1704  TIP3      OH2           -23.5502230842       17.9540215334        9.8029330784  W2        2916            0.0000000000
      5111      1704  TIP3      H1            -23.5949630842       18.8933315334        9.9816330784  W2        2916            0.0000000000
      5112      1704  TIP3      H2            -24.4379030842       17.7185115334        9.5331430784  W2        2916            0.0000000000
      5113      1705  TIP3      OH2           -20.2750030842       23.4427415334        9.0533030784  W2        2919            0.0000000000
      5114      1705  TIP3      H1            -20.2105930842       22.6487015334        9.5839430784  W2        2919            0.0000000000
      5115      1705  TIP3      H2            -19.6220830842       23.3240215334        8.3635030784  W2        2919            0.0000000000
      5116      1706  TIP3      OH2           -14.9226630842       24.4899115334        8.7891030784  W2        2921            0.0000000000
      5117      1706  TIP3      H1            -15.1912530842       24.6701215334        9.6899930784  W2        2921            0.0000000000
      5118      1706  TIP3      H2            -15.1291030842       23.5645315334        8.6576830784  W2        2921            0.0000000000
      5119      1707  TIP3      OH2           -18.0545830842       19.6585415334        9.6214230784  W2        2926            0.0000000000
      5120      1707  TIP3      H1            -18.2350830842       19.5036615334        8.6942530784  W2        2926            0.0000000000
      5121      1707  TIP3      H2            -17.1045330842       19.7664115334        9.6662130784  W2        2926            0.0000000000
      5122      1708  TIP3      OH2            -8.6647530842       22.0129615334        9.0672330784  W2        2928            0.0000000000
      5123      1708  TIP3      H1             -8.9382730842       21.5885115334        8.2540630784  W2        2928            0.0000000000
      5124      1708  TIP3      H2             -8.6253430842       22.9444115334        8.8502730784  W2        2928            0.0000000000
      5125      1709  TIP3      OH2            -9.1947030842       18.0759215334        9.8076830784  W2        2948            0.0000000000
      5126      1709  TIP3      H1             -9.0982630842       18.7426215334        9.1276530784  W2        2948            0.0000000000
      5127      1709  TIP3      H2             -9.3347430842       17.2605515334        9.3262330784  W2        2948            0.0000000000
      5128      1710  TIP3      OH2            -9.9473230842       15.4839015334        8.9252330784  W2        2953            0.0000000000
      5129      1710  TIP3      H1             -9.3367430842       15.1125815334        9.5620530784  W2        2953            0.0000000000
      5130      1710  TIP3      H2            -10.7841730842       15.0625915334        9.1212330784  W2        2953            0.0000000000
      5131      1711  TIP3      OH2             7.2958769158       21.4238915334        9.4468530784  W2        3026            0.0000000000
      5132      1711  TIP3      H1              7.3379569158       21.2012815334        8.5168530784  W2        3026            0.0000000000
      5133      1711  TIP3      H2              8.1450869158       21.8226015334        9.6368430784  W2        3026            0.0000000000
      5134      1712  TIP3      OH2            -0.2490830842       15.7453615334        9.2182230784  W2        3034            0.0000000000
      5135      1712  TIP3      H1             -0.6800130842       15.3003715334        9.9479630784  W2        3034            0.0000000000
      5136      1712  TIP3      H2             -0.9672130842       16.1169915334        8.7059730784  W2        3034            0.0000000000
      5137      1713  TIP3      OH2             0.9837969158       25.8531215334        8.8234130784  W2        3067            0.0000000000
      5138      1713  TIP3      H1              1.2227769158       25.1049315334        8.2763030784  W2        3067            0.0000000000
      5139      1713  TIP3      H2              0.7149269158       25.4652915334        9.6561930784  W2        3067            0.0000000000
      5140      1714  TIP3      OH2            -4.6942230842       17.9540215334        9.8029330784  W2        3079            0.0000000000
      5141      1714  TIP3      H1             -4.7389630842       18.8933315334        9.9816330784  W2        3079            0.0000000000
      5142      1714  TIP3      H2             -5.5819030842       17.7185115334        9.5331430784  W2        3079            0.0000000000
      5143      1715  TIP3      OH2            -1.4190030842       23.4427415334        9.0533030784  W2        3082            0.0000000000
      5144      1715  TIP3      H1             -1.3545930842       22.6487015334        9.5839430784  W2        3082            0.0000000000
      5145      1715  TIP3      H2             -0.7660830842       23.3240215334        8.3635030784  W2        3082            0.0000000000
      5146      1716  TIP3      OH2             3.9333369158       24.4899115334        8.7891030784  W2        3084            0.0000000000
      5147      1716  TIP3      H1              3.6647469158       24.6701215334        9.6899930784  W2        3084            0.0000000000
      5148      1716  TIP3      H2              3.7268969158       23.5645315334        8.6576830784  W2        3084            0.0000000000
      5149      1717  TIP3      OH2             0.8014169158       19.6585415334        9.6214230784  W2        3089            0.0000000000
      5150      1717  TIP3      H1              0.6209169158       19.5036615334        8.6942530784  W2        3089            0.0000000000
      5151      1717  TIP3      H2              1.7514669158       19.7664115334        9.6662130784  W2        3089            0.0000000000
      5152      1718  TIP3      OH2            10.1912469158       22.0129615334        9.0672330784  W2        3091            0.0000000000
      5153      1718  TIP3      H1              9.9177269158       21.5885115334        8.2540630784  W2        3091            0.0000000000
      5154      1718  TIP3      H2             10.2306569158       22.9444115334        8.8502730784  W2        3091            0.0000000000
      5155      1719  TIP3      OH2             9.6612969158       18.0759215334        9.8076830784  W2        3111            0.0000000000
      5156      1719  TIP3      H1              9.7577369158       18.7426215334        9.1276530784  W2        3111            0.0000000000
      5157      1719  TIP3      H2              9.5212569158       17.2605515334        9.3262330784  W2        3111            0.0000000000
      5158      1720  TIP3      OH2             8.9086769158       15.4839015334        8.9252330784  W2        3116            0.0000000000
      5159      1720  TIP3      H1              9.5192569158       15.1125815334        9.5620530784  W2        3116            0.0000000000
      5160      1720  TIP3      H2              8.0718269158       15.0625915334        9.1212330784  W2        3116            0.0000000000
      5161      1721  TIP3      OH2            18.6069169158       15.7453615334        9.2182230784  W2        3185            0.0000000000
      5162      1721  TIP3      H1             18.1759869158       15.3003715334        9.9479630784  W2        3185            0.0000000000
      5163      1721  TIP3      H2             17.8887869158       16.1169915334        8.7059730784  W2        3185            0.0000000000
      5164      1722  TIP3      OH2            19.8397969158       25.8531215334        8.8234130784  W2        3214            0.0000000000
      5165      1722  TIP3      H1             20.0787769158       25.1049315334        8.2763030784  W2        3214            0.0000000000
      5166      1722  TIP3      H2             19.5709269158       25.4652915334        9.6561930784  W2        3214            0.0000000000
      5167      1723  TIP3      OH2            14.1617769158       17.9540215334        9.8029330784  W2        3224            0.0000000000
      5168      1723  TIP3      H1             14.1170369158       18.8933315334        9.9816330784  W2        3224            0.0000000000
      5169      1723  TIP3      H2             13.2740969158       17.7185115334        9.5331430784  W2        3224            0.0000000000
      5170      1724  TIP3      OH2            17.4369969158       23.4427415334        9.0533030784  W2        3227            0.0000000000
      5171      1724  TIP3      H1             17.5014069158       22.6487015334        9.5839430784  W2        3227            0.0000000000
      5172      1724  TIP3      H2             18.0899169158       23.3240215334        8.3635030784  W2        3227            0.0000000000
      5173      1725  TIP3      OH2            22.7893369158       24.4899115334        8.7891030784  W2        3229            0.0000000000
      5174      1725  TIP3      H1             22.5207469158       24.6701215334        9.6899930784  W2        3229            0.0000000000
      5175      1725  TIP3      H2             22.5828969158       23.5645315334        8.6576830784  W2        3229            0.0000000000
      5176      1726  TIP3      OH2            19.6574169158       19.6585415334        9.6214230784  W2        3234            0.0000000000
      5177      1726  TIP3      H1             19.4769169158       19.5036615334        8.6942530784  W2        3234            0.0000000000
      5178      1726  TIP3      H2             20.6074669158       19.7664115334        9.6662130784  W2        3234            0.0000000000
